# vtk DataFile Version 2.0
Pressure Field Data 
ASCII 
DATASET UNSTRUCTURED_GRID 

POINTS 2860 double 

    0.0000000000000000E+00     0.0000000000000000E+00     0.0000000000000000E+00 
    1.0000000000000000E+00     0.0000000000000000E+00     0.0000000000000000E+00 
    1.0000000000000000E+00     1.0000000000000000E+00     0.0000000000000000E+00 
    0.0000000000000000E+00     1.0000000000000000E+00     0.0000000000000000E+00 
    2.5000000000000000E-01     2.5000000000000000E-01     0.0000000000000000E+00 
    7.5000000000000000E-01     2.5000000000000000E-01     0.0000000000000000E+00 
    7.5000000000000000E-01     7.5000000000000000E-01     0.0000000000000000E+00 
    2.5000000000000000E-01     7.5000000000000000E-01     0.0000000000000000E+00 
    3.1249999999942091E-02     0.0000000000000000E+00     0.0000000000000000E+00 
    6.2499999999873469E-02     0.0000000000000000E+00     0.0000000000000000E+00 
    9.3749999999826514E-02     0.0000000000000000E+00     0.0000000000000000E+00 
    1.2499999999977961E-01     0.0000000000000000E+00     0.0000000000000000E+00 
    1.5624999999968961E-01     0.0000000000000000E+00     0.0000000000000000E+00 
    1.8749999999959971E-01     0.0000000000000000E+00     0.0000000000000000E+00 
    2.1874999999950970E-01     0.0000000000000000E+00     0.0000000000000000E+00 
    2.4999999999941969E-01     0.0000000000000000E+00     0.0000000000000000E+00 
    2.8124999999932920E-01     0.0000000000000000E+00     0.0000000000000000E+00 
    3.1249999999923850E-01     0.0000000000000000E+00     0.0000000000000000E+00 
    3.4374999999914790E-01     0.0000000000000000E+00     0.0000000000000000E+00 
    3.7499999999905720E-01     0.0000000000000000E+00     0.0000000000000000E+00 
    4.0624999999896660E-01     0.0000000000000000E+00     0.0000000000000000E+00 
    4.3749999999887590E-01     0.0000000000000000E+00     0.0000000000000000E+00 
    4.6874999999878530E-01     0.0000000000000000E+00     0.0000000000000000E+00 
    4.9999999999869471E-01     0.0000000000000000E+00     0.0000000000000000E+00 
    5.3124999999877620E-01     0.0000000000000000E+00     0.0000000000000000E+00 
    5.6249999999885780E-01     0.0000000000000000E+00     0.0000000000000000E+00 
    5.9374999999893940E-01     0.0000000000000000E+00     0.0000000000000000E+00 
    6.2499999999902101E-01     0.0000000000000000E+00     0.0000000000000000E+00 
    6.5624999999910261E-01     0.0000000000000000E+00     0.0000000000000000E+00 
    6.8749999999918421E-01     0.0000000000000000E+00     0.0000000000000000E+00 
    7.1874999999926570E-01     0.0000000000000000E+00     0.0000000000000000E+00 
    7.4999999999934730E-01     0.0000000000000000E+00     0.0000000000000000E+00 
    7.8124999999942890E-01     0.0000000000000000E+00     0.0000000000000000E+00 
    8.1249999999951039E-01     0.0000000000000000E+00     0.0000000000000000E+00 
    8.4374999999959199E-01     0.0000000000000000E+00     0.0000000000000000E+00 
    8.7499999999967359E-01     0.0000000000000000E+00     0.0000000000000000E+00 
    9.0624999999975520E-01     0.0000000000000000E+00     0.0000000000000000E+00 
    9.3749999999983680E-01     0.0000000000000000E+00     0.0000000000000000E+00 
    9.6874999999991840E-01     0.0000000000000000E+00     0.0000000000000000E+00 
    1.0000000000000000E+00     3.1249999999942091E-02     0.0000000000000000E+00 
    1.0000000000000000E+00     6.2499999999873469E-02     0.0000000000000000E+00 
    1.0000000000000000E+00     9.3749999999826514E-02     0.0000000000000000E+00 
    1.0000000000000000E+00     1.2499999999977961E-01     0.0000000000000000E+00 
    1.0000000000000000E+00     1.5624999999968961E-01     0.0000000000000000E+00 
    1.0000000000000000E+00     1.8749999999959971E-01     0.0000000000000000E+00 
    1.0000000000000000E+00     2.1874999999950970E-01     0.0000000000000000E+00 
    1.0000000000000000E+00     2.4999999999941969E-01     0.0000000000000000E+00 
    1.0000000000000000E+00     2.8124999999932920E-01     0.0000000000000000E+00 
    1.0000000000000000E+00     3.1249999999923850E-01     0.0000000000000000E+00 
    1.0000000000000000E+00     3.4374999999914790E-01     0.0000000000000000E+00 
    1.0000000000000000E+00     3.7499999999905720E-01     0.0000000000000000E+00 
    1.0000000000000000E+00     4.0624999999896660E-01     0.0000000000000000E+00 
    1.0000000000000000E+00     4.3749999999887590E-01     0.0000000000000000E+00 
    1.0000000000000000E+00     4.6874999999878530E-01     0.0000000000000000E+00 
    1.0000000000000000E+00     4.9999999999869471E-01     0.0000000000000000E+00 
    1.0000000000000000E+00     5.3124999999877620E-01     0.0000000000000000E+00 
    1.0000000000000000E+00     5.6249999999885780E-01     0.0000000000000000E+00 
    1.0000000000000000E+00     5.9374999999893940E-01     0.0000000000000000E+00 
    1.0000000000000000E+00     6.2499999999902101E-01     0.0000000000000000E+00 
    1.0000000000000000E+00     6.5624999999910261E-01     0.0000000000000000E+00 
    1.0000000000000000E+00     6.8749999999918421E-01     0.0000000000000000E+00 
    1.0000000000000000E+00     7.1874999999926570E-01     0.0000000000000000E+00 
    1.0000000000000000E+00     7.4999999999934730E-01     0.0000000000000000E+00 
    1.0000000000000000E+00     7.8124999999942890E-01     0.0000000000000000E+00 
    1.0000000000000000E+00     8.1249999999951039E-01     0.0000000000000000E+00 
    1.0000000000000000E+00     8.4374999999959199E-01     0.0000000000000000E+00 
    1.0000000000000000E+00     8.7499999999967359E-01     0.0000000000000000E+00 
    1.0000000000000000E+00     9.0624999999975520E-01     0.0000000000000000E+00 
    1.0000000000000000E+00     9.3749999999983680E-01     0.0000000000000000E+00 
    1.0000000000000000E+00     9.6874999999991840E-01     0.0000000000000000E+00 
    9.6875000000003686E-01     1.0000000000000000E+00     0.0000000000000000E+00 
    9.3750000000011691E-01     1.0000000000000000E+00     0.0000000000000000E+00 
    9.0625000000015765E-01     1.0000000000000000E+00     0.0000000000000000E+00 
    8.7500000000017863E-01     1.0000000000000000E+00     0.0000000000000000E+00 
    8.4375000000028044E-01     1.0000000000000000E+00     0.0000000000000000E+00 
    8.1250000000040856E-01     1.0000000000000000E+00     0.0000000000000000E+00 
    7.8125000000054956E-01     1.0000000000000000E+00     0.0000000000000000E+00 
    7.5000000000066480E-01     1.0000000000000000E+00     0.0000000000000000E+00 
    7.1875000000086831E-01     1.0000000000000000E+00     0.0000000000000000E+00 
    6.8750000000102829E-01     1.0000000000000000E+00     0.0000000000000000E+00 
    6.5625000000114431E-01     1.0000000000000000E+00     0.0000000000000000E+00 
    6.2500000000129829E-01     1.0000000000000000E+00     0.0000000000000000E+00 
    5.9375000000147926E-01     1.0000000000000000E+00     0.0000000000000000E+00 
    5.6250000000168354E-01     1.0000000000000000E+00     0.0000000000000000E+00 
    5.3125000000188671E-01     1.0000000000000000E+00     0.0000000000000000E+00 
    5.0000000000205835E-01     1.0000000000000000E+00     0.0000000000000000E+00 
    4.6875000000192979E-01     1.0000000000000000E+00     0.0000000000000000E+00 
    4.3750000000180111E-01     1.0000000000000000E+00     0.0000000000000000E+00 
    4.0625000000167238E-01     1.0000000000000000E+00     0.0000000000000000E+00 
    3.7500000000154382E-01     1.0000000000000000E+00     0.0000000000000000E+00 
    3.4375000000141509E-01     1.0000000000000000E+00     0.0000000000000000E+00 
    3.1250000000128642E-01     1.0000000000000000E+00     0.0000000000000000E+00 
    2.8125000000115769E-01     1.0000000000000000E+00     0.0000000000000000E+00 
    2.5000000000102918E-01     1.0000000000000000E+00     0.0000000000000000E+00 
    2.1875000000090050E-01     1.0000000000000000E+00     0.0000000000000000E+00 
    1.8750000000077180E-01     1.0000000000000000E+00     0.0000000000000000E+00 
    1.5625000000064329E-01     1.0000000000000000E+00     0.0000000000000000E+00 
    1.2500000000051459E-01     1.0000000000000000E+00     0.0000000000000000E+00 
    9.3750000000385914E-02     1.0000000000000000E+00     0.0000000000000000E+00 
    6.2500000000257239E-02     1.0000000000000000E+00     0.0000000000000000E+00 
    3.1250000000128557E-02     1.0000000000000000E+00     0.0000000000000000E+00 
    0.0000000000000000E+00     9.6875000000003686E-01     0.0000000000000000E+00 
    0.0000000000000000E+00     9.3750000000011691E-01     0.0000000000000000E+00 
    0.0000000000000000E+00     9.0625000000015765E-01     0.0000000000000000E+00 
    0.0000000000000000E+00     8.7500000000017863E-01     0.0000000000000000E+00 
    0.0000000000000000E+00     8.4375000000028044E-01     0.0000000000000000E+00 
    0.0000000000000000E+00     8.1250000000040856E-01     0.0000000000000000E+00 
    0.0000000000000000E+00     7.8125000000054956E-01     0.0000000000000000E+00 
    0.0000000000000000E+00     7.5000000000066480E-01     0.0000000000000000E+00 
    0.0000000000000000E+00     7.1875000000086831E-01     0.0000000000000000E+00 
    0.0000000000000000E+00     6.8750000000102829E-01     0.0000000000000000E+00 
    0.0000000000000000E+00     6.5625000000114431E-01     0.0000000000000000E+00 
    0.0000000000000000E+00     6.2500000000129829E-01     0.0000000000000000E+00 
    0.0000000000000000E+00     5.9375000000147926E-01     0.0000000000000000E+00 
    0.0000000000000000E+00     5.6250000000168354E-01     0.0000000000000000E+00 
    0.0000000000000000E+00     5.3125000000188671E-01     0.0000000000000000E+00 
    0.0000000000000000E+00     5.0000000000205835E-01     0.0000000000000000E+00 
    0.0000000000000000E+00     4.6875000000192979E-01     0.0000000000000000E+00 
    0.0000000000000000E+00     4.3750000000180111E-01     0.0000000000000000E+00 
    0.0000000000000000E+00     4.0625000000167238E-01     0.0000000000000000E+00 
[...]
CELL_DATA 2795 
SCALARS Pressure double 1 
LOOKUP_TABLE default 

    7.5681206929960947E+00 
    1.6575547498112250E+01 
    1.1693435936374829E+01 
    1.1407870821184622E+01 
    9.2348981248622177E+00 
    1.6409239236783552E+01 
    1.7214785488432362E+01 
    6.7858971217342763E+00 
    1.2247439316390825E+01 
    9.4625675950407278E+00 
    8.1172530880012559E+00 
    1.6121278848685929E+01 
    1.6493015957488890E+01 
    1.6375396109262343E+01 
    1.0799939197719773E+01 
    6.6748842203687175E+00 
    1.0602143240841626E+01 
    8.6204265967585307E+00 
    1.5719526011889780E+01 
    1.1675680913074199E+01 
    1.1574283032966868E+01 
    1.6300432228559121E+01 
    1.1129094719078996E+01 
    4.4815362939503744E-01 
    1.6145576883792518E+01 
    1.6443144663408862E+01 
    1.7249095350985527E+01 
    7.8759651446568144E+00 
    1.6034180776126469E+01 
    1.7232226237431735E+01 
    1.1864556240098359E+01 
    1.1878281432747519E+01 
    8.5884474534311543E+00 
    1.1656900029984079E+01 
    3.9139834496509209E+00 
    1.0603095312707998E+01 
    1.1643116255960898E+01 
    1.7274197814567636E+01 
    1.7189832142973238E+01 
    1.6135430076309394E+01 
    9.2200259661798949E+00 
    1.6136081683960047E+01 
    9.3677502841600224E-01 
    1.1651259935442896E+01 
    1.7008028549745184E+01 
    1.6747941057796051E+01 
    1.6109508862040727E+01 
    1.2624613740955660E+01 
    1.6172544016699071E+01 
    1.0830988182010110E+01 
    1.0355266972425387E+01 
    1.1842509817125876E+01 
    1.1552035383912495E+01 
    1.0666681960184786E+01 
    1.1937603466151982E+01 
    1.5486729452945847E+01 
    1.3668223264605304E+01 
    9.2826836404586146E+00 
    1.6306821606805510E+01 
    1.6219437812043115E+01 
    1.1390047728183520E+01 
    1.1264124978483991E+01 
    1.1308768535884523E+01 
    1.7127383107351033E+01 
    1.7419699379091128E+01 
    1.0619281723531142E+01 
    1.1841015738714361E+01 
    1.5905093637643393E+01 
    1.3638695520181125E+01 
    1.1314974865807164E+01 
    1.7418443073659262E+01 
    1.6288575868010732E+01 
    1.0478157002813202E+01 
    1.6866380874601287E+01 
    1.2182216131563241E+01 
    1.5968223986616909E+01 
    1.7294368522319910E+01 
    1.2211548217121958E+01 
    7.7133811985374701E+00 
    1.1858978379738254E+01 
    1.7199406036077715E+01 
    1.7440338292911846E+01 
    1.0617011202334981E+01 
    1.1785681275069233E+01 
    1.7494082339188733E+01 
    1.1642248690306086E+01 
    1.1219298786040246E+01 
    1.4146741973445783E+01 
    7.3877504363905375E+00 
    1.0388724509064431E+01 
    1.1782968519888325E+01 
    1.2405047087746921E+01 
    1.9009213355699956E+01 
    8.9826379047574694E+00 
    1.1848780320659966E+01 
    1.6085253389150392E+01 
    1.6438762545200635E+01 
    7.9493819522420939E+00 
    1.1507502681791333E+01 
    1.1816567820996323E+01 
    1.6462470098832789E+01 
    1.1807585942233972E+01 
    1.6387096331216956E+01 
    4.8792033045274197E+00 
    7.8901706151063120E+00 
    1.2063823726402903E+01 
    1.6582209215590041E+01 
    1.0567747108390252E+01 
    1.1153259812992559E+01 
    1.1786758420266098E+01 
    1.1187109886804947E+01 
    1.3274552535038564E+01 
    1.0876626216361647E+01 
    1.0487566346171398E+01 
    8.4184787580020686E+00 
    1.3956546497163473E+01 
    1.1883841420346728E+01 
    1.7035735034527722E+01 
    1.0248105705508763E+01 
    1.1388855502727660E+01 
    1.6272842188717938E+01 
    9.6749119053435066E+00 
    1.6754085899003503E+01 
    1.1714424544889784E+01 
    1.1318197995779270E+01 
    1.6442364883303004E+01 
    1.1871184096499256E+01 
    1.7304943953504587E+01 
    1.4199802539145246E+01 
    1.5303651978658218E+01 
    1.7267310163532013E+01 
    8.9990700854972303E+00 
    1.2086764186111768E+01 
    1.6435332794616578E+01 
    3.6433745939114637E+00 
    1.1915062927861914E+01 
    1.7230754691436726E+01 
    1.1346498221320822E+01 
    1.2953446064222078E+01 
    7.9009223806706617E+00 
    1.6081016076168115E+01 
    1.9498699368090328E+01 
    1.4719509754121594E+01 
    1.1346752281839434E+01 
    1.0265078007613432E+01 
    1.2606459270827616E+01 
    1.1731193916653096E+01 
    8.2261874442759790E+00 
    1.7261059356510927E+01 
    1.6439161658165791E+01 
    1.6086979803722699E+01 
    1.2398521235063457E+01 
    1.0452253126007122E+01 
    1.1570141989167977E+01 
    1.6907233960753246E+01 
    1.0710495646826457E+01 
    1.1817149066139633E+01 
    1.0880533341274271E+01 
    1.3692773734509242E+01 
    1.9486707326158079E+01 
    1.6078154600547990E+01 
    1.0454701636986822E+01 
    1.6649535326551273E+01 
    1.6539650404842650E+01 
    1.6624459126035649E+01 
    1.7702693916468284E+01 
    1.8270227638401899E+01 
    1.6736002973026622E+01 
    1.1832841924820697E+01 
    1.2744238468662186E+01 
    1.6553809427079383E+01 
    1.7051408928877120E+01 
    8.5908116616943193E+00 
    1.6109206710408579E+01 
    1.6867762887858067E+01 
    8.3534026607410095E+00 
    1.7621654855331212E+01 
    1.7594056421909272E+01 
    1.5792783626280411E+01 
    1.2161216124950872E+01 
    3.2399192370903247E+00 
    1.7230397874280023E+01 
    1.2004763601250163E+01 
    1.7363481331890767E+01 
    1.1275030792271373E+01 
    1.7035347442861877E+01 
    1.1679332873053903E+00 
    1.5297180972065771E+01 
    1.1309795524364411E+01 
    1.0406883873235618E+01 
    1.0152077507846924E+01 
    1.1683103792966886E+01 
    1.2869954244441825E+01 
    1.2282082852736142E+01 
    8.4843701093040540E+00 
    1.7041625736143114E+01 
    1.6455937384307312E+01 
    1.3717932514173501E+01 
    1.2056366991006703E+01 
    1.8469866402246364E+00 
    9.4012522117053798E+00 
    6.6164793010975007E+00 
    1.7244780213236965E+01 
    1.3100710103131295E+01 
    1.6463162664447633E+01 
    1.6530118165382806E+01 
    1.0786503504262233E+01 
    1.3668033348197620E+01 
    1.6081590933728449E+01 
    1.7579246698100256E+01 
    7.9156439542527899E+00 
    1.4564517320973339E+01 
    1.2238254855895786E+01 
    7.0286400017805262E+00 
    1.0783072309845231E+01 
    1.4282929497322872E+01 
    1.6487161254797144E+01 
    1.1734024037955079E+01 
    1.6602926342286327E+01 
    1.6355918012042743E+01 
    1.6298619531136453E+01 
    1.1574218343339030E+01 
    1.0293680622539089E+01 
    1.6095425095169048E+01 
    1.0472553747672675E+01 
    1.1815505351723361E+01 
    1.0285804325401820E+01 
    1.1773474320034632E+01 
    1.6541531909968938E+01 
    7.4486528305085979E+00 
    1.0688043448338780E+01 
    1.7157033659732917E+01 
    1.1583071455869792E+01 
    1.2989025036173761E+01 
    7.6396172333529595E+00 
    1.0534676588126853E+01 
    1.6333688814115604E+01 
    1.6661720203860316E+01 
    6.2646731774777002E+00 
    1.1594581239977567E+01 
    1.0343091414881412E+01 
    1.8028447633856747E+01 
    1.7452185983243606E+01 
    1.8299220960329617E+01 
    1.1614460608024793E+01 
    1.6509926050194075E+01 
    1.6029262107273684E+01 
    1.1476302902905022E+01 
    1.6087622272351176E+01 
    1.2057901556948226E+01 
    7.1129769714655664E+00 
    1.1955430695926172E+01 
    1.7140221271340870E+01 
    1.6084204049262137E+01 
    8.1111438653594679E+00 
    1.6116886568313216E+01 
    1.2895878368216723E+01 
    1.1894404640063856E+01 
    1.1422807145452802E+01 
    1.5937488591587076E+01 
    1.2434230385845190E+01 
    1.6101435755566904E+01 
    1.1587777343832636E+01 
    7.3516441660677057E+00 
    1.1894019363921066E+01 
    1.0159843391793778E+01 
    1.4756376530649122E+01 
    1.7358971114814672E+01 
    1.6092758858512894E+01 
    1.7223551579659450E+01 
    1.1525785949510047E+01 
    7.8828598460634911E+00 
    7.9876257276241498E+00 
    1.2088124468472543E+01 
    1.1788258561934821E+01 
    1.8039522142064286E+00 
    1.5524476929040382E+01 
    1.7740790833936742E+01 
    1.1290502825106918E+01 
    7.4249709254272638E+00 
    1.3516382963051022E+01 
    1.6115158952151010E+01 
    8.7169182499624398E+00 
    5.9857104342527947E+00 
    1.1771553121821372E+01 
    1.6195195209161795E+01 
    1.6940950886794120E+01 
    1.6794118141657460E+01 
    1.6662955841197466E+01 
    8.6146750185068317E+00 
    1.1888046897732723E+01 
    1.5624698650753132E+01 
    9.2953748492779109E+00 
    1.6478820278807113E+01 
    1.3921551650471667E+01 
    8.0915245219641356E+00 
    1.6222711228796907E+01 
    1.7260238604720872E+01 
    1.6289026100060823E+01 
    8.4033405519796887E+00 
    1.1837164682399692E+01 
    9.2081620814878278E+00 
    1.1191847746265019E+01 
    1.6105799971410875E+01 
    1.6092714038342240E+01 
    8.4505536145178510E+00 
    1.7087966127528517E+01 
    1.2406575678362390E+01 
    1.6124292304069396E+01 
    1.7066594881985313E+01 
    1.6112406296716131E+01 
    1.4953222846821594E+01 
    1.8086433889140650E+01 
    1.1239486808845479E+01 
    1.7189726907150753E+01 
    1.6154418469320774E+01 
    1.7269351480068647E+01 
    1.7084052408876477E+01 
    1.1344358152027958E+01 
    1.1682814823247270E+01 
    1.1281297082479838E+01 
    1.4351766470440324E+01 
    4.8917774825233629E+00 
    1.2021755194426662E+01 
    1.8216934088680059E+01 
    1.2060318379535598E+01 
    1.2267834225998714E+01 
    1.7239843883151796E+01 
    1.7490120602989627E+01 
    1.1151648137112549E+01 
    1.6121837161932103E+01 
    1.6088096187646119E+01 
    1.2253885151858750E+01 
    1.7037899269814083E+01 
    8.5024229158787872E+00 
    5.4808010491419061E+00 
    1.2568679784290556E+01 
    1.2073846226130895E+01 
    1.6093916561218808E+01 
    7.9241347352808340E+00 
    1.6713091435951807E+01 
    5.5918201631501168E+00 
    1.2009296986737658E+01 
    1.1369366049788354E+01 
    1.1814348719254168E+01 
    1.9536125198764644E+01 
    4.7544010271547679E+00 
    1.1933675409125698E+01 
    1.4218935999594304E+01 
    1.1421909818122288E+01 
    9.3940443756061125E+00 
    1.6849574654813313E+01 
    1.9104898349370909E+01 
    1.6999944861393622E+01 
    1.1870039191878007E+01 
    6.9925139624112242E+00 
    1.8944801102402597E+01 
    1.6450815553537648E+01 
    8.8874805092366991E+00 
    1.1497726136749355E+01 
    1.7683940385173649E+01 
    4.0349463285237368E+00 
    1.2131002094734939E+01 
    1.6993615726794896E+01 
    1.1829268557479320E+01 
    1.0343141105359249E+01 
    1.1976027900300286E+01 
    1.5792083766174285E+01 
    1.1811558467613589E+01 
    6.2433543978878392E+00 
    1.1590586535015481E+00 
    8.8957221876152346E+00 
    1.7922449667554453E+01 
    1.1280408724286810E+01 
    1.3302562993592938E+01 
    1.2764748943051629E+01 
    1.4599515482100438E+01 
    1.1842788904266774E+01 
    1.6354818064003801E+01 
    1.9550308798355466E+01 
    1.4094669281539950E+01 
    1.7159113264589603E+01 
    6.7020061243399121E-01 
    1.6094970717761115E+01 
    6.8931318094127914E+00 
    1.8390492067295014E+01 
    1.1948191977458315E+01 
    1.0543998460869609E+01 
    9.3828937015674736E+00 
    6.5456757740369698E+00 
    1.3150083099968294E+01 
    9.4078836325190025E+00 
    1.4646181763031043E+01 
    2.7517365973911532E+00 
    1.2936745156381635E+01 
    1.6017460869269758E+01 
    7.2541449486574692E+00 
    1.6584809028625855E+01 
    1.8192073612603341E+01 
    1.6432876781502415E+01 
    1.1804748761817571E+01 
    1.1808457178872750E+01 
    1.1940430097246548E+01 
    7.0770365101213049E+00 
    1.0995317924631518E+01 
    1.0831938583697632E+01 
    1.1928750411042456E+01 
    1.1209525494062875E+01 
    8.6209471631517343E-01 
    7.8514638015775144E+00 
    1.1613001247217410E+01 
    1.1902075619284997E+01 
    1.5024918581477641E+01 
    2.6374696968525244E+00 
    1.2209012631364820E+01 
    1.2081079978228599E+01 
    4.5715476025449275E+00 
    1.6284799835229951E+01 
    1.0477985045333776E+01 
    1.1940507037831766E+01 
    1.6454113801689516E+01 
    6.5712079648751871E+00 
    1.6403083370269322E+01 
    1.0614131666658404E+01 
    1.1939542180972693E+00 
    1.1344017568345292E+01 
    1.7107941513425299E+01 
    1.6094535117764227E+01 
    1.6114498741002926E+01 
    1.2307398578678587E+01 
    1.2012332691207350E+01 
    1.0468515021351569E+01 
    8.5105514169568952E+00 
    1.6573506277103508E+01 
    1.1492590581951942E+01 
    8.2904553511885712E+00 
    1.6109826969314621E+01 
    1.6861866373597305E+01 
    1.2111735690132516E+01 
    1.1631069783238063E+01 
    1.9429282876286653E+01 
    1.2254938797322831E+01 
    1.6584835469587492E+01 
    9.9837975310784373E+00 
    1.9578198191979595E+01 
    7.9400290158721303E+00 
    1.0877926170653151E+01 
    8.8818095636390613E+00 
    1.2513373184267262E+01 
    1.0105027394749285E+01 
    1.9561822901585256E+01 
    1.2308592845717000E+01 
    1.5718320339478680E+01 
    8.1658727857633640E+00 
    1.1837411555496848E+01 
    1.6410859634396029E+01 
    1.0162210092253762E+01 
    8.9025374791180365E+00 
    1.3239083449073172E+01 
    1.6643412829899070E+01 
    8.7198810482834208E+00 
    1.1392094111005450E+01 
    1.1666757938529308E+01 
    1.6068003404227163E+01 
    1.1445656315927147E+01 
    1.6620974909085394E+01 
    1.7300791632650416E+01 
    1.0499957572276140E+01 
    1.0305713540396765E+01 
    9.4299979602562018E+00 
    1.6223646456498802E+01 
    1.2114900902699164E+01 
    1.9141286220377978E+01 
    1.5016143004031731E+01 
    1.6371556621590209E+01 
    1.8816005556028394E+01 
    1.8193331063744790E+01 
    1.1883860178432153E+01 
    1.1912640264977041E+01 
    1.5813564305468246E+01 
    1.6137360385541648E+01 
    1.6760304626768797E+01 
    1.6476099538322021E+01 
    1.9452467190507402E+01 
    1.2254403005427356E+01 
    1.0607392301854384E+01 
    1.2254790596362611E+01 
    1.7205859855149413E+01 
    1.1977806817241863E+01 
    7.1261560837903204E+00 
    1.1787637646901340E+01 
    1.7654502500302261E+01 
    1.2120182271833722E+01 
    1.0615375450804896E+01 
    1.1608278257634623E+01 
    1.7769871458191272E+01 
    1.6190617126962383E+01 
    1.0157090122347107E+01 
    1.7916584161666602E+01 
    1.1911890517600806E+01 
    1.6735542439697696E+01 
    1.7785538813134234E+01 
    1.2546555982634553E+01 
    6.5840607384783389E+00 
    1.3022807998996161E+01 
    6.8003526877860061E+00 
    1.2027016519405510E+01 
    1.1833700635038463E+01 
    1.3697175734353563E+01 
    7.1861362939910443E+00 
    1.4564840045631815E+01 
    1.1850035906001356E+01 
    1.6463770201083232E+01 
    1.2684904544649292E+01 
    9.9859573222376579E+00 
    1.1470325206752024E+01 
    1.2470476323197090E+01 
    1.2370356042513668E+01 
    1.7354842964360309E+01 
    1.0175550897777379E+01 
    1.0005334579302030E+01 
    7.5645503426316285E+00 
    1.6784854127921431E+01 
    1.1516076025980317E+01 
    1.5962231407361255E+01 
    1.1802667947890427E+01 
    8.2694367114887530E+00 
    1.6233349882703088E+01 
    1.1779529819807966E+01 
    8.9656676270511007E+00 
    9.4586368136153904E+00 
    9.7718059039381124E+00 
    1.6500103573882598E+01 
    1.1930860926025206E+01 
    1.7172289219070308E+01 
    1.1740433250867703E+01 
    1.1680408412601500E+01 
    1.1306262754854206E+01 
    1.6324986651857579E+01 
    1.1595744055211648E+01 
    9.8187325854530521E+00 
    1.8180147795010811E+01 
    1.6415445620208438E+01 
    8.3153748687423938E+00 
    3.3420786420411837E+00 
    1.1919703414186742E+01 
    1.1148317862260848E+01 
    1.0302933668966970E+01 
    1.1095768488831830E+01 
    1.6324509263847354E+01 
    1.1609857640304766E+01 
    1.0647211442201373E+01 
    1.6161687216186696E+01 
    8.2360719251315473E+00 
    1.5774929309506383E+01 
    1.0761487802310857E+01 
    9.8264617489633306E+00 
    1.0392361447953025E+01 
    1.6826950754686017E+01 
    1.1816907588905616E+01 
    1.1825200739871461E+01 
    7.2741757311117832E+00 
    7.8437904512266012E+00 
    1.4849058281856557E+01 
    1.1834938939658565E+01 
    1.1962019333108341E+01 
    1.7900065674126576E+01 
    9.9997310505551944E+00 
    1.1847048119471545E+01 
    8.5118211716645558E+00 
    8.7728301791970544E+00 
    1.6317251663628067E+01 
    1.1472216005496605E+01 
    8.6217443093080011E+00 
    1.2403325140136049E+01 
    1.1737275479582683E+01 
    1.6321962943129950E+01 
    1.7997871912990810E+01 
    1.2699131933172445E+00 
    1.1924871111246009E+01 
    1.2072470531595309E+01 
    1.6390808135969728E+01 
    1.1417498749473344E+01 
    1.1789817535434658E+01 
    1.7416755674592757E+01 
    1.0432366666369569E+01 
    8.6963728650166150E+00 
    1.4114874288022879E+01 
    1.6109879433662105E+01 
    1.7268158489990750E+01 
    1.7548326046428585E+01 
    1.1758444654118206E+01 
    1.1915905502977630E+01 
    1.3176293433372351E+01 
    7.9228597833293675E+00 
    1.6255422744024980E+01 
    9.3493089658307849E+00 
    8.2276468303311479E+00 
    1.4666585457869743E+01 
    1.3831299767666572E+01 
    8.0798306214186510E+00 
    1.6149715051343726E+01 
    1.7252724706224065E+01 
    1.2272035233374016E+01 
    1.8104406987314395E+01 
    1.6187094173408905E+01 
    1.1482892945294745E+01 
    1.6968032605560172E+01 
    8.7611193571316051E+00 
    1.6131055634876780E+01 
    1.1923767213789446E+01 
    1.1883156344767208E+01 
    1.8080014982605579E+01 
    1.1556469118858535E+01 
    1.4400444130608733E+01 
    1.0369076074764822E+01 
    1.7380205561562097E+01 
    1.6026310997813027E+01 
    1.0787201621711452E+01 
    1.6081359571027669E+01 
    1.0798990678772837E+01 
    1.1797206294919988E+01 
    1.7208054868300966E+01 
    1.6475124274169470E+01 
    1.7256160978680999E+01 
    1.6395821845230714E+01 
    1.1005721675648340E+01 
    1.1226253401422538E+01 
    1.7263838451014500E+01 
    1.1358914986314367E+01 
    1.5932548818121251E+01 
    1.1539123229935546E+01 
    4.9389641135041513E+00 
    8.2960581151817632E+00 
    7.7064152909841619E+00 
    1.7211950569554613E+01 
    1.8004650647856597E+01 
    1.6102217924927956E+01 
    1.3515716033945042E+01 
    1.6429393586525993E+01 
    1.6159310849261654E+01 
    1.6820297741077702E+01 
    7.0361547827238597E+00 
    4.5973026157821115E+00 
    1.3270947760681779E+01 
    1.1578898025214102E+01 
    1.6327680341401017E+01 
    1.6325059123028907E+01 
    1.2094767391503993E+01 
    1.6366821081705680E+01 
    1.1909902096429223E+01 
    1.1814914732212927E+01 
    6.3663809963333220E+00 
    4.5775260366258124E+00 
    1.7764655383943708E+01 
    9.2964268493563491E+00 
    1.0709252635048864E+01 
    1.1989066957480256E+01 
    1.9431507256312166E+01 
    1.2082300264399569E+01 
    1.2225781711124172E+01 
    5.2342140248336948E+00 
    1.2082559824855668E+01 
    1.2097089452271893E+01 
    1.6629073673962658E+01 
    1.0394521359982182E+01 
    1.1347436920609081E+01 
    1.7945431177191043E+01 
    1.1933610553263394E+01 
    1.6120289091296019E+01 
    1.6372777502821450E+01 
    1.4406597504385031E+01 
    1.0104827759287984E+01 
    1.6396774531744917E+01 
    1.1720020547763031E+01 
    1.6300443863791521E+01 
    1.6053047113875369E+01 
    1.7233213800513106E+01 
    1.6388187086135826E+01 
    1.5293272177342550E+01 
    1.1921742168260623E+01 
    8.0049261066095223E+00 
    1.9303887347135415E+01 
    9.5364877149961913E+00 
    1.7144613961335168E+01 
    1.1919023878924150E+01 
    1.0054378457834941E+01 
    6.1098113396742937E+00 
    1.2135051505126803E+01 
    1.6380351297248154E+01 
    1.6378915436024251E+01 
    1.1777537244478161E+01 
    1.1912917812226638E+01 
    1.8164042967122114E+01 
    1.7487657742027768E+01 
    1.2102441351282943E+01 
    4.2782510551165629E+00 
    1.5113602078250409E+01 
    1.9559104030116540E+01 
    1.1925222864111973E+01 
    1.3944112323165669E+01 
    1.1415884270289313E+01 
    1.9158846953570446E+01 
    1.7576137874215906E+01 
    1.7308346149503350E+01 
    1.2125311164398466E+01 
    5.6250636413460571E+00 
    1.1373428393628656E+01 
    1.1440502124736142E+01 
    1.1483719409511215E+01 
    4.6714247181380673E+00 