# vtk DataFile Version 2.0
Pressure Field Data 
ASCII 
DATASET UNSTRUCTURED_GRID 

POINTS 2860 double 

    0.0000000000000000E+00     0.0000000000000000E+00     0.0000000000000000E+00 
    1.0000000000000000E+00     0.0000000000000000E+00     0.0000000000000000E+00 
    1.0000000000000000E+00     1.0000000000000000E+00     0.0000000000000000E+00 
    0.0000000000000000E+00     1.0000000000000000E+00     0.0000000000000000E+00 
    2.5000000000000000E-01     2.5000000000000000E-01     0.0000000000000000E+00 
    7.5000000000000000E-01     2.5000000000000000E-01     0.0000000000000000E+00 
    7.5000000000000000E-01     7.5000000000000000E-01     0.0000000000000000E+00 
    2.5000000000000000E-01     7.5000000000000000E-01     0.0000000000000000E+00 
    3.1249999999942091E-02     0.0000000000000000E+00     0.0000000000000000E+00 
    6.2499999999873469E-02     0.0000000000000000E+00     0.0000000000000000E+00 
    9.3749999999826514E-02     0.0000000000000000E+00     0.0000000000000000E+00 
    1.2499999999977961E-01     0.0000000000000000E+00     0.0000000000000000E+00 
    1.5624999999968961E-01     0.0000000000000000E+00     0.0000000000000000E+00 
    1.8749999999959971E-01     0.0000000000000000E+00     0.0000000000000000E+00 
    2.1874999999950970E-01     0.0000000000000000E+00     0.0000000000000000E+00 
    2.4999999999941969E-01     0.0000000000000000E+00     0.0000000000000000E+00 
    2.8124999999932920E-01     0.0000000000000000E+00     0.0000000000000000E+00 
    3.1249999999923850E-01     0.0000000000000000E+00     0.0000000000000000E+00 
    3.4374999999914790E-01     0.0000000000000000E+00     0.0000000000000000E+00 
    3.7499999999905720E-01     0.0000000000000000E+00     0.0000000000000000E+00 
    4.0624999999896660E-01     0.0000000000000000E+00     0.0000000000000000E+00 
    4.3749999999887590E-01     0.0000000000000000E+00     0.0000000000000000E+00 
    4.6874999999878530E-01     0.0000000000000000E+00     0.0000000000000000E+00 
    4.9999999999869471E-01     0.0000000000000000E+00     0.0000000000000000E+00 
    5.3124999999877620E-01     0.0000000000000000E+00     0.0000000000000000E+00 
    5.6249999999885780E-01     0.0000000000000000E+00     0.0000000000000000E+00 
    5.9374999999893940E-01     0.0000000000000000E+00     0.0000000000000000E+00 
    6.2499999999902101E-01     0.0000000000000000E+00     0.0000000000000000E+00 
    6.5624999999910261E-01     0.0000000000000000E+00     0.0000000000000000E+00 
    6.8749999999918421E-01     0.0000000000000000E+00     0.0000000000000000E+00 
    7.1874999999926570E-01     0.0000000000000000E+00     0.0000000000000000E+00 
    7.4999999999934730E-01     0.0000000000000000E+00     0.0000000000000000E+00 
    7.8124999999942890E-01     0.0000000000000000E+00     0.0000000000000000E+00 
    8.1249999999951039E-01     0.0000000000000000E+00     0.0000000000000000E+00 
    8.4374999999959199E-01     0.0000000000000000E+00     0.0000000000000000E+00 
    8.7499999999967359E-01     0.0000000000000000E+00     0.0000000000000000E+00 
    9.0624999999975520E-01     0.0000000000000000E+00     0.0000000000000000E+00 
    9.3749999999983680E-01     0.0000000000000000E+00     0.0000000000000000E+00 
    9.6874999999991840E-01     0.0000000000000000E+00     0.0000000000000000E+00 
    1.0000000000000000E+00     3.1249999999942091E-02     0.0000000000000000E+00 
    1.0000000000000000E+00     6.2499999999873469E-02     0.0000000000000000E+00 
    1.0000000000000000E+00     9.3749999999826514E-02     0.0000000000000000E+00 
    1.0000000000000000E+00     1.2499999999977961E-01     0.0000000000000000E+00 
    1.0000000000000000E+00     1.5624999999968961E-01     0.0000000000000000E+00 
    1.0000000000000000E+00     1.8749999999959971E-01     0.0000000000000000E+00 
    1.0000000000000000E+00     2.1874999999950970E-01     0.0000000000000000E+00 
    1.0000000000000000E+00     2.4999999999941969E-01     0.0000000000000000E+00 
    1.0000000000000000E+00     2.8124999999932920E-01     0.0000000000000000E+00 
    1.0000000000000000E+00     3.1249999999923850E-01     0.0000000000000000E+00 
    1.0000000000000000E+00     3.4374999999914790E-01     0.0000000000000000E+00 
    1.0000000000000000E+00     3.7499999999905720E-01     0.0000000000000000E+00 
    1.0000000000000000E+00     4.0624999999896660E-01     0.0000000000000000E+00 
    1.0000000000000000E+00     4.3749999999887590E-01     0.0000000000000000E+00 
    1.0000000000000000E+00     4.6874999999878530E-01     0.0000000000000000E+00 
    1.0000000000000000E+00     4.9999999999869471E-01     0.0000000000000000E+00 
    1.0000000000000000E+00     5.3124999999877620E-01     0.0000000000000000E+00 
    1.0000000000000000E+00     5.6249999999885780E-01     0.0000000000000000E+00 
    1.0000000000000000E+00     5.9374999999893940E-01     0.0000000000000000E+00 
    1.0000000000000000E+00     6.2499999999902101E-01     0.0000000000000000E+00 
    1.0000000000000000E+00     6.5624999999910261E-01     0.0000000000000000E+00 
    1.0000000000000000E+00     6.8749999999918421E-01     0.0000000000000000E+00 
    1.0000000000000000E+00     7.1874999999926570E-01     0.0000000000000000E+00 
    1.0000000000000000E+00     7.4999999999934730E-01     0.0000000000000000E+00 
    1.0000000000000000E+00     7.8124999999942890E-01     0.0000000000000000E+00 
    1.0000000000000000E+00     8.1249999999951039E-01     0.0000000000000000E+00 
    1.0000000000000000E+00     8.4374999999959199E-01     0.0000000000000000E+00 
    1.0000000000000000E+00     8.7499999999967359E-01     0.0000000000000000E+00 
    1.0000000000000000E+00     9.0624999999975520E-01     0.0000000000000000E+00 
    1.0000000000000000E+00     9.3749999999983680E-01     0.0000000000000000E+00 
    1.0000000000000000E+00     9.6874999999991840E-01     0.0000000000000000E+00 
    9.6875000000003686E-01     1.0000000000000000E+00     0.0000000000000000E+00 
    9.3750000000011691E-01     1.0000000000000000E+00     0.0000000000000000E+00 
    9.0625000000015765E-01     1.0000000000000000E+00     0.0000000000000000E+00 
    8.7500000000017863E-01     1.0000000000000000E+00     0.0000000000000000E+00 
    8.4375000000028044E-01     1.0000000000000000E+00     0.0000000000000000E+00 
    8.1250000000040856E-01     1.0000000000000000E+00     0.0000000000000000E+00 
    7.8125000000054956E-01     1.0000000000000000E+00     0.0000000000000000E+00 
    7.5000000000066480E-01     1.0000000000000000E+00     0.0000000000000000E+00 
    7.1875000000086831E-01     1.0000000000000000E+00     0.0000000000000000E+00 
    6.8750000000102829E-01     1.0000000000000000E+00     0.0000000000000000E+00 
    6.5625000000114431E-01     1.0000000000000000E+00     0.0000000000000000E+00 
    6.2500000000129829E-01     1.0000000000000000E+00     0.0000000000000000E+00 
    5.9375000000147926E-01     1.0000000000000000E+00     0.0000000000000000E+00 
    5.6250000000168354E-01     1.0000000000000000E+00     0.0000000000000000E+00 
    5.3125000000188671E-01     1.0000000000000000E+00     0.0000000000000000E+00 
    5.0000000000205835E-01     1.0000000000000000E+00     0.0000000000000000E+00 
    4.6875000000192979E-01     1.0000000000000000E+00     0.0000000000000000E+00 
    4.3750000000180111E-01     1.0000000000000000E+00     0.0000000000000000E+00 
    4.0625000000167238E-01     1.0000000000000000E+00     0.0000000000000000E+00 
    3.7500000000154382E-01     1.0000000000000000E+00     0.0000000000000000E+00 
    3.4375000000141509E-01     1.0000000000000000E+00     0.0000000000000000E+00 
    3.1250000000128642E-01     1.0000000000000000E+00     0.0000000000000000E+00 
    2.8125000000115769E-01     1.0000000000000000E+00     0.0000000000000000E+00 
    2.5000000000102918E-01     1.0000000000000000E+00     0.0000000000000000E+00 
    2.1875000000090050E-01     1.0000000000000000E+00     0.0000000000000000E+00 
    1.8750000000077180E-01     1.0000000000000000E+00     0.0000000000000000E+00 
    1.5625000000064329E-01     1.0000000000000000E+00     0.0000000000000000E+00 
    1.2500000000051459E-01     1.0000000000000000E+00     0.0000000000000000E+00 
    9.3750000000385914E-02     1.0000000000000000E+00     0.0000000000000000E+00 
    6.2500000000257239E-02     1.0000000000000000E+00     0.0000000000000000E+00 
    3.1250000000128557E-02     1.0000000000000000E+00     0.0000000000000000E+00 
    0.0000000000000000E+00     9.6875000000003686E-01     0.0000000000000000E+00 
    0.0000000000000000E+00     9.3750000000011691E-01     0.0000000000000000E+00 
    0.0000000000000000E+00     9.0625000000015765E-01     0.0000000000000000E+00 
    0.0000000000000000E+00     8.7500000000017863E-01     0.0000000000000000E+00 
    0.0000000000000000E+00     8.4375000000028044E-01     0.0000000000000000E+00 
    0.0000000000000000E+00     8.1250000000040856E-01     0.0000000000000000E+00 
    0.0000000000000000E+00     7.8125000000054956E-01     0.0000000000000000E+00 
    0.0000000000000000E+00     7.5000000000066480E-01     0.0000000000000000E+00 
    0.0000000000000000E+00     7.1875000000086831E-01     0.0000000000000000E+00 
    0.0000000000000000E+00     6.8750000000102829E-01     0.0000000000000000E+00 
    0.0000000000000000E+00     6.5625000000114431E-01     0.0000000000000000E+00 
    0.0000000000000000E+00     6.2500000000129829E-01     0.0000000000000000E+00 
    0.0000000000000000E+00     5.9375000000147926E-01     0.0000000000000000E+00 
    0.0000000000000000E+00     5.6250000000168354E-01     0.0000000000000000E+00 
    0.0000000000000000E+00     5.3125000000188671E-01     0.0000000000000000E+00 
    0.0000000000000000E+00     5.0000000000205835E-01     0.0000000000000000E+00 
    0.0000000000000000E+00     4.6875000000192979E-01     0.0000000000000000E+00 
    0.0000000000000000E+00     4.3750000000180111E-01     0.0000000000000000E+00 
    0.0000000000000000E+00     4.0625000000167238E-01     0.0000000000000000E+00 
[...]
CELL_DATA 2795 
SCALARS Pressure double 1 
LOOKUP_TABLE default 

    6.0323481504347658E+00 
    1.3414030593751477E+01 
    9.4534599316514960E+00 
    9.1376766108497751E+00 
    7.3453277801165688E+00 
    1.3289784056088044E+01 
    1.3977395418540912E+01 
    5.4136193664919929E+00 
    1.0007385662459420E+01 
    7.6018705806242961E+00 
    6.4686107625547278E+00 
    1.3050526540710058E+01 
    1.3329383681815658E+01 
    1.3260954109008301E+01 
    8.6878395601091025E+00 
    5.3253051551736741E+00 
    8.4400910852503763E+00 
    6.8908479094899242E+00 
    1.2712293568526968E+01 
    9.4426042731849460E+00 
    9.3354972900866020E+00 
    1.3199755187498148E+01 
    8.8896493706215551E+00 
    3.6323037963262467E-01 
    1.3061485321837255E+01 
    1.3299595559687980E+01 
    1.4007660750127465E+01 
    6.2119056792729408E+00 
    1.2976345756624564E+01 
    1.3993134810712904E+01 
    9.5839117117010080E+00 
    9.6647576331647773E+00 
    6.6485059393424883E+00 
    9.4150686111728312E+00 
    3.1296216488757138E+00 
    8.4423837638775954E+00 
    9.4042167553609186E+00 
    1.4030273344172286E+01 
    1.3956258212031782E+01 
    1.3062824354045603E+01 
    7.2970252631184023E+00 
    1.3031578734561396E+01 
    7.5470556850512260E-01 
    9.3786539769373789E+00 
    1.3784271642939546E+01 
    1.3625259009166241E+01 
    1.3040478962824338E+01 
    1.0326993119471638E+01 
    1.3108414439820901E+01 
    8.6258303101945213E+00 
    8.2374938101987816E+00 
    9.6303605226877291E+00 
    9.2638078651735380E+00 
    8.4903652903466256E+00 
    9.6551310501177579E+00 
    1.2516684958643946E+01 
    1.1250754068499504E+01 
    7.3840310253517227E+00 
    1.3203431078764144E+01 
    1.3132938072300149E+01 
    9.1565707701131096E+00 
    9.0807919035673876E+00 
    9.0479305847709401E+00 
    1.3901513169346385E+01 
    1.4150089553904007E+01 
    8.4519151147214693E+00 
    9.6292381623152572E+00 
    1.2961399860738547E+01 
    1.1079733945933613E+01 
    9.1172399088269938E+00 
    1.4158468119107512E+01 
    1.3158610066840753E+01 
    8.3371296888949598E+00 
    1.3720551618984826E+01 
    9.8841789966566029E+00 
    1.2923561018530579E+01 
    1.4045709405982244E+01 
    9.8725755141992959E+00 
    6.1454347700781611E+00 
    9.6478369900246292E+00 
    1.3964070380248028E+01 
    1.4176737837568796E+01 
    8.4651946642948150E+00 
    9.5631453103596780E+00 
    1.4222498322255854E+01 
    9.4068982901180878E+00 
    8.9698850007933082E+00 
    1.1470006290324632E+01 
    5.8807339796552176E+00 
    8.2623399392620698E+00 
    9.5626917634443718E+00 
    1.0145865840474132E+01 
    1.5613722646528071E+01 
    7.1457339819592542E+00 
    9.6373402334925622E+00 
    1.3020095378320535E+01 
    1.3284053526793524E+01 
    6.3271683782880812E+00 
    9.2777830752810750E+00 
    9.5933356070329268E+00 
    1.3303017219709556E+01 
    9.5942726856770548E+00 
    1.3240415535254220E+01 
    3.9006881919134906E+00 
    6.2862829538104181E+00 
    9.8580750116869869E+00 
    1.3421580909804568E+01 
    8.4107695417515327E+00 
    8.9568511863989038E+00 
    9.5791413148273019E+00 
    8.9448034033093666E+00 
    1.0884703634881483E+01 
    8.7161078195530930E+00 
    8.3443311691652422E+00 
    6.6617945606807956E+00 
    1.1269063243903203E+01 
    9.6658083365925620E+00 
    1.3820261368385891E+01 
    8.2699196124583914E+00 
    9.1236100224454635E+00 
    1.3145600134551064E+01 
    7.6831681479297789E+00 
    1.3564963358718737E+01 
    9.4850638127242242E+00 
    9.0572951150691683E+00 
    1.3285964918526334E+01 
    9.6606038446126377E+00 
    1.4055737708570874E+01 
    1.1483146229644088E+01 
    1.2373228713891622E+01 
    1.4023593781980580E+01 
    7.1589887884601113E+00 
    9.8809162802682646E+00 
    1.3285765733973461E+01 
    2.9241370934472011E+00 
    9.6335757542610310E+00 
    1.3991948769885928E+01 
    9.0864564398029692E+00 
    1.0480751226766666E+01 
    6.2911154313122113E+00 
    1.3018627333474891E+01 
    1.6080179401404227E+01 
    1.1920516374162863E+01 
    9.0828635576048384E+00 
    8.1672654035160122E+00 
    1.0281442780554618E+01 
    9.5022486820615661E+00 
    6.5295279276367948E+00 
    1.4017236787686514E+01 
    1.3355851295974302E+01 
    1.3021739252334157E+01 
    1.0138921149171722E+01 
    8.3155281285837610E+00 
    9.3336601292392345E+00 
    1.3744224645470323E+01 
    8.5311828498629190E+00 
    9.5335107222508011E+00 
    8.6768247719644140E+00 
    1.1028599262808296E+01 
    1.6068794265422536E+01 
    1.3013638676397880E+01 
    8.2886395460113338E+00 
    1.3465673628692945E+01 
    1.3383559954849330E+01 
    1.3458310631187981E+01 
    1.4407798333258098E+01 
    1.4923856134520356E+01 
    1.3624848490009066E+01 
    9.6208648561206651E+00 
    1.0374463296928980E+01 
    1.3463179231815197E+01 
    1.3834617984802208E+01 
    6.7965309023324858E+00 
    1.3040018203964181E+01 
    1.3708016963822068E+01 
    6.6368857689262661E+00 
    1.4327019050884473E+01 
    1.4311958239693027E+01 
    1.2776985670151014E+01 
    9.9439321208378484E+00 
    2.5702071824530623E+00 
    1.3990260943277811E+01 
    9.8020883078713190E+00 
    1.4105026041138267E+01 
    9.0252150239698814E+00 
    1.3837368050202910E+01 
    9.2394844321825687E-01 
    1.2386953828466009E+01 
    9.1231506171616417E+00 
    8.2789576751333787E+00 
    8.0751444396557766E+00 
    9.4544970995849003E+00 
    1.0549230744132268E+01 
    9.8915355746140339E+00 
    6.7452618591663880E+00 
    1.3826591422612937E+01 
    1.3307738737603682E+01 
    1.1197174747217923E+01 
    9.8532370192870626E+00 
    1.4920365519858061E+00 
    7.4773932305656112E+00 
    5.2666734082296518E+00 
    1.4004085245667994E+01 
    1.0755803032167524E+01 
    1.3364223252311223E+01 
    1.3370125446010725E+01 
    8.6142531756587495E+00 
    1.1311750882735069E+01 
    1.3017087225066525E+01 
    1.4297593135473724E+01 
    6.2681556220519505E+00 
    1.1794059974594617E+01 
    9.9519153529170730E+00 
    5.6046877188264386E+00 
    8.5958390218143013E+00 
    1.1828400660852612E+01 
    1.3334134891045061E+01 
    9.5097985878965616E+00 
    1.3437622124598336E+01 
    1.3218068820766495E+01 
    1.3170421985818276E+01 
    9.3398378508695945E+00 
    8.2199871024345299E+00 
    1.3029517432216021E+01 
    8.3336701721111783E+00 
    9.5988319809278000E+00 
    8.1799870376957706E+00 
    9.4709111340568946E+00 
    1.3378676279796119E+01 
    5.9306956360968552E+00 
    8.5165080748803703E+00 
    1.3926447786980496E+01 
    9.3527257669121848E+00 
    1.0653698389455888E+01 
    6.0852042292713717E+00 
    8.3852902438626469E+00 
    1.3198069326195462E+01 
    1.3489909977023297E+01 
    4.9849358907752990E+00 
    9.3576696659211489E+00 
    8.2228195890135716E+00 
    1.4701004813972942E+01 
    1.4186071721198934E+01 
    1.4948599926857430E+01 
    9.3783595418248673E+00 
    1.3353362358126592E+01 
    1.2976647980998736E+01 
    9.2528103074781818E+00 
    1.3021914708602228E+01 
    9.8554368956290208E+00 
    5.6673532410289962E+00 
    9.6828489879953938E+00 
    1.3911452796350485E+01 
    1.3018887978257762E+01 
    6.4263406921254891E+00 
    1.3046550500195721E+01 
    1.0564656237842913E+01 
    9.6158601178263119E+00 
    9.1610430435728034E+00 
    1.2894267491663774E+01 
    1.0122557291760240E+01 
    1.3034287258781429E+01 
    9.3144150817499867E+00 
    5.8366634846132026E+00 
    9.6693102950347054E+00 
    8.0833401251876857E+00 
    1.1925785742703621E+01 
    1.4103344286531449E+01 
    1.3027992848142247E+01 
    1.3985196616583965E+01 
    9.3011688227493323E+00 
    6.2762156008827272E+00 
    6.3612127579516562E+00 
    9.7964509487170535E+00 
    9.5752514460877798E+00 
    1.4256023538948663E+00 
    1.2561490589431340E+01 
    1.4438180436282147E+01 
    9.0349869718153997E+00 
    5.9039447972378722E+00 
    1.0994211294620985E+01 
    1.3045214837130906E+01 
    6.9359673197826179E+00 
    4.7771857679240366E+00 
    9.5511019829694437E+00 
    1.3123805376268699E+01 
    1.3736820292207634E+01 
    1.3638334570778198E+01 
    1.3492901655203715E+01 
    6.7936484788744069E+00 
    9.6073594047880686E+00 
    1.2610903576481531E+01 
    7.4622969797925407E+00 
    1.3317162527348710E+01 
    1.1543147584755969E+01 
    6.4492655379682100E+00 
    1.3147761875775235E+01 
    1.4004040760707266E+01 
    1.3168455247893379E+01 
    6.6894663985261928E+00 
    9.6254038286023782E+00 
    7.3238929962184143E+00 
    9.0725749765025299E+00 
    1.3037168584250789E+01 
    1.3026136198837236E+01 
    6.7269070442521697E+00 
    1.3873035774169454E+01 
    1.0150140876983992E+01 
    1.3058553690795053E+01 
    1.3843216095907529E+01 
    1.3046407006036453E+01 
    1.2149785421481470E+01 
    1.4750370791189239E+01 
    9.0017557144672331E+00 
    1.3956238986720425E+01 
    1.3085243682954433E+01 
    1.4024905023455618E+01 
    1.3866139900347655E+01 
    9.0921059692351633E+00 
    9.4452905494493749E+00 
    9.0256157233401098E+00 
    1.1684911410837207E+01 
    3.9099976906816010E+00 
    9.7338465946602142E+00 
    1.4871255139288348E+01 
    9.8538221363642009E+00 
    1.0032317941430101E+01 
    1.3998917676571384E+01 
    1.4223769651700325E+01 
    8.9571483112174803E+00 
    1.3050619748143058E+01 
    1.3022886671363100E+01 
    1.0020515189814358E+01 
    1.3822833361668856E+01 
    6.7760117732350640E+00 
    4.3582036678224982E+00 
    1.0288004984482964E+01 
    9.8681218979918963E+00 
    1.3028020542178005E+01 
    6.3103957437872653E+00 
    1.3557308167611788E+01 
    4.4504141236929025E+00 
    9.8029498631713938E+00 
    9.1488625471402738E+00 
    9.6018226667414783E+00 
    1.6117738618152540E+01 
    3.8005992435492204E+00 
    9.6514996406149454E+00 
    1.1456781339568895E+01 
    9.2065991160644174E+00 
    7.4029603671004356E+00 
    1.3664018229363283E+01 
    1.5703141334828171E+01 
    1.3808396428064354E+01 
    9.5941147260836956E+00 
    5.5759723034674389E+00 
    1.5555086815334320E+01 
    1.3298287473764397E+01 
    7.0342309947402217E+00 
    9.2187475948809183E+00 
    1.4391712009455620E+01 
    3.2241985686183727E+00 
    9.9155552159417226E+00 
    1.3775754504798977E+01 
    9.6151017517319914E+00 
    8.3514747536083433E+00 
    9.6911080966413543E+00 
    1.2828322475727733E+01 
    9.5959044964032483E+00 
    4.9845085505591920E+00 
    9.1076990239586053E-01 
    7.1162884614596873E+00 
    1.4599212353433400E+01 
    9.0237961232245691E+00 
    1.0952820967017265E+01 
    1.0427813793336583E+01 
    1.2067953413110855E+01 
    9.6286461664381804E+00 
    1.3213605289109774E+01 
    1.6131474882171975E+01 
    1.1384779115953538E+01 
    1.3929779203703870E+01 
    5.3862760802381215E-01 
    1.3027959931519565E+01 
    5.4754049001534293E+00 
    1.5032695062857965E+01 
    9.6650598057638337E+00 
    8.4847662444939047E+00 
    7.4619582801258009E+00 
    5.2241681715356849E+00 
    1.0749036286121322E+01 
    7.5420711667134004E+00 
    1.1826221653991341E+01 
    2.1757674228268531E+00 
    1.0597774055239199E+01 
    1.2964537451376964E+01 
    5.7765650306569398E+00 
    1.3501187965687814E+01 
    1.4859266854829556E+01 
    1.3337110958694021E+01 
    9.5357422491841799E+00 
    9.5967082095011769E+00 
    9.6577946370827732E+00 
    5.6438584128434854E+00 
    8.7737474579729255E+00 
    8.6345247314855644E+00 
    9.6469216275534304E+00 
    8.9654810289961393E+00 
    6.8407190670866380E-01 
    6.2464352258105604E+00 
    9.3329443034547612E+00 
    9.6228176445633018E+00 
    1.2150923018202613E+01 
    2.1070436900695988E+00 
    9.9822272266245697E+00 
    9.8724779828222733E+00 
    3.6571382254474334E+00 
    1.3207885003069826E+01 
    8.3531632834274738E+00 
    9.7322170520644899E+00 
    1.3296323316526603E+01 
    5.2434858968936853E+00 
    1.3327039026158667E+01 
    8.4500454491213457E+00 
    9.5682054791920879E-01 
    9.0815921389732797E+00 
    1.3883586685588412E+01 
    1.3028174671790508E+01 
    1.3046963530180632E+01 
    1.0000866372057070E+01 
    9.8075271671587867E+00 
    8.3308222172879436E+00 
    6.7688504845675341E+00 
    1.3399769337830685E+01 
    9.2184775065039730E+00 
    6.5499910770092677E+00 
    1.3041787516383614E+01 
    1.3707161604925595E+01 
    9.8188877331944457E+00 
    9.3997743246700960E+00 
    1.6016236244238698E+01 
    1.0021350172010839E+01 
    1.3415597347611335E+01 
    7.9389336641363508E+00 
    1.6159415672799263E+01 
    6.3237381940238784E+00 
    8.7191074504900925E+00 
    7.0640099557040070E+00 
    1.0240173417894718E+01 
    8.1242847807411529E+00 
    1.6143427115198062E+01 
    1.0066854784823454E+01 
    1.2766489830678474E+01 
    6.4999113812631641E+00 
    9.6250724027936396E+00 
    1.3265901769961404E+01 
    8.1399505040272384E+00 
    7.0445310987928966E+00 
    1.0662972357379866E+01 
    1.3482606875199389E+01 
    6.9764509868181577E+00 
    9.1672216734954386E+00 
    9.4291076593871672E+00 
    1.3004961049728344E+01 
    9.2323317261125357E+00 
    1.3456290898216315E+01 
    1.4052513723870046E+01 
    8.3557264910822369E+00 
    8.1990234626146954E+00 
    7.5772159789153424E+00 
    1.3143611242656949E+01 
    9.8914262149778072E+00 
    1.5738398062800574E+01 
    1.2346527887931533E+01 
    1.3228490972849968E+01 
    1.5433937973769506E+01 
    1.4860784545055349E+01 
    9.6731069161016858E+00 
    9.6322668622107113E+00 
    1.2804612106904521E+01 
    1.3063580868604902E+01 
    1.3564244690559367E+01 
    1.3318285665382309E+01 
    1.6035756002554827E+01 
    1.0020908589555194E+01 
    8.4493209829070057E+00 
    1.0028015131059739E+01 
    1.3969872712178596E+01 
    9.7758478402688453E+00 
    5.6755921037637256E+00 
    9.5203257906062486E+00 
    1.4363223543687708E+01 
    9.9065902146211542E+00 
    8.4519969191191695E+00 
    9.3695935042270264E+00 
    1.4467025562914792E+01 
    1.3080853358745232E+01 
    8.0603138984865161E+00 
    1.4599553190792998E+01 
    9.7043156863800633E+00 
    1.3555212012525832E+01 
    1.4481559216729556E+01 
    1.0266886196850098E+01 
    5.2488867028826887E+00 
    1.0666719903551691E+01 
    5.4223745722100807E+00 
    9.8251283932600231E+00 
    9.6165272828946140E+00 
    1.1204745919793838E+01 
    5.7217916483822577E+00 
    1.1872422750663194E+01 
    9.6375126566295126E+00 
    1.3308636933136594E+01 
    1.0200679741752058E+01 
    7.8818108499881525E+00 
    9.2461391030348707E+00 
    1.0155767597947500E+01 
    1.0119811641959727E+01 
    1.4094999543799984E+01 
    8.0932606897827917E+00 
    7.9577839894884255E+00 
    6.0054639144678825E+00 
    1.3589079554797584E+01 
    9.2869802849982737E+00 
    1.2894942303596915E+01 
    9.5868848674561153E+00 
    6.5467372808223985E+00 
    1.3111801495813594E+01 
    9.5618874637617495E+00 
    7.1141825517887041E+00 
    7.5186016394425179E+00 
    7.7729730550125096E+00 
    1.3338027564179054E+01 
    9.6488643146670814E+00 
    1.3940401377464058E+01 
    9.5199151169080896E+00 
    9.4572152429816310E+00 
    9.0883431410238860E+00 
    1.3187884644939293E+01 
    9.3738333029163847E+00 
    7.8108666977447010E+00 
    1.4847773785123628E+01 
    1.3262990104355540E+01 
    6.6200803497654270E+00 
    2.6789835282823584E+00 
    9.6383125355544070E+00 
    8.9825384936144967E+00 
    8.1965017448517905E+00 
    8.9033033366725913E+00 
    1.3219775997645744E+01 
    9.3589326530174404E+00 
    8.5020981868867320E+00 
    1.3084619833642467E+01 
    6.5636610687673240E+00 
    1.2767402852255593E+01 
    8.6725123040568270E+00 
    7.7702494649158647E+00 
    8.2695673773488600E+00 
    1.3635678896034371E+01 
    9.6048747435972341E+00 
    9.6128980274886899E+00 
    5.7991811642870577E+00 
    6.2484750961375326E+00 
    1.2195987153844186E+01 
    9.6227771405911966E+00 
    9.6779546191520573E+00 
    1.4583354055085540E+01 
    7.9559661000507402E+00 
    9.6354146077063962E+00 
    6.7922719078051701E+00 
    7.0132496342112827E+00 
    1.3183483796004467E+01 
    9.2630246427282792E+00 
    6.8619585721886507E+00 
    1.0148580640173879E+01 
    9.5053820537202061E+00 
    1.3185758792920565E+01 
    1.4672498884854200E+01 
    1.0363016336049755E+00 
    9.6430927976425309E+00 
    9.8662814883664840E+00 
    1.3243768738854010E+01 
    9.1496398651787292E+00 
    9.5788740737227958E+00 
    1.4146628861454134E+01 
    8.2985580730759079E+00 
    6.9208861722042609E+00 
    1.1603240078239342E+01 
    1.3041155632005868E+01 
    1.4025188144698268E+01 
    1.4272017051804836E+01 
    9.4900852343487596E+00 
    9.6351302413826279E+00 
    1.0814041466964484E+01 
    6.2948139923107025E+00 
    1.3161215091678850E+01 
    7.4351964054067432E+00 
    6.5526697692381788E+00 
    1.2057449311249156E+01 
    1.1342601035327000E+01 
    6.4259705016576305E+00 
    1.3075871781531403E+01 
    1.4011009564688287E+01 
    1.0035872154548363E+01 
    1.4769353262499669E+01 
    1.3107307099267311E+01 
    9.2252966013961917E+00 
    1.3758525332536003E+01 
    7.0119645490502185E+00 
    1.3058369930678431E+01 
    9.6422014999875714E+00 
    9.6030181207503524E+00 
    1.4744981342456722E+01 
    9.3198804486653302E+00 
    1.1787165292389849E+01 
    8.2509110972733755E+00 
    1.4122371555249758E+01 
    1.2970468727456502E+01 
    8.5902260515489051E+00 
    1.3018380644955469E+01 
    8.6641684640915688E+00 
    9.5885650925417227E+00 
    1.3972162254629133E+01 
    1.3313660222155564E+01 
    1.4014261669615367E+01 
    1.3247138394704807E+01 
    8.7869343753911746E+00 
    8.9988880294707219E+00 
    1.4020384432133731E+01 
    9.1151067488117494E+00 
    1.2905198715112906E+01 
    9.3089407689499613E+00 
    3.9415636658280166E+00 
    6.6191815492278128E+00 
    6.1375382884288898E+00 
    1.3975278826193922E+01 
    1.4677982575220977E+01 
    1.3035767270073615E+01 
    1.1091265462218256E+01 
    1.3312657445872086E+01 
    1.3081735134814249E+01 
    1.3639498853512302E+01 
    5.6085712107056542E+00 
    3.6757709849977362E+00 
    1.0892824624405501E+01 
    9.3054462736861741E+00 
    1.3221300960772968E+01 
    1.3218895992241503E+01 
    9.8874144636159205E+00 
    1.3254178355350700E+01 
    9.6296652486565275E+00 
    9.5341697711022722E+00 
    5.0819790224670056E+00 
    3.6630081336839262E+00 
    1.4463101227695827E+01 
    7.4540597578509020E+00 
    8.5308182919458080E+00 
    9.7828850474302307E+00 
    1.6017206245707598E+01 
    9.8752956475398470E+00 
    9.9454430869191963E+00 
    4.1394749193736065E+00 
    9.8766892832167414E+00 
    9.8901752371085365E+00 
    1.3534738251686948E+01 
    8.2765825356106397E+00 
    9.1707000000366143E+00 
    1.4625156396117150E+01 
    9.6511999804402517E+00 
    1.3050942201004091E+01 
    1.3301011186265315E+01 
    1.1823779263530838E+01 
    8.1151000803829305E+00 
    1.3246989563522437E+01 
    9.4452616921957446E+00 
    1.3224221424219218E+01 
    1.2992076717497907E+01 
    1.3993825277722362E+01 
    1.3243915333400210E+01 
    1.2427243977717682E+01 
    9.6403863976688520E+00 
    6.3774169512111216E+00 
    1.5894606497800474E+01 
    7.5856343562397264E+00 
    1.3916829736409820E+01 
    9.6378197575913447E+00 
    8.0066919390818487E+00 
    4.7968559898637650E+00 
    9.9252511904485807E+00 
    1.3234285945080048E+01 
    1.3231468544922890E+01 
    9.5694304412705282E+00 
    9.6320348852256696E+00 
    1.4826100577591999E+01 
    1.4218049283872922E+01 
    9.8928854327875495E+00 
    3.4215286610591891E+00 
    1.2396399989897859E+01 
    1.6141635638434529E+01 
    9.6436762360657546E+00 
    1.1445530237841066E+01 
    9.1465888254848835E+00 
    1.5757538995157546E+01 
    1.4295613954291055E+01 
    1.4049239496584018E+01 
    9.9134485314593430E+00 
    4.4836758119533542E+00 
    9.1066775506304420E+00 
    9.1710304852790099E+00 
    9.2162299825336831E+00 
    3.7157836103951487E+00 