# vtk DataFile Version 2.0
Pressure Field Data 
ASCII 
DATASET UNSTRUCTURED_GRID 

POINTS 2860 double 

    0.0000000000000000E+00     0.0000000000000000E+00     0.0000000000000000E+00 
    1.0000000000000000E+00     0.0000000000000000E+00     0.0000000000000000E+00 
    1.0000000000000000E+00     1.0000000000000000E+00     0.0000000000000000E+00 
    0.0000000000000000E+00     1.0000000000000000E+00     0.0000000000000000E+00 
    2.5000000000000000E-01     2.5000000000000000E-01     0.0000000000000000E+00 
    7.5000000000000000E-01     2.5000000000000000E-01     0.0000000000000000E+00 
    7.5000000000000000E-01     7.5000000000000000E-01     0.0000000000000000E+00 
    2.5000000000000000E-01     7.5000000000000000E-01     0.0000000000000000E+00 
    3.1249999999942091E-02     0.0000000000000000E+00     0.0000000000000000E+00 
    6.2499999999873469E-02     0.0000000000000000E+00     0.0000000000000000E+00 
    9.3749999999826514E-02     0.0000000000000000E+00     0.0000000000000000E+00 
    1.2499999999977961E-01     0.0000000000000000E+00     0.0000000000000000E+00 
    1.5624999999968961E-01     0.0000000000000000E+00     0.0000000000000000E+00 
    1.8749999999959971E-01     0.0000000000000000E+00     0.0000000000000000E+00 
    2.1874999999950970E-01     0.0000000000000000E+00     0.0000000000000000E+00 
    2.4999999999941969E-01     0.0000000000000000E+00     0.0000000000000000E+00 
    2.8124999999932920E-01     0.0000000000000000E+00     0.0000000000000000E+00 
    3.1249999999923850E-01     0.0000000000000000E+00     0.0000000000000000E+00 
    3.4374999999914790E-01     0.0000000000000000E+00     0.0000000000000000E+00 
    3.7499999999905720E-01     0.0000000000000000E+00     0.0000000000000000E+00 
    4.0624999999896660E-01     0.0000000000000000E+00     0.0000000000000000E+00 
    4.3749999999887590E-01     0.0000000000000000E+00     0.0000000000000000E+00 
    4.6874999999878530E-01     0.0000000000000000E+00     0.0000000000000000E+00 
    4.9999999999869471E-01     0.0000000000000000E+00     0.0000000000000000E+00 
    5.3124999999877620E-01     0.0000000000000000E+00     0.0000000000000000E+00 
    5.6249999999885780E-01     0.0000000000000000E+00     0.0000000000000000E+00 
    5.9374999999893940E-01     0.0000000000000000E+00     0.0000000000000000E+00 
    6.2499999999902101E-01     0.0000000000000000E+00     0.0000000000000000E+00 
    6.5624999999910261E-01     0.0000000000000000E+00     0.0000000000000000E+00 
    6.8749999999918421E-01     0.0000000000000000E+00     0.0000000000000000E+00 
    7.1874999999926570E-01     0.0000000000000000E+00     0.0000000000000000E+00 
    7.4999999999934730E-01     0.0000000000000000E+00     0.0000000000000000E+00 
    7.8124999999942890E-01     0.0000000000000000E+00     0.0000000000000000E+00 
    8.1249999999951039E-01     0.0000000000000000E+00     0.0000000000000000E+00 
    8.4374999999959199E-01     0.0000000000000000E+00     0.0000000000000000E+00 
    8.7499999999967359E-01     0.0000000000000000E+00     0.0000000000000000E+00 
    9.0624999999975520E-01     0.0000000000000000E+00     0.0000000000000000E+00 
    9.3749999999983680E-01     0.0000000000000000E+00     0.0000000000000000E+00 
    9.6874999999991840E-01     0.0000000000000000E+00     0.0000000000000000E+00 
    1.0000000000000000E+00     3.1249999999942091E-02     0.0000000000000000E+00 
    1.0000000000000000E+00     6.2499999999873469E-02     0.0000000000000000E+00 
    1.0000000000000000E+00     9.3749999999826514E-02     0.0000000000000000E+00 
    1.0000000000000000E+00     1.2499999999977961E-01     0.0000000000000000E+00 
    1.0000000000000000E+00     1.5624999999968961E-01     0.0000000000000000E+00 
    1.0000000000000000E+00     1.8749999999959971E-01     0.0000000000000000E+00 
    1.0000000000000000E+00     2.1874999999950970E-01     0.0000000000000000E+00 
    1.0000000000000000E+00     2.4999999999941969E-01     0.0000000000000000E+00 
    1.0000000000000000E+00     2.8124999999932920E-01     0.0000000000000000E+00 
    1.0000000000000000E+00     3.1249999999923850E-01     0.0000000000000000E+00 
    1.0000000000000000E+00     3.4374999999914790E-01     0.0000000000000000E+00 
    1.0000000000000000E+00     3.7499999999905720E-01     0.0000000000000000E+00 
    1.0000000000000000E+00     4.0624999999896660E-01     0.0000000000000000E+00 
    1.0000000000000000E+00     4.3749999999887590E-01     0.0000000000000000E+00 
    1.0000000000000000E+00     4.6874999999878530E-01     0.0000000000000000E+00 
    1.0000000000000000E+00     4.9999999999869471E-01     0.0000000000000000E+00 
    1.0000000000000000E+00     5.3124999999877620E-01     0.0000000000000000E+00 
    1.0000000000000000E+00     5.6249999999885780E-01     0.0000000000000000E+00 
    1.0000000000000000E+00     5.9374999999893940E-01     0.0000000000000000E+00 
    1.0000000000000000E+00     6.2499999999902101E-01     0.0000000000000000E+00 
    1.0000000000000000E+00     6.5624999999910261E-01     0.0000000000000000E+00 
    1.0000000000000000E+00     6.8749999999918421E-01     0.0000000000000000E+00 
    1.0000000000000000E+00     7.1874999999926570E-01     0.0000000000000000E+00 
    1.0000000000000000E+00     7.4999999999934730E-01     0.0000000000000000E+00 
    1.0000000000000000E+00     7.8124999999942890E-01     0.0000000000000000E+00 
    1.0000000000000000E+00     8.1249999999951039E-01     0.0000000000000000E+00 
    1.0000000000000000E+00     8.4374999999959199E-01     0.0000000000000000E+00 
    1.0000000000000000E+00     8.7499999999967359E-01     0.0000000000000000E+00 
    1.0000000000000000E+00     9.0624999999975520E-01     0.0000000000000000E+00 
    1.0000000000000000E+00     9.3749999999983680E-01     0.0000000000000000E+00 
    1.0000000000000000E+00     9.6874999999991840E-01     0.0000000000000000E+00 
    9.6875000000003686E-01     1.0000000000000000E+00     0.0000000000000000E+00 
    9.3750000000011691E-01     1.0000000000000000E+00     0.0000000000000000E+00 
    9.0625000000015765E-01     1.0000000000000000E+00     0.0000000000000000E+00 
    8.7500000000017863E-01     1.0000000000000000E+00     0.0000000000000000E+00 
    8.4375000000028044E-01     1.0000000000000000E+00     0.0000000000000000E+00 
    8.1250000000040856E-01     1.0000000000000000E+00     0.0000000000000000E+00 
    7.8125000000054956E-01     1.0000000000000000E+00     0.0000000000000000E+00 
    7.5000000000066480E-01     1.0000000000000000E+00     0.0000000000000000E+00 
    7.1875000000086831E-01     1.0000000000000000E+00     0.0000000000000000E+00 
    6.8750000000102829E-01     1.0000000000000000E+00     0.0000000000000000E+00 
    6.5625000000114431E-01     1.0000000000000000E+00     0.0000000000000000E+00 
    6.2500000000129829E-01     1.0000000000000000E+00     0.0000000000000000E+00 
    5.9375000000147926E-01     1.0000000000000000E+00     0.0000000000000000E+00 
    5.6250000000168354E-01     1.0000000000000000E+00     0.0000000000000000E+00 
    5.3125000000188671E-01     1.0000000000000000E+00     0.0000000000000000E+00 
    5.0000000000205835E-01     1.0000000000000000E+00     0.0000000000000000E+00 
    4.6875000000192979E-01     1.0000000000000000E+00     0.0000000000000000E+00 
    4.3750000000180111E-01     1.0000000000000000E+00     0.0000000000000000E+00 
    4.0625000000167238E-01     1.0000000000000000E+00     0.0000000000000000E+00 
    3.7500000000154382E-01     1.0000000000000000E+00     0.0000000000000000E+00 
    3.4375000000141509E-01     1.0000000000000000E+00     0.0000000000000000E+00 
    3.1250000000128642E-01     1.0000000000000000E+00     0.0000000000000000E+00 
    2.8125000000115769E-01     1.0000000000000000E+00     0.0000000000000000E+00 
    2.5000000000102918E-01     1.0000000000000000E+00     0.0000000000000000E+00 
    2.1875000000090050E-01     1.0000000000000000E+00     0.0000000000000000E+00 
    1.8750000000077180E-01     1.0000000000000000E+00     0.0000000000000000E+00 
    1.5625000000064329E-01     1.0000000000000000E+00     0.0000000000000000E+00 
    1.2500000000051459E-01     1.0000000000000000E+00     0.0000000000000000E+00 
    9.3750000000385914E-02     1.0000000000000000E+00     0.0000000000000000E+00 
    6.2500000000257239E-02     1.0000000000000000E+00     0.0000000000000000E+00 
    3.1250000000128557E-02     1.0000000000000000E+00     0.0000000000000000E+00 
    0.0000000000000000E+00     9.6875000000003686E-01     0.0000000000000000E+00 
    0.0000000000000000E+00     9.3750000000011691E-01     0.0000000000000000E+00 
    0.0000000000000000E+00     9.0625000000015765E-01     0.0000000000000000E+00 
    0.0000000000000000E+00     8.7500000000017863E-01     0.0000000000000000E+00 
    0.0000000000000000E+00     8.4375000000028044E-01     0.0000000000000000E+00 
    0.0000000000000000E+00     8.1250000000040856E-01     0.0000000000000000E+00 
    0.0000000000000000E+00     7.8125000000054956E-01     0.0000000000000000E+00 
    0.0000000000000000E+00     7.5000000000066480E-01     0.0000000000000000E+00 
    0.0000000000000000E+00     7.1875000000086831E-01     0.0000000000000000E+00 
    0.0000000000000000E+00     6.8750000000102829E-01     0.0000000000000000E+00 
    0.0000000000000000E+00     6.5625000000114431E-01     0.0000000000000000E+00 
    0.0000000000000000E+00     6.2500000000129829E-01     0.0000000000000000E+00 
    0.0000000000000000E+00     5.9375000000147926E-01     0.0000000000000000E+00 
    0.0000000000000000E+00     5.6250000000168354E-01     0.0000000000000000E+00 
    0.0000000000000000E+00     5.3125000000188671E-01     0.0000000000000000E+00 
    0.0000000000000000E+00     5.0000000000205835E-01     0.0000000000000000E+00 
    0.0000000000000000E+00     4.6875000000192979E-01     0.0000000000000000E+00 
    0.0000000000000000E+00     4.3750000000180111E-01     0.0000000000000000E+00 
    0.0000000000000000E+00     4.0625000000167238E-01     0.0000000000000000E+00 
[...]
CELL_DATA 2795 
SCALARS Pressure double 1 
LOOKUP_TABLE default 

    5.9769418705773338E+00 
    1.3314723900475029E+01 
    9.3803890766608227E+00 
    9.0629488896598804E+00 
    7.2814389757148081E+00 
    1.3191817222406419E+01 
    1.3875988851607355E+01 
    5.3624420264311556E+00 
    9.9316917467129038E+00 
    7.5418334700245575E+00 
    6.4158511497681854E+00 
    1.2953949855655866E+01 
    1.3230032168990784E+01 
    1.3163110709335925E+01 
    8.6201314659903758E+00 
    5.2744604471840120E+00 
    8.3689377116739951E+00 
    6.8353151820910227E+00 
    1.2617705256572952E+01 
    9.3697707784706754E+00 
    9.2625282644528184E+00 
    1.3102298764477066E+01 
    8.8162033126834842E+00 
    3.5975861327349706E-01 
    1.2962798615589078E+01 
    1.3200764919552205E+01 
    1.3906143355837271E+01 
    6.1589122308394977E+00 
    1.2880173495483099E+01 
    1.3891665581637378E+01 
    9.5096848658414466E+00 
    9.5925450564401444E+00 
    6.5857406095988384E+00 
    9.3419196704848240E+00 
    3.0990737351483242E+00 
    8.3712469582484026E+00 
    9.3311868902007458E+00 
    1.3928668386374575E+01 
    1.3854980248168536E+01 
    1.2966185822832379E+01 
    7.2327010822293962E+00 
    1.2933692352753281E+01 
    7.4702063913576522E-01 
    9.3035201686707634E+00 
    1.3683212019311151E+01 
    1.3526466329642096E+01 
    1.2943958390238565E+01 
    1.0249370120790806E+01 
    1.3011595669696735E+01 
    8.5535625644334559E+00 
    8.1675143593856649E+00 
    9.5586232101858410E+00 
    9.1880198279657357E+00 
    8.4189026961909494E+00 
    9.5809690958917937E+00 
    1.2423240073339059E+01 
    1.1169046952902162E+01 
    7.3198786365046349E+00 
    1.3105914803438163E+01 
    1.3035866752264935E+01 
    9.0834207074939748E+00 
    9.0098337362122489E+00 
    8.9735983703755160E+00 
    1.3800416786300042E+01 
    1.4047700694926956E+01 
    8.3806768291210183E+00 
    9.5572117803720058E+00 
    1.2865873168867562E+01 
    1.0996171749670712E+01 
    9.0459333980229530E+00 
    1.4056407623826793E+01 
    1.3059930062330292E+01 
    8.2665431384357184E+00 
    1.3620108151111801E+01 
    9.8098160890206785E+00 
    1.2825371509684022E+01 
    1.3943961701384787E+01 
    9.7921407069096773E+00 
    6.0847831990930592E+00 
    9.5757771795968516E+00 
    1.3862728987984953E+01 
    1.4074581022590742E+01 
    8.3942774969513412E+00 
    9.4906647805223230E+00 
    1.4120115911385456E+01 
    9.3339991083709819E+00 
    8.8960795720199801E+00 
    1.1383625562654602E+01 
    5.8238693411172315E+00 
    8.1921486129902590E+00 
    9.4902901868211895E+00 
    1.0068243854835949E+01 
    1.5507922021804671E+01 
    7.0830700558840762E+00 
    9.5652792543858212E+00 
    1.2923700176419544E+01 
    1.3184861668060078E+01 
    6.2695137608169889E+00 
    9.2051908668578850E+00 
    9.5207915691877609E+00 
    1.3203776293353869E+01 
    9.5220823056974062E+00 
    1.3141357456810889E+01 
    3.8617037495620807E+00 
    6.2350963643626365E+00 
    9.7846304428243585E+00 
    1.3322293418010418E+01 
    8.3397993945566125E+00 
    8.8847609210428793E+00 
    9.5071646329052992E+00 
    8.8711050998902046E+00 
    1.0805956109858268E+01 
    8.6449594080557493E+00 
    8.2736865422006129E+00 
    6.6003584335689904E+00 
    1.1180203549212960E+01 
    9.5934802288885379E+00 
    1.3719455482592069E+01 
    8.2058382026093604E+00 
    9.0491123287225133E+00 
    1.3047167694446831E+01 
    7.6166384850342750E+00 
    1.3464924052931677E+01 
    9.4123495918682227E+00 
    8.9829669024263499E+00 
    1.3186785289016631E+01 
    9.5886026923441108E+00 
    1.3953990569101485E+01 
    1.1396616404471406E+01 
    1.2280780712899054E+01 
    1.3922009405102248E+01 
    7.0962426734544684E+00 
    9.8069322910660102E+00 
    1.3186802721207158E+01 
    2.8952720861575245E+00 
    9.5594114147234563E+00 
    1.3890509864437883E+01 
    9.0121407020102051E+00 
    1.0396505432826775E+01 
    6.2314939052024769E+00 
    1.2922287877355599E+01 
    1.5973785373191038E+01 
    1.1831091507187127E+01 
    9.0084167557141566E+00 
    8.0977843295126473E+00 
    1.0206747110133437E+01 
    9.4295493819436835E+00 
    6.4763596205988518E+00 
    1.3915645578647608E+01 
    1.3260088216749010E+01 
    1.2925340680528631E+01 
    1.0062040548352162E+01 
    8.2451287995266149E+00 
    9.2607623337877829E+00 
    1.3643626708001815E+01 
    8.4596014690202157E+00 
    9.4555819373542995E+00 
    8.6043070862779807E+00 
    1.0942241037619882E+01 
    1.5962417743735255E+01 
    1.2917263547040429E+01 
    8.2176333251253642E+00 
    1.3365725585605253E+01 
    1.3284393932776380E+01 
    1.3358876106405388E+01 
    1.4304759671630155E+01 
    1.4819409168344253E+01 
    1.3525368875352973E+01 
    9.5487784016106225E+00 
    1.0290450904078160E+01 
    1.3363996878048280E+01 
    1.3733743524322309E+01 
    6.7423775835144850E+00 
    1.2943495252557168E+01 
    1.3607413014694218E+01 
    6.5831814201995966E+00 
    1.4223947879724012E+01 
    1.4209279087426015E+01 
    1.2682056809658869E+01 
    9.8693421394440914E+00 
    2.5502358470192776E+00 
    1.3888776138680761E+01 
    9.7296168144212327E+00 
    1.4002985533854654E+01 
    8.9512275747162278E+00 
    1.3736183506340467E+01 
    9.1427416905763614E-01 
    1.2294621529949607E+01 
    9.0520158149391463E+00 
    8.2087172439601073E+00 
    8.0062666771824418E+00 
    9.3818192702546845E+00 
    1.0472639350457245E+01 
    9.8112451593453383E+00 
    6.6819452507448904E+00 
    1.3725806494140340E+01 
    1.3208789583476872E+01 
    1.1112829269230007E+01 
    9.7795965100675932E+00 
    1.4778334214225148E+00 
    7.4126351478242594E+00 
    5.2131287285506520E+00 
    1.3902570725307104E+01 
    1.0685219515882805E+01 
    1.3265562043104412E+01 
    1.3270885440474828E+01 
    8.5427227215397394E+00 
    1.1233220903896060E+01 
    1.2920685159069929E+01 
    1.4194920974511264E+01 
    6.2099710404542261E+00 
    1.1701860154336821E+01 
    9.8708629709451436E+00 
    5.5495663281848850E+00 
    8.5239674559597631E+00 
    1.1736157046526660E+01 
    1.3235062202705935E+01 
    9.4372574821241297E+00 
    1.3338217466499309E+01 
    1.3119397977109331E+01 
    1.3071999595839873E+01 
    9.2670067552045516E+00 
    8.1511796622583521E+00 
    1.2933101265483295E+01 
    8.2631435175527823E+00 
    9.5265712329801477E+00 
    8.1103707661912328E+00 
    9.3934638276355233E+00 
    1.3279374643615176E+01 
    5.8822485494656878E+00 
    8.4453445868562191E+00 
    1.3825225316274892E+01 
    9.2800259329306130E+00 
    1.0583616132043884E+01 
    6.0353271141528024E+00 
    8.3145945636383658E+00 
    1.3099451470751031E+01 
    1.3390326028353009E+01 
    4.9447571922920943E+00 
    9.2847406438550095E+00 
    8.1529508537323778E+00 
    1.4597071117763502E+01 
    1.4083839897299761E+01 
    1.4844034236545653E+01 
    9.3054479771013874E+00 
    1.3254201649142413E+01 
    1.2880525308181236E+01 
    9.1804440638304730E+00 
    1.2925504178603259E+01 
    9.7819971555710872E+00 
    5.6094573330151754E+00 
    9.6075660419053683E+00 
    1.3810269824280230E+01 
    1.2922490123531611E+01 
    6.3734624364225345E+00 
    1.2949988887385651E+01 
    1.0487631013812004E+01 
    9.5417786561331237E+00 
    9.0867581787232812E+00 
    1.2798585633872289E+01 
    1.0048532571338260E+01 
    1.2937825358825521E+01 
    9.2401324953209212E+00 
    5.7754109561273150E+00 
    9.5965617958703575E+00 
    8.0144112756238250E+00 
    1.1836234693595934E+01 
    1.4001416512462315E+01 
    1.2931605971067567E+01 
    1.3883768401009860E+01 
    9.2286887446932848E+00 
    6.2245788716007864E+00 
    6.3091466097094342E+00 
    9.7222168968527054E+00 
    9.5030785291660234E+00 
    1.4120049501817207E+00 
    1.2467957222873240E+01 
    1.4334906188092354E+01 
    8.9607879632686025E+00 
    5.8479382555214778E+00 
    1.0906576726664834E+01 
    1.2948657142376236E+01 
    6.8745874939694698E+00 
    4.7312988599739301E+00 
    9.4786857185619269E+00 
    1.3027385235428891E+01 
    1.3636328694018504E+01 
    1.3538036725504499E+01 
    1.3393359231419110E+01 
    6.7322681254463319E+00 
    9.5331743903754962E+00 
    1.2514769787334895E+01 
    7.4032063648146060E+00 
    1.3217860622475467E+01 
    1.1460608070502230E+01 
    6.3967400887032815E+00 
    1.3050685639444387E+01 
    1.3902053439053406E+01 
    1.3069551857467118E+01 
    6.6296823107520373E+00 
    9.5533464555536796E+00 
    7.2601104549314002E+00 
    9.0036381826664051E+00 
    1.2940665214173212E+01 
    1.2929698983403265E+01 
    6.6668177385132061E+00 
    1.3771918958906506E+01 
    1.0075215799172964E+01 
    1.2962167760963178E+01 
    1.3742155821642635E+01 
    1.2950019959078803E+01 
    1.2059182486054178E+01 
    1.4646186190013616E+01 
    8.9282005955724699E+00 
    1.3854963256615228E+01 
    1.2988892007334124E+01 
    1.3923298816773384E+01 
    1.3765094964347634E+01 
    9.0181069970728611E+00 
    9.3722973188393119E+00 
    8.9514024177594838E+00 
    1.1597132200022857E+01 
    3.8713722502954391E+00 
    9.6596011290408299E+00 
    1.4766809361791426E+01 
    9.7804214217517043E+00 
    9.9579831423354754E+00 
    1.3897411264945948E+01 
    1.4121513625321281E+01 
    8.8851252356920192E+00 
    1.2954032254021730E+01 
    1.2926491127261054E+01 
    9.9462396762468526E+00 
    1.3721983012599129E+01 
    6.7213140429892446E+00 
    4.3243600396552404E+00 
    1.0212396410635373E+01 
    9.7945762832255507E+00 
    1.2931556435581653E+01 
    6.2528726756299697E+00 
    1.3457426532910427E+01 
    4.4131557167264130E+00 
    9.7299148686750865E+00 
    9.0761834597562085E+00 
    9.5296574830496237E+00 
    1.6011353628655222E+01 
    3.7625391902320362E+00 
    9.5773415961308821E+00 
    1.1367238342130511E+01 
    9.1345437455473242E+00 
    7.3369023048982784E+00 
    1.3564144243617413E+01 
    1.5597160445849212E+01 
    1.3707381319906581E+01 
    9.5200954893094476E+00 
    5.5222356853458816E+00 
    1.5449488486830885E+01 
    1.3199258209022425E+01 
    6.9659283317056877E+00 
    9.1433250320503596E+00 
    1.4288751682137589E+01 
    3.1922120260319651E+00 
    9.8418153459844540E+00 
    1.3674854858787297E+01 
    9.5429486356907134E+00 
    8.2869287074395324E+00 
    9.6169142820545908E+00 
    1.2730184084154899E+01 
    9.5236651971207635E+00 
    4.9360773307917922E+00 
    9.0094811419465548E-01 
    7.0588799879953772E+00 
    1.4495351647260613E+01 
    8.9495970420912485E+00 
    1.0881218949912009E+01 
    1.0352677740892338E+01 
    1.1974029636785041E+01 
    9.5565223650964199E+00 
    1.3114851657450902E+01 
    1.6025077694402235E+01 
    1.1298868460177307E+01 
    1.3828630171674906E+01 
    5.3317196901190245E-01 
    1.2931507525924767E+01 
    5.4174692279623580E+00 
    1.4927958154483106E+01 
    9.5908876837472459E+00 
    8.4180682074608004E+00 
    7.3972583765616537E+00 
    5.1747158993170261E+00 
    1.0668102133301439E+01 
    7.4817146327855406E+00 
    1.1737244194870581E+01 
    2.1620748066244899E+00 
    1.0520560853532199E+01 
    1.2868459120429085E+01 
    5.7298848743644397E+00 
    1.3403286213506144E+01 
    1.4755135728479965E+01 
    1.3240984129534251E+01 
    9.4618855749970159E+00 
    9.5245773466270922E+00 
    9.5836303479944203E+00 
    5.5909006105531533E+00 
    8.7007776833500650E+00 
    8.5622914942309158E+00 
    9.5727689941736216E+00 
    8.8916558811619755E+00 
    6.7626075743814984E-01 
    6.1835816054067489E+00 
    9.2565913475263599E+00 
    9.5487211309131332E+00 
    1.2059934908522134E+01 
    2.0860897317353881E+00 
    9.9081462559811104E+00 
    9.7989653434751816E+00 
    3.6209568517576973E+00 
    1.3111693526864896E+01 
    8.2829643537621180E+00 
    9.6596639139485614E+00 
    1.3197204934742292E+01 
    5.1934616396158431E+00 
    1.3231042544639392E+01 
    8.3789133781438743E+00 
    9.4719670144394208E-01 
    9.0071895009834613E+00 
    1.3782455875014668E+01 
    1.2931738407951286E+01 
    1.2950515092093552E+01 
    9.9263150627392918E+00 
    9.7344829514511897E+00 
    8.2603173414820859E+00 
    6.7042313621043110E+00 
    1.3300186961419191E+01 
    9.1432462505864560E+00 
    6.4835760793790440E+00 
    1.2945298654286086E+01 
    1.3607322574627016E+01 
    9.7446542552872515E+00 
    9.3270223467109954E+00 
    1.5910000632640900E+01 
    9.9470707884977951E+00 
    1.3316133926313869E+01 
    7.8708777845328353E+00 
    1.6053021086053434E+01 
    6.2720486320785973E+00 
    8.6480172120925154E+00 
    7.0079373515679242E+00 
    1.0164785665016851E+01 
    8.0609591430405594E+00 
    1.6037043156230926E+01 
    9.9923454584824167E+00 
    1.2668722027410803E+01 
    6.4467537607237162E+00 
    9.5531359229246124E+00 
    1.3167048031521915E+01 
    8.0760451340755637E+00 
    6.9801229687829629E+00 
    1.0577823090940040E+01 
    1.3383578404178614E+01 
    6.9204421870061523E+00 
    9.0944111136863146E+00 
    9.3561118812359254E+00 
    1.2908631531638612E+01 
    9.1602728291456827E+00 
    1.3356894790542691E+01 
    1.3950797667291694E+01 
    8.2850427144697054E+00 
    8.1293562174695104E+00 
    7.5174472178480363E+00 
    1.3046451955664232E+01 
    9.8186574351755365E+00 
    1.5632399936829726E+01 
    1.2260201859488369E+01 
    1.3129696702128081E+01 
    1.5328537425005932E+01 
    1.4756686909101877E+01 
    9.6009797858894768E+00 
    9.5581442086822221E+00 
    1.2709699191870255E+01 
    1.2966909036145934E+01 
    1.3463995262888874E+01 
    1.3219144188935998E+01 
    1.5929411859584095E+01 
    9.9466313284628942E+00 
    8.3783374164318847E+00 
    9.9528337009827013E+00 
    1.3868517757273315E+01 
    9.7031344384101352E+00 
    5.6273763879315526E+00 
    9.4465070081752760E+00 
    1.4260276887590312E+01 
    9.8328918092204578E+00 
    8.3808835727558613E+00 
    9.2965939862658988E+00 
    1.4363765674565000E+01 
    1.2982918711972879E+01 
    7.9911951733359041E+00 
    1.4495901757529936E+01 
    9.6323013500319732E+00 
    1.3455386190398009E+01 
    1.4378269575811325E+01 
    1.0186398016941194E+01 
    5.1975393358618263E+00 
    1.0581239359232926E+01 
    5.3700033234064248E+00 
    9.7516817891120766E+00 
    9.5442508878318559E+00 
    1.1115660531727475E+01 
    5.6677146083003178E+00 
    1.1779415764421600E+01 
    9.5655565237691764E+00 
    1.3209552211831225E+01 
    1.0118850233222656E+01 
    7.8124498691467705E+00 
    9.1737593414850434E+00 
    1.0081405857657762E+01 
    1.0045041438901496E+01 
    1.3992894974739661E+01 
    8.0242853218850545E+00 
    7.8897148731383773E+00 
    5.9495730815274550E+00 
    1.3488851298485798E+01 
    9.2143735958546777E+00 
    1.2797166060876295E+01 
    9.5146218784459489E+00 
    6.4874037899853931E+00 
    1.3013428045013658E+01 
    9.4895609477948728E+00 
    7.0514259459717961E+00 
    7.4533486188799927E+00 
    7.7060914309782529E+00 
    1.3238785375967954E+01 
    9.5747087916744107E+00 
    1.3839173226985311E+01 
    9.4474991184518426E+00 
    9.3847246414097647E+00 
    9.0156672602191854E+00 
    1.3089215263915335E+01 
    9.3014115140919102E+00 
    7.7437959052309102E+00 
    1.4743673219649841E+01 
    1.3163996374622668E+01 
    6.5662771336883177E+00 
    2.6525875402821995E+00 
    9.5641611825878723E+00 
    8.9124530992678910E+00 
    8.1268410827309587E+00 
    8.8312825270252269E+00 
    1.3122204977121237E+01 
    9.2854605169421713E+00 
    8.4313261920057201E+00 
    1.2987823744981354E+01 
    6.5101112932439085E+00 
    1.2672620584025653E+01 
    8.6047220576926247E+00 
    7.7024688208016556E+00 
    8.1994070415932541E+00 
    1.3535541136891789E+01 
    9.5327374817808188E+00 
    9.5407531450037286E+00 
    5.7451424925124481E+00 
    6.1913961806685505E+00 
    1.2100444316371282E+01 
    9.5507263597845498E+00 
    9.6037764283062881E+00 
    1.4479718474758689E+01 
    7.8879019664985774E+00 
    9.5635296717097749E+00 
    6.7370981228598019E+00 
    6.9565216023142558E+00 
    1.3084597484499298E+01 
    9.1910714444432546E+00 
    6.8010070980182569E+00 
    1.0071140766979894E+01 
    9.4325807835241644E+00 
    1.3086944551614582E+01 
    1.4568621791058444E+01 
    1.0264942319832939E+00 
    9.5689354994617428E+00 
    9.7927758375880209E+00 
    1.3144886963760122E+01 
    9.0750527440708879E+00 
    9.5067738622502009E+00 
    1.4044225405262061E+01 
    8.2281454906223512E+00 
    6.8595729678707604E+00 
    1.1521927813329746E+01 
    1.2944638339702744E+01 
    1.3923623625854667E+01 
    1.4169504302788425E+01 
    9.4161702274158827E+00 
    9.5609971696365257E+00 
    1.0732487705791137E+01 
    6.2429041355468335E+00 
    1.3063962833703895E+01 
    7.3707232127437763E+00 
    6.4992126144113866E+00 
    1.1971092129566065E+01 
    1.1257003955454357E+01 
    6.3732430890566318E+00 
    1.2979208903400810E+01 
    1.3909483530971691E+01 
    9.9615193888310838E+00 
    1.4665202088911563E+01 
    1.3010367189449090E+01 
    9.1513082211096446E+00 
    1.3657996665758072E+01 
    6.9556400765078514E+00 
    1.2961731697298806E+01 
    9.5680507011983327E+00 
    9.5288459600616360E+00 
    1.4640825774954198E+01 
    9.2469970998761184E+00 
    1.1698969933374965E+01 
    8.1809051933387789E+00 
    1.4020380649149233E+01 
    1.2874336493144835E+01 
    8.5181862958558909E+00 
    1.2922032425943454E+01 
    8.5965914336481237E+00 
    9.5165574453647448E+00 
    1.3870811857618330E+01 
    1.3214389272740689E+01 
    1.3912729692907931E+01 
    1.3148224753933409E+01 
    8.7140557001118371E+00 
    8.9257258869361564E+00 
    1.3918807589575074E+01 
    9.0414829445155309E+00 
    1.2809650385414686E+01 
    9.2362711860860358E+00 
    3.9016666916627902E+00 
    6.5654617634738992E+00 
    6.0874899011111641E+00 
    1.3873904036240571E+01 
    1.4574069015021498E+01 
    1.2939332249955934E+01 
    1.1011227077122134E+01 
    1.3214315017387646E+01 
    1.2984951282086056E+01 
    1.3539757710478797E+01 
    5.5557064839318322E+00 
    3.6389001562715872E+00 
    1.0814150612057668E+01 
    9.2309029416861534E+00 
    1.3123708385530028E+01 
    1.3121312752256500E+01 
    9.8134592392552307E+00 
    1.3156404967925894E+01 
    9.5555431126745081E+00 
    9.4607298071868922E+00 
    5.0334349679352650E+00 
    3.6264428460836267E+00 
    1.4359880376178289E+01 
    7.3950203721435752E+00 
    8.4591888465686544E+00 
    9.7100384523247936E+00 
    1.5910932630445567E+01 
    9.8017447190007445E+00 
    9.8717830109569285E+00 
    4.0972055719976739E+00 
    9.8030750391474299E+00 
    9.8163944974711477E+00 
    1.3435592254965751E+01 
    8.2065849862927340E+00 
    9.0998400664049921E+00 
    1.4521421833477010E+01 
    9.5770340020100484E+00 
    1.2954421176338313E+01 
    1.3204032678943225E+01 
    1.1740280437787669E+01 
    8.0512322097762894E+00 
    1.3148052465630366E+01 
    9.3709839698868311E+00 
    1.3128116304663004E+01 
    1.2895812675857929E+01 
    1.3892368815116631E+01 
    1.3145088110662742E+01 
    1.2335098052561834E+01 
    9.5662403770559585E+00 
    6.3253659467309893E+00 
    1.5788465269488254E+01 
    7.5201287192645330E+00 
    1.3815679856939305E+01 
    9.5636748527995099E+00 
    7.9385879332539249E+00 
    4.7523264277441877E+00 
    9.8511636268176268E+00 
    1.3135425148765895E+01 
    1.3132541410548512E+01 
    9.4974312438623461E+00 
    9.5578915236788831E+00 
    1.4721861636367530E+01 
    1.4115723066876864E+01 
    9.8192338220837527E+00 
    3.3872144358294456E+00 
    1.2306104250209978E+01 
    1.6035278393179020E+01 
    9.5695287318466953E+00 
    1.1364389946778751E+01 
    9.0719142766154821E+00 
    1.5651615698868312E+01 
    1.4192979713608423E+01 
    1.3947151224993236E+01 
    9.8396600273582084E+00 
    4.4408379529013491E+00 
    9.0321061466797605E+00 
    9.0963915528068302E+00 
    9.1417909534719772E+00 
    3.6780153088259553E+00 