# vtk DataFile Version 2.0
Pressure Field Data 
ASCII 
DATASET UNSTRUCTURED_GRID 

POINTS 2860 double 

    0.0000000000000000E+00     0.0000000000000000E+00     0.0000000000000000E+00 
    1.0000000000000000E+00     0.0000000000000000E+00     0.0000000000000000E+00 
    1.0000000000000000E+00     1.0000000000000000E+00     0.0000000000000000E+00 
    0.0000000000000000E+00     1.0000000000000000E+00     0.0000000000000000E+00 
    2.5000000000000000E-01     2.5000000000000000E-01     0.0000000000000000E+00 
    7.5000000000000000E-01     2.5000000000000000E-01     0.0000000000000000E+00 
    7.5000000000000000E-01     7.5000000000000000E-01     0.0000000000000000E+00 
    2.5000000000000000E-01     7.5000000000000000E-01     0.0000000000000000E+00 
    3.1249999999942091E-02     0.0000000000000000E+00     0.0000000000000000E+00 
    6.2499999999873469E-02     0.0000000000000000E+00     0.0000000000000000E+00 
    9.3749999999826514E-02     0.0000000000000000E+00     0.0000000000000000E+00 
    1.2499999999977961E-01     0.0000000000000000E+00     0.0000000000000000E+00 
    1.5624999999968961E-01     0.0000000000000000E+00     0.0000000000000000E+00 
    1.8749999999959971E-01     0.0000000000000000E+00     0.0000000000000000E+00 
    2.1874999999950970E-01     0.0000000000000000E+00     0.0000000000000000E+00 
    2.4999999999941969E-01     0.0000000000000000E+00     0.0000000000000000E+00 
    2.8124999999932920E-01     0.0000000000000000E+00     0.0000000000000000E+00 
    3.1249999999923850E-01     0.0000000000000000E+00     0.0000000000000000E+00 
    3.4374999999914790E-01     0.0000000000000000E+00     0.0000000000000000E+00 
    3.7499999999905720E-01     0.0000000000000000E+00     0.0000000000000000E+00 
    4.0624999999896660E-01     0.0000000000000000E+00     0.0000000000000000E+00 
    4.3749999999887590E-01     0.0000000000000000E+00     0.0000000000000000E+00 
    4.6874999999878530E-01     0.0000000000000000E+00     0.0000000000000000E+00 
    4.9999999999869471E-01     0.0000000000000000E+00     0.0000000000000000E+00 
    5.3124999999877620E-01     0.0000000000000000E+00     0.0000000000000000E+00 
    5.6249999999885780E-01     0.0000000000000000E+00     0.0000000000000000E+00 
    5.9374999999893940E-01     0.0000000000000000E+00     0.0000000000000000E+00 
    6.2499999999902101E-01     0.0000000000000000E+00     0.0000000000000000E+00 
    6.5624999999910261E-01     0.0000000000000000E+00     0.0000000000000000E+00 
    6.8749999999918421E-01     0.0000000000000000E+00     0.0000000000000000E+00 
    7.1874999999926570E-01     0.0000000000000000E+00     0.0000000000000000E+00 
    7.4999999999934730E-01     0.0000000000000000E+00     0.0000000000000000E+00 
    7.8124999999942890E-01     0.0000000000000000E+00     0.0000000000000000E+00 
    8.1249999999951039E-01     0.0000000000000000E+00     0.0000000000000000E+00 
    8.4374999999959199E-01     0.0000000000000000E+00     0.0000000000000000E+00 
    8.7499999999967359E-01     0.0000000000000000E+00     0.0000000000000000E+00 
    9.0624999999975520E-01     0.0000000000000000E+00     0.0000000000000000E+00 
    9.3749999999983680E-01     0.0000000000000000E+00     0.0000000000000000E+00 
    9.6874999999991840E-01     0.0000000000000000E+00     0.0000000000000000E+00 
    1.0000000000000000E+00     3.1249999999942091E-02     0.0000000000000000E+00 
    1.0000000000000000E+00     6.2499999999873469E-02     0.0000000000000000E+00 
    1.0000000000000000E+00     9.3749999999826514E-02     0.0000000000000000E+00 
    1.0000000000000000E+00     1.2499999999977961E-01     0.0000000000000000E+00 
    1.0000000000000000E+00     1.5624999999968961E-01     0.0000000000000000E+00 
    1.0000000000000000E+00     1.8749999999959971E-01     0.0000000000000000E+00 
    1.0000000000000000E+00     2.1874999999950970E-01     0.0000000000000000E+00 
    1.0000000000000000E+00     2.4999999999941969E-01     0.0000000000000000E+00 
    1.0000000000000000E+00     2.8124999999932920E-01     0.0000000000000000E+00 
    1.0000000000000000E+00     3.1249999999923850E-01     0.0000000000000000E+00 
    1.0000000000000000E+00     3.4374999999914790E-01     0.0000000000000000E+00 
    1.0000000000000000E+00     3.7499999999905720E-01     0.0000000000000000E+00 
    1.0000000000000000E+00     4.0624999999896660E-01     0.0000000000000000E+00 
    1.0000000000000000E+00     4.3749999999887590E-01     0.0000000000000000E+00 
    1.0000000000000000E+00     4.6874999999878530E-01     0.0000000000000000E+00 
    1.0000000000000000E+00     4.9999999999869471E-01     0.0000000000000000E+00 
    1.0000000000000000E+00     5.3124999999877620E-01     0.0000000000000000E+00 
    1.0000000000000000E+00     5.6249999999885780E-01     0.0000000000000000E+00 
    1.0000000000000000E+00     5.9374999999893940E-01     0.0000000000000000E+00 
    1.0000000000000000E+00     6.2499999999902101E-01     0.0000000000000000E+00 
    1.0000000000000000E+00     6.5624999999910261E-01     0.0000000000000000E+00 
    1.0000000000000000E+00     6.8749999999918421E-01     0.0000000000000000E+00 
    1.0000000000000000E+00     7.1874999999926570E-01     0.0000000000000000E+00 
    1.0000000000000000E+00     7.4999999999934730E-01     0.0000000000000000E+00 
    1.0000000000000000E+00     7.8124999999942890E-01     0.0000000000000000E+00 
    1.0000000000000000E+00     8.1249999999951039E-01     0.0000000000000000E+00 
    1.0000000000000000E+00     8.4374999999959199E-01     0.0000000000000000E+00 
    1.0000000000000000E+00     8.7499999999967359E-01     0.0000000000000000E+00 
    1.0000000000000000E+00     9.0624999999975520E-01     0.0000000000000000E+00 
    1.0000000000000000E+00     9.3749999999983680E-01     0.0000000000000000E+00 
    1.0000000000000000E+00     9.6874999999991840E-01     0.0000000000000000E+00 
    9.6875000000003686E-01     1.0000000000000000E+00     0.0000000000000000E+00 
    9.3750000000011691E-01     1.0000000000000000E+00     0.0000000000000000E+00 
    9.0625000000015765E-01     1.0000000000000000E+00     0.0000000000000000E+00 
    8.7500000000017863E-01     1.0000000000000000E+00     0.0000000000000000E+00 
    8.4375000000028044E-01     1.0000000000000000E+00     0.0000000000000000E+00 
    8.1250000000040856E-01     1.0000000000000000E+00     0.0000000000000000E+00 
    7.8125000000054956E-01     1.0000000000000000E+00     0.0000000000000000E+00 
    7.5000000000066480E-01     1.0000000000000000E+00     0.0000000000000000E+00 
    7.1875000000086831E-01     1.0000000000000000E+00     0.0000000000000000E+00 
    6.8750000000102829E-01     1.0000000000000000E+00     0.0000000000000000E+00 
    6.5625000000114431E-01     1.0000000000000000E+00     0.0000000000000000E+00 
    6.2500000000129829E-01     1.0000000000000000E+00     0.0000000000000000E+00 
    5.9375000000147926E-01     1.0000000000000000E+00     0.0000000000000000E+00 
    5.6250000000168354E-01     1.0000000000000000E+00     0.0000000000000000E+00 
    5.3125000000188671E-01     1.0000000000000000E+00     0.0000000000000000E+00 
    5.0000000000205835E-01     1.0000000000000000E+00     0.0000000000000000E+00 
    4.6875000000192979E-01     1.0000000000000000E+00     0.0000000000000000E+00 
    4.3750000000180111E-01     1.0000000000000000E+00     0.0000000000000000E+00 
    4.0625000000167238E-01     1.0000000000000000E+00     0.0000000000000000E+00 
    3.7500000000154382E-01     1.0000000000000000E+00     0.0000000000000000E+00 
    3.4375000000141509E-01     1.0000000000000000E+00     0.0000000000000000E+00 
    3.1250000000128642E-01     1.0000000000000000E+00     0.0000000000000000E+00 
    2.8125000000115769E-01     1.0000000000000000E+00     0.0000000000000000E+00 
    2.5000000000102918E-01     1.0000000000000000E+00     0.0000000000000000E+00 
    2.1875000000090050E-01     1.0000000000000000E+00     0.0000000000000000E+00 
    1.8750000000077180E-01     1.0000000000000000E+00     0.0000000000000000E+00 
    1.5625000000064329E-01     1.0000000000000000E+00     0.0000000000000000E+00 
    1.2500000000051459E-01     1.0000000000000000E+00     0.0000000000000000E+00 
    9.3750000000385914E-02     1.0000000000000000E+00     0.0000000000000000E+00 
    6.2500000000257239E-02     1.0000000000000000E+00     0.0000000000000000E+00 
    3.1250000000128557E-02     1.0000000000000000E+00     0.0000000000000000E+00 
    0.0000000000000000E+00     9.6875000000003686E-01     0.0000000000000000E+00 
    0.0000000000000000E+00     9.3750000000011691E-01     0.0000000000000000E+00 
    0.0000000000000000E+00     9.0625000000015765E-01     0.0000000000000000E+00 
    0.0000000000000000E+00     8.7500000000017863E-01     0.0000000000000000E+00 
    0.0000000000000000E+00     8.4375000000028044E-01     0.0000000000000000E+00 
    0.0000000000000000E+00     8.1250000000040856E-01     0.0000000000000000E+00 
    0.0000000000000000E+00     7.8125000000054956E-01     0.0000000000000000E+00 
    0.0000000000000000E+00     7.5000000000066480E-01     0.0000000000000000E+00 
    0.0000000000000000E+00     7.1875000000086831E-01     0.0000000000000000E+00 
    0.0000000000000000E+00     6.8750000000102829E-01     0.0000000000000000E+00 
    0.0000000000000000E+00     6.5625000000114431E-01     0.0000000000000000E+00 
    0.0000000000000000E+00     6.2500000000129829E-01     0.0000000000000000E+00 
    0.0000000000000000E+00     5.9375000000147926E-01     0.0000000000000000E+00 
    0.0000000000000000E+00     5.6250000000168354E-01     0.0000000000000000E+00 
    0.0000000000000000E+00     5.3125000000188671E-01     0.0000000000000000E+00 
    0.0000000000000000E+00     5.0000000000205835E-01     0.0000000000000000E+00 
    0.0000000000000000E+00     4.6875000000192979E-01     0.0000000000000000E+00 
    0.0000000000000000E+00     4.3750000000180111E-01     0.0000000000000000E+00 
    0.0000000000000000E+00     4.0625000000167238E-01     0.0000000000000000E+00 
[...]
CELL_DATA 2795 
SCALARS Pressure double 1 
LOOKUP_TABLE default 

    7.6754063912384725E+00 
    1.6841180780781919E+01 
    1.1868664006474539E+01 
    1.1582739811843576E+01 
    9.3732279133532579E+00 
    1.6671932530105387E+01 
    1.7491649376144697E+01 
    6.8786079058667209E+00 
    1.2419133470680297E+01 
    9.6138692682508076E+00 
    8.2543053900768726E+00 
    1.6378136615215837E+01 
    1.6757866604461352E+01 
    1.6637117931431469E+01 
    1.0970888062498545E+01 
    6.7652021682541346E+00 
    1.0764274626449877E+01 
    8.7631313020413479E+00 
    1.5968448438687455E+01 
    1.1850785331504991E+01 
    1.1749921176123648E+01 
    1.6560699587963036E+01 
    1.1299972296241405E+01 
    4.5486480265281187E-01 
    1.6387403138297174E+01 
    1.6706026864299364E+01 
    1.7526490447457729E+01 
    8.0146077141612153E+00 
    1.6289398537304073E+01 
    1.7508587285174720E+01 
    1.2044176745045368E+01 
    1.2052133687692384E+01 
    8.7326082889677412E+00 
    1.1832383259505573E+01 
    3.9773541788348781E+00 
    1.0765089096175393E+01 
    1.1818545567896951E+01 
    1.7551129540901471E+01 
    1.7466351373312644E+01 
    1.6392497904407428E+01 
    9.3643096462991888E+00 
    1.6385167879564136E+01 
    9.5018973105498383E-01 
    1.1829011587075893E+01 
    1.7281614891141853E+01 
    1.7012544442701955E+01 
    1.6366167398379318E+01 
    1.2795618045332390E+01 
    1.6424796638305335E+01 
    1.0997326968364229E+01 
    1.0513443503273042E+01 
    1.2016477516758421E+01 
    1.1727886142501704E+01 
    1.0830532064277868E+01 
    1.2117902451877706E+01 
    1.5731591496590735E+01 
    1.3859348668772798E+01 
    9.4217727343884388E+00 
    1.6567358598006535E+01 
    1.6477589659252516E+01 
    1.1563125219989232E+01 
    1.1436551500680974E+01 
    1.1482332978367147E+01 
    1.7402064073249939E+01 
    1.7699277158300760E+01 
    1.0782053985326145E+01 
    1.2014962226456873E+01 
    1.6142427213076612E+01 
    1.3779311490672857E+01 
    1.1488825674228776E+01 
    1.7698019301228129E+01 
    1.6542536042080137E+01 
    1.0638454599016711E+01 
    1.7130364047453551E+01 
    1.2365162078304206E+01 
    1.6186661264282460E+01 
    1.7571782409880829E+01 
    1.2395682456764543E+01 
    7.8083670889288355E+00 
    1.2032929444500803E+01 
    1.7476061005034275E+01 
    1.7719752538511290E+01 
    1.0779123563631968E+01 
    1.1960054905525793E+01 
    1.7774765367470835E+01 
    1.1817527554237014E+01 
    1.1391609784016948E+01 
    1.4312872020977299E+01 
    7.4824584014730853E+00 
    1.0547576461946232E+01 
    1.1957302805962470E+01 
    1.2575482989416269E+01 
    1.9305819291553956E+01 
    9.1163383120303632E+00 
    1.2022726487777023E+01 
    1.6341487374973088E+01 
    1.6702281945851411E+01 
    8.0625194462018506E+00 
    1.1682930577621482E+01 
    1.1990776338856170E+01 
    1.6726653807633337E+01 
    1.1981579219998592E+01 
    1.6648380322560534E+01 
    4.9436102097456320E+00 
    8.0233020029530859E+00 
    1.2237922378671735E+01 
    1.6847964755052114E+01 
    1.0729387488782528E+01 
    1.1322520540564353E+01 
    1.1960401839257679E+01 
    1.1358835518276734E+01 
    1.3464830558994153E+01 
    1.1041753426281254E+01 
    1.0647976138306593E+01 
    8.4992572164113387E+00 
    1.4148443080745842E+01 
    1.2057622924622436E+01 
    1.7308993771118669E+01 
    1.0406934914516912E+01 
    1.1563333574509411E+01 
    1.6529499010958435E+01 
    9.8242599969823381E+00 
    1.7023689664732874E+01 
    1.1889278139930447E+01 
    1.1491843216154288E+01 
    1.6705914163610537E+01 
    1.2045137799377684E+01 
    1.7582970791449128E+01 
    1.4377485097507254E+01 
    1.5543267211927438E+01 
    1.7544966070964712E+01 
    9.1329331110816749E+00 
    1.2260112767707181E+01 
    1.6697873683700632E+01 
    3.6910512465255234E+00 
    1.2095131261225983E+01 
    1.7507864687087586E+01 
    1.1520354980199176E+01 
    1.3142584769454626E+01 
    8.0017311025321867E+00 
    1.6336519235249344E+01 
    1.9798485910403134E+01 
    1.4919062745144299E+01 
    1.1520784411927607E+01 
    1.0421599177842179E+01 
    1.2793944074141637E+01 
    1.1905973913635199E+01 
    8.3671593440346026E+00 
    1.7538566166534682E+01 
    1.6699839979099863E+01 
    1.6343204095109012E+01 
    1.2567228086182583E+01 
    1.0612401777687555E+01 
    1.1745660198309013E+01 
    1.7169963776470443E+01 
    1.0874404815052131E+01 
    1.1996903212372548E+01 
    1.1047284032214254E+01 
    1.3905223296368899E+01 
    1.9786418007028715E+01 
    1.6334327668922342E+01 
    1.0612229997239757E+01 
    1.6917063764444574E+01 
    1.6804527281242734E+01 
    1.6891033763667124E+01 
    1.7986082264804956E+01 
    1.8560345427288890E+01 
    1.7000405084664017E+01 
    1.2006782860880358E+01 
    1.2936031361148183E+01 
    1.6815223004304688E+01 
    1.7324193567449953E+01 
    8.7385067019668128E+00 
    1.6365836540554128E+01 
    1.7131038870215363E+01 
    8.4966973885093076E+00 
    1.7904349759851261E+01 
    1.7875822088515246E+01 
    1.6042064971939666E+01 
    1.2333694971737136E+01 
    3.2951107705771001E+00 
    1.7507493108182349E+01 
    1.2178395511926535E+01 
    1.7642028550618271E+01 
    1.1447773552139271E+01 
    1.7302872044466614E+01 
    1.1852712230117448E+00 
    1.5522345874921310E+01 
    1.1482310099730904E+01 
    1.0565982888327566E+01 
    1.0306667675377646E+01 
    1.1857988792487435E+01 
    1.3053621630109944E+01 
    1.2464057061085443E+01 
    8.5821249935194786E+00 
    1.7315029182988471E+01 
    1.6718970832268703E+01 
    1.3881358422912603E+01 
    1.2230080874783308E+01 
    1.8711695979813709E+00 
    9.5426699119193188E+00 
    6.7019031266928666E+00 
    1.7521259978152965E+01 
    1.3293389205403358E+01 
    1.6722702753824851E+01 
    1.6795042985991042E+01 
    1.0951173887103801E+01 
    1.3866469310456246E+01 
    1.6337595143578870E+01 
    1.7860893884546901E+01 
    8.0036279483864750E+00 
    1.4759813138404267E+01 
    1.2423705810939369E+01 
    7.1196380305013243E+00 
    1.0948289881492535E+01 
    1.4487944575562734E+01 
    1.6750904868543866E+01 
    1.1908626905729069E+01 
    1.6869167287267114E+01 
    1.6616504473871210E+01 
    1.6557839339536834E+01 
    1.1749582242443690E+01 
    1.0449649846493868E+01 
    1.6351652112448988E+01 
    1.0632677171106916E+01 
    1.1989626210443529E+01 
    1.0442827563252404E+01 
    1.1951952420006887E+01 
    1.6806895193803257E+01 
    7.5734565031742020E+00 
    1.0851745472008133E+01 
    1.7432643812419435E+01 
    1.1758164381702624E+01 
    1.3181359243358298E+01 
    7.7683889380111557E+00 
    1.0695979617641845E+01 
    1.6593566875041859E+01 
    1.6929066407765529E+01 
    6.3682418843135045E+00 
    1.1770039147778837E+01 
    1.0502893825931856E+01 
    1.8316055135573482E+01 
    1.7731889944503362E+01 
    1.8589837999188749E+01 
    1.1789831555754942E+01 
    1.6774245177718267E+01 
    1.6283527469997377E+01 
    1.1651373762087641E+01 
    1.6343928057325979E+01 
    1.2231389145881067E+01 
    7.2019860362271082E+00 
    1.2137138249097733E+01 
    1.7415148714184248E+01 
    1.6340473521234969E+01 
    8.2511175611527783E+00 
    1.6373675845746202E+01 
    1.3081008884270448E+01 
    1.2074137013243764E+01 
    1.1597445952701024E+01 
    1.6190859089054907E+01 
    1.2620631573658873E+01 
    1.6357854722182161E+01 
    1.1764744432131691E+01 
    7.4392387427583699E+00 
    1.2067787082710385E+01 
    1.0314636638587418E+01 
    1.4982861604522206E+01 
    1.7637897695617216E+01 
    1.6348752916062232E+01 
    1.7500569763108146E+01 
    1.1700617810332291E+01 
    8.0164994204528952E+00 
    8.1228274336965978E+00 
    1.2270259664579571E+01 
    1.1962229618068703E+01 
    1.8318376747985694E+00 
    1.5765973245281092E+01 
    1.8024941326676867E+01 
    1.1463655211533052E+01 
    7.5236389732339770E+00 
    1.3715501928530108E+01 
    1.6371811010612337E+01 
    8.8449637095103473E+00 
    6.0669116571818478E+00 
    1.1945923621207125E+01 
    1.6452322251647960E+01 
    1.7212734340728495E+01 
    1.7057555807425338E+01 
    1.6930211116126973E+01 
    8.7206679425904419E+00 
    1.2067841270553764E+01 
    1.5843200324951674E+01 
    9.4448051650086136E+00 
    1.6743389279426893E+01 
    1.4120118879221625E+01 
    8.2279232315841195E+00 
    1.6476819727264186E+01 
    1.7537595228015867E+01 
    1.6547005398038113E+01 
    8.5261909314193183E+00 
    1.2011104145982680E+01 
    9.3461520982510802E+00 
    1.1359781996535087E+01 
    1.6362401545397802E+01 
    1.6349110586836090E+01 
    8.5740985299728081E+00 
    1.7357968647281144E+01 
    1.2585120591061044E+01 
    1.6380250507196354E+01 
    1.7340640974344783E+01 
    1.6368545718149058E+01 
    1.5149637777967188E+01 
    1.8375079258485879E+01 
    1.1411353858554016E+01 
    1.7466238005437901E+01 
    1.6411175324177737E+01 
    1.7547053973819054E+01 
    1.7354741396284815E+01 
    1.1517846160846895E+01 
    1.1858043562953494E+01 
    1.1454387799927245E+01 
    1.4523589678377220E+01 
    4.9571385079185912E+00 
    1.2202943545009996E+01 
    1.8506772928340705E+01 
    1.2234466791915715E+01 
    1.2444545759316826E+01 
    1.7517122743244805E+01 
    1.7770427441819066E+01 
    1.1320813233155365E+01 
    1.6378693422102142E+01 
    1.6344290884691407E+01 
    1.2430406835866567E+01 
    1.7308767377713284E+01 
    8.6497550238266587E+00 
    5.5722579871861297E+00 
    1.2749325467352095E+01 
    1.2247953262742616E+01 
    1.6350030594124117E+01 
    8.0373662512138377E+00 
    1.6976995747324004E+01 
    5.6832432296357913E+00 
    1.2183322490699869E+01 
    1.1541688018261203E+01 
    1.1988299431621265E+01 
    1.9835917164288169E+01 
    4.8172833466184848E+00 
    1.2113921970387796E+01 
    1.4430183736951125E+01 
    1.1596634872188297E+01 
    9.5147373907004091E+00 
    1.7120503087764021E+01 
    1.9402317993732712E+01 
    1.7267375737196275E+01 
    1.2049430757780376E+01 
    7.0850744210680734E+00 
    1.9240902417075613E+01 
    1.6713839199230897E+01 
    8.9955671608410253E+00 
    1.1673396726409168E+01 
    1.7967004893598311E+01 
    4.0890839379540163E+00 
    1.2305949904641723E+01 
    1.7266833291560072E+01 
    1.2003294314287350E+01 
    1.0502819864244758E+01 
    1.2156746565171952E+01 
    1.6009443383396576E+01 
    1.1985664106631507E+01 
    6.3267960838887012E+00 
    1.1769126534962959E+00 
    9.0423263858158816E+00 
    1.8209166281937183E+01 
    1.1453532548404221E+01 
    1.3496424334619231E+01 
    1.2953561653941774E+01 
    1.4799902328072747E+01 
    1.2016773771625516E+01 
    1.6614928647171169E+01 
    1.9850159513054592E+01 
    1.4276245960258338E+01 
    1.7435147985171469E+01 
    6.8034765089548221E-01 
    1.6351397609945273E+01 
    6.9786417137006778E+00 
    1.8682136258832077E+01 
    1.2128597794852375E+01 
    1.0708363075500714E+01 
    9.5240762791297602E+00 
    6.6350038744844424E+00 
    1.3314378698226053E+01 
    9.5600491620927119E+00 
    1.4876402433427360E+01 
    2.7991557712087625E+00 
    1.3122716396142936E+01 
    1.6271699594616774E+01 
    7.3762386893360281E+00 
    1.6847883224173863E+01 
    1.8480505910192772E+01 
    1.6693332522759000E+01 
    1.1983232285958731E+01 
    1.1982360341426313E+01 
    1.2120755462698131E+01 
    7.1746666672424366E+00 
    1.1163906736908459E+01 
    1.0997807501543530E+01 
    1.2108940198470394E+01 
    1.1381422082441050E+01 
    8.7512587384960272E-01 
    7.9473847316600068E+00 
    1.1790092125414747E+01 
    1.2081909541906105E+01 
    1.5255860891880037E+01 
    2.6732720415643709E+00 
    1.2384956821743382E+01 
    1.2255423451168312E+01 
    4.6323962279118058E+00 
    1.6543142060245764E+01 
    1.0637695222364806E+01 
    1.2114489739286483E+01 
    1.6718136243462709E+01 
    6.6602094119705963E+00 
    1.6663252044713456E+01 
    1.0776514279131183E+01 
    1.2098885614901613E+00 
    1.1517959020707837E+01 
    1.7381478348834857E+01 
    1.6350876901777180E+01 
    1.6370886511838886E+01 
    1.2491570423405134E+01 
    1.2186313154550094E+01 
    1.0628687043114386E+01 
    8.6108887615802274E+00 
    1.6840194422151917E+01 
    1.1668342011182492E+01 
    8.3874605380245821E+00 
    1.6366335874685138E+01 
    1.7129143777230858E+01 
    1.2294359271208243E+01 
    1.1806155850793118E+01 
    1.9728402287887427E+01 
    1.2431480852657325E+01 
    1.6851365411753971E+01 
    1.0136201743462143E+01 
    1.9878047961627065E+01 
    8.0741826901262197E+00 
    1.1042996758594173E+01 
    9.0377933683993792E+00 
    1.2693435293985987E+01 
    1.0270573446757671E+01 
    1.9861622303609707E+01 
    1.2485855561398644E+01 
    1.5925451668138496E+01 
    8.3050510525214438E+00 
    1.2011373204895675E+01 
    1.6672788887087915E+01 
    1.0331470299918919E+01 
    8.9927351670979441E+00 
    1.3431440945179224E+01 
    1.6911029198113855E+01 
    8.8633615625642701E+00 
    1.1564816817175613E+01 
    1.1842057743967413E+01 
    1.6324039487918427E+01 
    1.1619900804948710E+01 
    1.6887480882842709E+01 
    1.7578943231615245E+01 
    1.0660482253757058E+01 
    1.0463371021094492E+01 
    9.5806562388949530E+00 
    1.6481867963196766E+01 
    1.2287291019560477E+01 
    1.9438907604731508E+01 
    1.5238560277781108E+01 
    1.6632395002469977E+01 
    1.9110942287536794E+01 
    1.8481833377939228E+01 
    1.2057756041572604E+01 
    1.2092620949301923E+01 
    1.6062292111690226E+01 
    1.6394493963319036E+01 
    1.7029938819292155E+01 
    1.6740171552118863E+01 
    1.9752016241536509E+01 
    1.2430936578817693E+01 
    1.0769679879027644E+01 
    1.2426093802239018E+01 
    1.7482622875947524E+01 
    1.2151644433792292E+01 
    7.2454971095721383E+00 
    1.1965888560888496E+01 
    1.7937323609867985E+01 
    1.2294968413732491E+01 
    1.0777848194713972E+01 
    1.1783791425474178E+01 
    1.8054263742980897E+01 
    1.6446955693415003E+01 
    1.0316695878770942E+01 
    1.8202841020419978E+01 
    1.2085776705020033E+01 
    1.7004130912310405E+01 
    1.8070145075066744E+01 
    1.2736213260014665E+01 
    6.6721096322062881E+00 
    1.3219287813956944E+01 
    6.8923225558154506E+00 
    1.2200865976675223E+01 
    1.2007743077389117E+01 
    1.3903425508073219E+01 
    7.2813208500684912E+00 
    1.4774244692307555E+01 
    1.2023999828554821E+01 
    1.6727298977130886E+01 
    1.2881818171518118E+01 
    1.0110672951416831E+01 
    1.1645531580967184E+01 
    1.2656863512861349E+01 
    1.2548363864467412E+01 
    1.7633380505167739E+01 
    1.0330548570197491E+01 
    1.0157345933188555E+01 
    7.6591316732777379E+00 
    1.7055152935613986E+01 
    1.1691370371935671E+01 
    1.6186314961986398E+01 
    1.1976790598693265E+01 
    8.3804525615381245E+00 
    1.6485079418849061E+01 
    1.1953763651076047E+01 
    9.1001392082735553E+00 
    9.6013181747141125E+00 
    9.9194455998004329E+00 
    1.6765083128935000E+01 
    1.2111077243880397E+01 
    1.7448623347683284E+01 
    1.1914843729404577E+01 
    1.1854998214343995E+01 
    1.1477881858900068E+01 
    1.6583314437361715E+01 
    1.1770298890309091E+01 
    9.9671678476883638E+00 
    1.8468589562196033E+01 
    1.6678019318141267E+01 
    8.4575016420190430E+00 
    3.3862264328449871E+00 
    1.2099799224432964E+01 
    1.1320125374575825E+01 
    1.0460084452518474E+01 
    1.1264317356130761E+01 
    1.6585319135724660E+01 
    1.1785741863920682E+01 
    1.0809435539953331E+01 
    1.6419198601849999E+01 
    8.3752134662165467E+00 
    1.6022355615960119E+01 
    1.0927716143526577E+01 
    9.9828210339299215E+00 
    1.0551120249606326E+01 
    1.7097001068747574E+01 
    1.1990832866685103E+01 
    1.1999147195565701E+01 
    7.3755293231468917E+00 
    7.9557713412889930E+00 
    1.5059623302242464E+01 
    1.2008889659204266E+01 
    1.2142625359076447E+01 
    1.8186243280490160E+01 
    1.0151392686436088E+01 
    1.2021000153128217E+01 
    8.6544349592992109E+00 
    8.9182258733914157E+00 
    1.6572724598339743E+01 
    1.1646055400102581E+01 
    8.7482974679328152E+00 
    1.2572626270393782E+01 
    1.1912087549376078E+01 
    1.6578360524285049E+01 
    1.8285201292663878E+01 
    1.2868073658482109E+00 
    1.2105033551272145E+01 
    1.2246616526503150E+01 
    1.6652223900937308E+01 
    1.1592360919647547E+01 
    1.1963664851533796E+01 
    1.7696271782937359E+01 
    1.0591922915394980E+01 
    8.8241638422795585E+00 
    1.4315838523535875E+01 
    1.6366501614742830E+01 
    1.7545748283222700E+01 
    1.7829363377963031E+01 
    1.1936474314437884E+01 
    1.2095934762861717E+01 
    1.3354180128560264E+01 
    8.0597863424450527E+00 
    1.6514950167754069E+01 
    9.4898337488634734E+00 
    8.3676954938062043E+00 
    1.4871793704844956E+01 
    1.4009815184818120E+01 
    8.2179735082848637E+00 
    1.6406939327524263E+01 
    1.7530158466868716E+01 
    1.2448804251111712E+01 
    1.8392988614490431E+01 
    1.6444944382709867E+01 
    1.1657901035294039E+01 
    1.7240088911855494E+01 
    8.9120269128474572E+00 
    1.6388032363437759E+01 
    1.2103905129522648E+01 
    1.2062870832705798E+01 
    1.8368546670125745E+01 
    1.1732072934435593E+01 
    1.4582766573793318E+01 
    1.0527416083535527E+01 
    1.7659464396658844E+01 
    1.6281094542509759E+01 
    1.0952565943426425E+01 
    1.6337032072280543E+01 
    1.0972227086909427E+01 
    1.1970918286211992E+01 
    1.7484837862282372E+01 
    1.6739746375284646E+01 
    1.7533620683059045E+01 
    1.6657468171539385E+01 
    1.1174598186408435E+01 
    1.1397534899293230E+01 
    1.7541453635183434E+01 
    1.1532160484485795E+01 
    1.6182941033010064E+01 
    1.1714334650443726E+01 
    5.0052670750337676E+00 
    8.4350458151883547E+00 
    7.8362939919271390E+00 
    1.7488804003621102E+01 
    1.8292146531565304E+01 
    1.6358492283475353E+01 
    1.3708628592489312E+01 
    1.6689530198213550E+01 
    1.6416855358718184E+01 
    1.7090585203658623E+01 
    7.1321373814911109E+00 
    4.6578945347183804E+00 
    1.3459553368952445E+01 
    1.1755705979842720E+01 
    1.6588758126664786E+01 
    1.6586070582966979E+01 
    1.2268261036987994E+01 
    1.6628714124914875E+01 
    1.2089852790736906E+01 
    1.1994676361612349E+01 
    6.4525449509693651E+00 
    4.6378044090954242E+00 
    1.8048905296289082E+01 
    9.4495018348445239E+00 
    1.0873137608230307E+01 
    1.2163052295391683E+01 
    1.9730757098652607E+01 
    1.2256517350418269E+01 
    1.2410857646331376E+01 
    5.3059590468287583E+00 
    1.2256676218357608E+01 
    1.2271233652803494E+01 
    1.6892209800757499E+01 
    1.0553083945298347E+01 
    1.1519165850658466E+01 
    1.8232101254195587E+01 
    1.2113889416147437E+01 
    1.6376913888286829E+01 
    1.6632199542216242E+01 
    1.4616839107259048E+01 
    1.0262958678312309E+01 
    1.6658495448476199E+01 
    1.1897994858276565E+01 
    1.6559124752148382E+01 
    1.6308812598303913E+01 
    1.7510377815567644E+01 
    1.6649509026319137E+01 
    1.5505795908766773E+01 
    1.2101851132618821E+01 
    8.1401454974958423E+00 
    1.9602444352690998E+01 
    9.6803284102375127E+00 
    1.7419484745179830E+01 
    1.2099102516787688E+01 
    1.0207101138509538E+01 
    6.2011340135547641E+00 
    1.2309276997667755E+01 
    1.6641325386807498E+01 
    1.6639521607622168E+01 
    1.1951206507711023E+01 
    1.2092928104273371E+01 
    1.8453007600737319E+01 
    1.7767857529075656E+01 
    1.2276862394142984E+01 
    4.3352209905449701E+00 
    1.5327707103177545E+01 
    1.9858791080520650E+01 
    1.2105369335477469E+01 
    1.4144331925474503E+01 
    1.1590795247195707E+01 
    1.9456349683673697E+01 
    1.7857777654913093E+01 
    1.7586260270536798E+01 
    1.2299899442490478E+01 
    5.7150273687045177E+00 
    1.1547825054112943E+01 
    1.1615656029877888E+01 
    1.1659181842617587E+01 
    4.7356452206599293E+00 