# vtk DataFile Version 2.0
Pressure Field Data 
ASCII 
DATASET UNSTRUCTURED_GRID 

POINTS 2860 double 

    0.0000000000000000E+00     0.0000000000000000E+00     0.0000000000000000E+00 
    1.0000000000000000E+00     0.0000000000000000E+00     0.0000000000000000E+00 
    1.0000000000000000E+00     1.0000000000000000E+00     0.0000000000000000E+00 
    0.0000000000000000E+00     1.0000000000000000E+00     0.0000000000000000E+00 
    2.5000000000000000E-01     2.5000000000000000E-01     0.0000000000000000E+00 
    7.5000000000000000E-01     2.5000000000000000E-01     0.0000000000000000E+00 
    7.5000000000000000E-01     7.5000000000000000E-01     0.0000000000000000E+00 
    2.5000000000000000E-01     7.5000000000000000E-01     0.0000000000000000E+00 
    3.1249999999942091E-02     0.0000000000000000E+00     0.0000000000000000E+00 
    6.2499999999873469E-02     0.0000000000000000E+00     0.0000000000000000E+00 
    9.3749999999826514E-02     0.0000000000000000E+00     0.0000000000000000E+00 
    1.2499999999977961E-01     0.0000000000000000E+00     0.0000000000000000E+00 
    1.5624999999968961E-01     0.0000000000000000E+00     0.0000000000000000E+00 
    1.8749999999959971E-01     0.0000000000000000E+00     0.0000000000000000E+00 
    2.1874999999950970E-01     0.0000000000000000E+00     0.0000000000000000E+00 
    2.4999999999941969E-01     0.0000000000000000E+00     0.0000000000000000E+00 
    2.8124999999932920E-01     0.0000000000000000E+00     0.0000000000000000E+00 
    3.1249999999923850E-01     0.0000000000000000E+00     0.0000000000000000E+00 
    3.4374999999914790E-01     0.0000000000000000E+00     0.0000000000000000E+00 
    3.7499999999905720E-01     0.0000000000000000E+00     0.0000000000000000E+00 
    4.0624999999896660E-01     0.0000000000000000E+00     0.0000000000000000E+00 
    4.3749999999887590E-01     0.0000000000000000E+00     0.0000000000000000E+00 
    4.6874999999878530E-01     0.0000000000000000E+00     0.0000000000000000E+00 
    4.9999999999869471E-01     0.0000000000000000E+00     0.0000000000000000E+00 
    5.3124999999877620E-01     0.0000000000000000E+00     0.0000000000000000E+00 
    5.6249999999885780E-01     0.0000000000000000E+00     0.0000000000000000E+00 
    5.9374999999893940E-01     0.0000000000000000E+00     0.0000000000000000E+00 
    6.2499999999902101E-01     0.0000000000000000E+00     0.0000000000000000E+00 
    6.5624999999910261E-01     0.0000000000000000E+00     0.0000000000000000E+00 
    6.8749999999918421E-01     0.0000000000000000E+00     0.0000000000000000E+00 
    7.1874999999926570E-01     0.0000000000000000E+00     0.0000000000000000E+00 
    7.4999999999934730E-01     0.0000000000000000E+00     0.0000000000000000E+00 
    7.8124999999942890E-01     0.0000000000000000E+00     0.0000000000000000E+00 
    8.1249999999951039E-01     0.0000000000000000E+00     0.0000000000000000E+00 
    8.4374999999959199E-01     0.0000000000000000E+00     0.0000000000000000E+00 
    8.7499999999967359E-01     0.0000000000000000E+00     0.0000000000000000E+00 
    9.0624999999975520E-01     0.0000000000000000E+00     0.0000000000000000E+00 
    9.3749999999983680E-01     0.0000000000000000E+00     0.0000000000000000E+00 
    9.6874999999991840E-01     0.0000000000000000E+00     0.0000000000000000E+00 
    1.0000000000000000E+00     3.1249999999942091E-02     0.0000000000000000E+00 
    1.0000000000000000E+00     6.2499999999873469E-02     0.0000000000000000E+00 
    1.0000000000000000E+00     9.3749999999826514E-02     0.0000000000000000E+00 
    1.0000000000000000E+00     1.2499999999977961E-01     0.0000000000000000E+00 
    1.0000000000000000E+00     1.5624999999968961E-01     0.0000000000000000E+00 
    1.0000000000000000E+00     1.8749999999959971E-01     0.0000000000000000E+00 
    1.0000000000000000E+00     2.1874999999950970E-01     0.0000000000000000E+00 
    1.0000000000000000E+00     2.4999999999941969E-01     0.0000000000000000E+00 
    1.0000000000000000E+00     2.8124999999932920E-01     0.0000000000000000E+00 
    1.0000000000000000E+00     3.1249999999923850E-01     0.0000000000000000E+00 
    1.0000000000000000E+00     3.4374999999914790E-01     0.0000000000000000E+00 
    1.0000000000000000E+00     3.7499999999905720E-01     0.0000000000000000E+00 
    1.0000000000000000E+00     4.0624999999896660E-01     0.0000000000000000E+00 
    1.0000000000000000E+00     4.3749999999887590E-01     0.0000000000000000E+00 
    1.0000000000000000E+00     4.6874999999878530E-01     0.0000000000000000E+00 
    1.0000000000000000E+00     4.9999999999869471E-01     0.0000000000000000E+00 
    1.0000000000000000E+00     5.3124999999877620E-01     0.0000000000000000E+00 
    1.0000000000000000E+00     5.6249999999885780E-01     0.0000000000000000E+00 
    1.0000000000000000E+00     5.9374999999893940E-01     0.0000000000000000E+00 
    1.0000000000000000E+00     6.2499999999902101E-01     0.0000000000000000E+00 
    1.0000000000000000E+00     6.5624999999910261E-01     0.0000000000000000E+00 
    1.0000000000000000E+00     6.8749999999918421E-01     0.0000000000000000E+00 
    1.0000000000000000E+00     7.1874999999926570E-01     0.0000000000000000E+00 
    1.0000000000000000E+00     7.4999999999934730E-01     0.0000000000000000E+00 
    1.0000000000000000E+00     7.8124999999942890E-01     0.0000000000000000E+00 
    1.0000000000000000E+00     8.1249999999951039E-01     0.0000000000000000E+00 
    1.0000000000000000E+00     8.4374999999959199E-01     0.0000000000000000E+00 
    1.0000000000000000E+00     8.7499999999967359E-01     0.0000000000000000E+00 
    1.0000000000000000E+00     9.0624999999975520E-01     0.0000000000000000E+00 
    1.0000000000000000E+00     9.3749999999983680E-01     0.0000000000000000E+00 
    1.0000000000000000E+00     9.6874999999991840E-01     0.0000000000000000E+00 
    9.6875000000003686E-01     1.0000000000000000E+00     0.0000000000000000E+00 
    9.3750000000011691E-01     1.0000000000000000E+00     0.0000000000000000E+00 
    9.0625000000015765E-01     1.0000000000000000E+00     0.0000000000000000E+00 
    8.7500000000017863E-01     1.0000000000000000E+00     0.0000000000000000E+00 
    8.4375000000028044E-01     1.0000000000000000E+00     0.0000000000000000E+00 
    8.1250000000040856E-01     1.0000000000000000E+00     0.0000000000000000E+00 
    7.8125000000054956E-01     1.0000000000000000E+00     0.0000000000000000E+00 
    7.5000000000066480E-01     1.0000000000000000E+00     0.0000000000000000E+00 
    7.1875000000086831E-01     1.0000000000000000E+00     0.0000000000000000E+00 
    6.8750000000102829E-01     1.0000000000000000E+00     0.0000000000000000E+00 
    6.5625000000114431E-01     1.0000000000000000E+00     0.0000000000000000E+00 
    6.2500000000129829E-01     1.0000000000000000E+00     0.0000000000000000E+00 
    5.9375000000147926E-01     1.0000000000000000E+00     0.0000000000000000E+00 
    5.6250000000168354E-01     1.0000000000000000E+00     0.0000000000000000E+00 
    5.3125000000188671E-01     1.0000000000000000E+00     0.0000000000000000E+00 
    5.0000000000205835E-01     1.0000000000000000E+00     0.0000000000000000E+00 
    4.6875000000192979E-01     1.0000000000000000E+00     0.0000000000000000E+00 
    4.3750000000180111E-01     1.0000000000000000E+00     0.0000000000000000E+00 
    4.0625000000167238E-01     1.0000000000000000E+00     0.0000000000000000E+00 
    3.7500000000154382E-01     1.0000000000000000E+00     0.0000000000000000E+00 
    3.4375000000141509E-01     1.0000000000000000E+00     0.0000000000000000E+00 
    3.1250000000128642E-01     1.0000000000000000E+00     0.0000000000000000E+00 
    2.8125000000115769E-01     1.0000000000000000E+00     0.0000000000000000E+00 
    2.5000000000102918E-01     1.0000000000000000E+00     0.0000000000000000E+00 
    2.1875000000090050E-01     1.0000000000000000E+00     0.0000000000000000E+00 
    1.8750000000077180E-01     1.0000000000000000E+00     0.0000000000000000E+00 
    1.5625000000064329E-01     1.0000000000000000E+00     0.0000000000000000E+00 
    1.2500000000051459E-01     1.0000000000000000E+00     0.0000000000000000E+00 
    9.3750000000385914E-02     1.0000000000000000E+00     0.0000000000000000E+00 
    6.2500000000257239E-02     1.0000000000000000E+00     0.0000000000000000E+00 
    3.1250000000128557E-02     1.0000000000000000E+00     0.0000000000000000E+00 
    0.0000000000000000E+00     9.6875000000003686E-01     0.0000000000000000E+00 
    0.0000000000000000E+00     9.3750000000011691E-01     0.0000000000000000E+00 
    0.0000000000000000E+00     9.0625000000015765E-01     0.0000000000000000E+00 
    0.0000000000000000E+00     8.7500000000017863E-01     0.0000000000000000E+00 
    0.0000000000000000E+00     8.4375000000028044E-01     0.0000000000000000E+00 
    0.0000000000000000E+00     8.1250000000040856E-01     0.0000000000000000E+00 
    0.0000000000000000E+00     7.8125000000054956E-01     0.0000000000000000E+00 
    0.0000000000000000E+00     7.5000000000066480E-01     0.0000000000000000E+00 
    0.0000000000000000E+00     7.1875000000086831E-01     0.0000000000000000E+00 
    0.0000000000000000E+00     6.8750000000102829E-01     0.0000000000000000E+00 
    0.0000000000000000E+00     6.5625000000114431E-01     0.0000000000000000E+00 
    0.0000000000000000E+00     6.2500000000129829E-01     0.0000000000000000E+00 
    0.0000000000000000E+00     5.9375000000147926E-01     0.0000000000000000E+00 
    0.0000000000000000E+00     5.6250000000168354E-01     0.0000000000000000E+00 
    0.0000000000000000E+00     5.3125000000188671E-01     0.0000000000000000E+00 
    0.0000000000000000E+00     5.0000000000205835E-01     0.0000000000000000E+00 
    0.0000000000000000E+00     4.6875000000192979E-01     0.0000000000000000E+00 
    0.0000000000000000E+00     4.3750000000180111E-01     0.0000000000000000E+00 
    0.0000000000000000E+00     4.0625000000167238E-01     0.0000000000000000E+00 
[...]
CELL_DATA 2795 
SCALARS Pressure double 1 
LOOKUP_TABLE default 

    5.4729548224959350E+00 
    1.2304981123790036E+01 
    8.6806738839690301E+00 
    8.3354314663994273E+00 
    6.6807272459487921E+00 
    1.2198233631219262E+01 
    1.2840768372695598E+01 
    4.9028219596676461E+00 
    9.1861764185269141E+00 
    6.9880011009623697E+00 
    5.9400191918399381E+00 
    1.1976655189337048E+01 
    1.2220551462089940E+01 
    1.2171164395516900E+01 
    7.9739356989493864E+00 
    4.8199991246516642E+00 
    7.6850829240769425E+00 
    6.3304201095064627E+00 
    1.1664119398760137E+01 
    8.6757743336838775E+00 
    8.5634956573419778E+00 
    1.2114636244652607E+01 
    8.1053399255838876E+00 
    3.3129307773117211E-01 
    1.1963253749297559E+01 
    1.2196644282699731E+01 
    1.2869633207200083E+01 
    5.7084552864329980E+00 
    1.1907721604083106E+01 
    1.2855972160985797E+01 
    8.7875411496266942E+00 
    8.9091358381287726E+00 
    6.1242569189245462E+00 
    8.6413377969726373E+00 
    2.8423732761436584E+00 
    7.6872829864962950E+00 
    8.6318532504041201E+00 
    1.2891414143305362E+01 
    1.2821306535026066E+01 
    1.1988133075436963E+01 
    6.6260902638538992E+00 
    1.1941407214903462E+01 
    6.8671771732629427E-01 
    8.5597929275126123E+00 
    1.2652701587387950E+01 
    1.2510323827095107E+01 
    1.1967290666928648E+01 
    9.4961580413933842E+00 
    1.2030377169883907E+01 
    7.8568736826284358E+00 
    7.4965177489118471E+00 
    8.8753933486266039E+00 
    8.4492528827737576E+00 
    7.7306762779496152E+00 
    8.8600182530120399E+00 
    1.1483644801348104E+01 
    1.0367362989191124E+01 
    6.7157254255191230E+00 
    1.2117872157379027E+01 
    1.2052730717001138E+01 
    8.3743462799336630E+00 
    8.3333429081756414E+00 
    8.2514628088419268E+00 
    1.2769104015670049E+01 
    1.3001277610605014E+01 
    7.6955291023763692E+00 
    8.8734488835882246E+00 
    1.1895313995252865E+01 
    1.0175874592744437E+01 
    8.3641246606373940E+00 
    1.3013455417404780E+01 
    1.2059171051003085E+01 
    7.5888077790687358E+00 
    1.2593262863563570E+01 
    9.0875765224702025E+00 
    1.1834102642293930E+01 
    1.2905013205833155E+01 
    9.0020161965222734E+00 
    5.5395810176744984E+00 
    8.8900799646172253E+00 
    1.2828289793212157E+01 
    1.3030850699307560E+01 
    7.7112215492812268E+00 
    8.8026034065981005E+00 
    1.3073596655318729E+01 
    8.6372678049144564E+00 
    8.1792726375973963E+00 
    1.0531220596839539E+01 
    5.3135345505941984E+00 
    7.5186855316463799E+00 
    8.8044091169934671E+00 
    9.3087431311390496E+00 
    1.4421429990675243E+01 
    6.4969326693614766E+00 
    8.8806157329363717E+00 
    1.1948414389298716E+01 
    1.2177504949020312E+01 
    5.7408615602509379E+00 
    8.5104871366267041E+00 
    8.8318037737392920E+00 
    1.2195732555426478E+01 
    8.8400546755449003E+00 
    1.2135877806027635E+01 
    3.5252223143615273E+00 
    5.7725615348598813E+00 
    9.0770036834549419E+00 
    1.2312671039823444E+01 
    7.6574083124486112E+00 
    8.1880374289331019E+00 
    8.8258688765713540E+00 
    8.1558259773900126E+00 
    1.0042027263450333E+01 
    7.9592351657065992E+00 
    7.5956846766324873E+00 
    6.0295332829137349E+00 
    1.0294939965761939E+01 
    8.9108783824353797E+00 
    1.2691634900967363E+01 
    7.6084422330846149E+00 
    8.3244489312712577E+00 
    1.2048734188660715E+01 
    6.9847688610774474E+00 
    1.2446490447437801E+01 
    8.7203407178419248E+00 
    8.2606883727399474E+00 
    1.2179548554561830E+01 
    8.9018228559143662E+00 
    1.2914872660681169E+01 
    1.0541891748828021E+01 
    1.1353985767009544E+01 
    1.2884705882933593E+01 
    6.5091816521819377E+00 
    9.0939347641639348E+00 
    1.2181664355659647E+01 
    2.6466172752805859E+00 
    8.8383721699392286E+00 
    1.2854928355033726E+01 
    8.2897079753441254E+00 
    9.5622466998295774E+00 
    5.6868292397108533E+00 
    1.1947835076726166E+01 
    1.4880480007552025E+01 
    1.0942632419096018E+01 
    8.2843131479299039E+00 
    7.4320514612008948E+00 
    9.5097732866977314E+00 
    8.7365859229714236E+00 
    6.0026056410180306E+00 
    1.2878314023010223E+01 
    1.2282366582481611E+01 
    1.1949984507282320E+01 
    9.3182210717140901E+00 
    7.5689619546368947E+00 
    8.5624047407363761E+00 
    1.2616217341102510E+01 
    7.7695325679596072E+00 
    8.6926390627536492E+00 
    7.9070156972677195E+00 
    1.0084152218652976E+01 
    1.4869322165809812E+01 
    1.1942364935431280E+01 
    7.5304097821566724E+00 
    1.2349312246802524E+01 
    1.2276286982907406E+01 
    1.2347498902926851E+01 
    1.3250772733546629E+01 
    1.3748880425223728E+01 
    1.2504347334591976E+01 
    8.8658027842139298E+00 
    9.4568908179820266E+00 
    1.2350245043665449E+01 
    1.2705013893263823E+01 
    6.2543144952808616E+00 
    1.1966782646511023E+01 
    1.2581386973679676E+01 
    6.1009632787388846E+00 
    1.3169636927730359E+01 
    1.3159457473546373E+01 
    1.1724194529649514E+01 
    9.1500998898116155E+00 
    2.3533152981806658E+00 
    1.2852690310206770E+01 
    9.0269370215625315E+00 
    1.2960609435685061E+01 
    8.2328320143700484E+00 
    1.2704175279343890E+01 
    8.3651968905946039E-01 
    1.1369491639447833E+01 
    8.3735789136237724E+00 
    7.5343473192035271E+00 
    7.3466372578175312E+00 
    8.6918277662598040E+00 
    9.7319835437113298E+00 
    9.0233927872491879E+00 
    6.0927063041630651E+00 
    1.2698114744968095E+01 
    1.2203491695880542E+01 
    1.0284351752107115E+01 
    9.0700409131733934E+00 
    1.3528967125753015E+00 
    6.8015725436231058E+00 
    4.7419535816494074E+00 
    1.2866355530959114E+01 
    9.9552136812391083E+00 
    1.2259155998160475E+01 
    1.2262222641701465E+01 
    7.8523365658520454E+00 
    1.0373225718297164E+01 
    1.1945535333905863E+01 
    1.3145165389988492E+01 
    5.6764854869526058E+00 
    1.0777774155072045E+01 
    9.0707695161039776E+00 
    5.0600671394120420E+00 
    7.8316519945110139E+00 
    1.0798192305898271E+01 
    1.2228335427451475E+01 
    8.7513387268922909E+00 
    1.2327304974110879E+01 
    1.2117768817020039E+01 
    1.2073220469753506E+01 
    8.5692176871103882E+00 
    7.4928487660585512E+00 
    1.1957510773289277E+01 
    7.5861093951858365E+00 
    8.8425307090126797E+00 
    7.4426478153399627E+00 
    8.6369333281653446E+00 
    1.2270043319067160E+01 
    5.4447658778720838E+00 
    7.7586016295890090E+00 
    1.2792320227080179E+01 
    8.5837102047482503E+00 
    9.8499055522504833E+00 
    5.5861817082295238E+00 
    7.6349413302763116E+00 
    1.2098615000149191E+01 
    1.2377193430882622E+01 
    4.5768356462092177E+00 
    8.5858745137310208E+00 
    7.4823153594402827E+00 
    1.3532528460525503E+01 
    1.3039216451026856E+01 
    1.3772167196622265E+01 
    8.6069256790182518E+00 
    1.2246453178277015E+01 
    1.1908400324883820E+01 
    8.4881096607752173E+00 
    1.1950074652112029E+01 
    9.0710328733507897E+00 
    5.0993322812754540E+00 
    8.8525443655584724E+00 
    1.2777974112169554E+01 
    1.1947251333929943E+01 
    5.9081295535978358E+00 
    1.1972851879217894E+01 
    9.7414285941830734E+00 
    8.8217589158783802E+00 
    8.3645086198610805E+00 
    1.1831696555232082E+01 
    9.3491569228238358E+00 
    1.1961831063126246E+01 
    8.5085624586470860E+00 
    5.2318353295583444E+00 
    8.9089873595281510E+00 
    7.3548102198442571E+00 
    1.0945161757308210E+01 
    1.2960133999834039E+01 
    1.1956515581409612E+01 
    1.2848315199098833E+01 
    8.5349284166246324E+00 
    5.7606107608600521E+00 
    5.8405710189306337E+00 
    9.0022092399299307E+00 
    8.8202856785037422E+00 
    1.2927779365311973E+00 
    1.1527350032887382E+01 
    1.3278084228482250E+01 
    8.2401662418154658E+00 
    5.3418790692148397E+00 
    1.0030281030686339E+01 
    1.1971580047037474E+01 
    6.3014092379550526E+00 
    4.3232887383671752E+00 
    8.7938419222401620E+00 
    1.2058017449823399E+01 
    1.2612258184281869E+01 
    1.2516246799019981E+01 
    1.2380634808684768E+01 
    6.1600607206299260E+00 
    8.8118151821885693E+00 
    1.1545923242229490E+01 
    6.8597621710357828E+00 
    1.2209022967968874E+01 
    1.0563260186616031E+01 
    5.9224585803970387E+00 
    1.2066556728061943E+01 
    1.2860874200251095E+01 
    1.2066359490706333E+01 
    6.0771613972258152E+00 
    8.8698431041889645E+00 
    6.6605793022265534E+00 
    8.3543906007519695E+00 
    1.1964165128841199E+01 
    1.1953966512548098E+01 
    6.1113216557136658E+00 
    1.2739932122178761E+01 
    9.3517308541583688E+00 
    1.1988399220927912E+01 
    1.2711332232165283E+01 
    1.1975249048622025E+01 
    1.1155781504893373E+01 
    1.3578731813290794E+01 
    8.2146577115979049E+00 
    1.2821318993379547E+01 
    1.2015871209798906E+01 
    1.2885751765433609E+01 
    1.2733940765615479E+01 
    8.2993004996151338E+00 
    8.6739616899181993E+00 
    8.2306590190092734E+00 
    1.0729717708868508E+01 
    3.5348214446904485E+00 
    8.9385114105487826E+00 
    1.3696413860650791E+01 
    9.0733656073284461E+00 
    9.2409166358229964E+00 
    1.2861038816151305E+01 
    1.3076195306176013E+01 
    8.1891835442378813E+00 
    1.1976586690153926E+01 
    1.1951123039114647E+01 
    9.2298177943260900E+00 
    1.2693391072866463E+01 
    6.2266655327491804E+00 
    4.0031794342037372E+00 
    9.4814197907468216E+00 
    9.0859179821317930E+00 
    1.1955665715373446E+01 
    5.7264353215694044E+00 
    1.2441330098243604E+01 
    4.0797535219905212E+00 
    9.0276976851119919E+00 
    8.3725715082538077E+00 
    8.8475467692804663E+00 
    1.4918178536616805E+01 
    3.4352709498009402E+00 
    8.8564676343213407E+00 
    1.0475603158740878E+01 
    8.4455623468029977E+00 
    6.7095606920308590E+00 
    1.2547652990826647E+01 
    1.4508480807088331E+01 
    1.2676894989163870E+01 
    8.8008044659164835E+00 
    5.0422293193701195E+00 
    1.4365424950835749E+01 
    1.2193372013973507E+01 
    6.3255990855110475E+00 
    8.4082127850270041E+00 
    1.3235678978779600E+01 
    2.9154702396970351E+00 
    9.1311225969149579E+00 
    1.2646005084453588E+01 
    8.8599065697783068E+00 
    7.6846788909447925E+00 
    8.8957614536110139E+00 
    1.1738573439648555E+01 
    8.8407383318792174E+00 
    4.5073792702624269E+00 
    8.2209895388919296E-01 
    6.5355413588584055E+00 
    1.3431746732243171E+01 
    8.2289787869763220E+00 
    1.0121297760976271E+01 
    9.6583188371043942E+00 
    1.1017166982414068E+01 
    8.8729935051019577E+00 
    1.2112660721743520E+01 
    1.4931760480368721E+01 
    1.0451026398501378E+01 
    1.2796498051714099E+01 
    4.8971110494288894E-01 
    1.1955632075289920E+01 
    4.9008923676050165E+00 
    1.3854113970113048E+01 
    8.8699483065273252E+00 
    7.7902225877663751E+00 
    6.7871792440145349E+00 
    4.7314816850602712E+00 
    9.8774800844319373E+00 
    6.9253627159342548E+00 
    1.0852806430459884E+01 
    1.9998545138894792E+00 
    9.7725032887691246E+00 
    1.1896986311624154E+01 
    5.3046441056495297E+00 
    1.2395127771615380E+01 
    1.3687856332123356E+01 
    1.2268782836115264E+01 
    8.7444958494633909E+00 
    8.8421889167828596E+00 
    8.8626915724257866E+00 
    5.1139884502430970E+00 
    7.9969857803343132E+00 
    7.8663163286412514E+00 
    8.8519374112430409E+00 
    8.1752217795607862E+00 
    6.1808635799460110E-01 
    5.6167427708338762E+00 
    8.5112658160965857E+00 
    8.8285282846004485E+00 
    1.1151597190384681E+01 
    1.9055423352479650E+00 
    9.1938112527411562E+00 
    9.0906761705266845E+00 
    3.3069361005386111E+00 
    1.2146865172801666E+01 
    7.6080809593429723E+00 
    8.9648771184470029E+00 
    1.2190523121431530E+01 
    4.7462246190366555E+00 
    1.2252026746744640E+01 
    7.6939977110092501E+00 
    8.6563802371929210E-01 
    8.2837529882464285E+00 
    1.2750697982695913E+01 
    1.1955995412778696E+01 
    1.1974813428226845E+01 
    9.2056222710695295E+00 
    9.0310054581383241E+00 
    7.5836352843800032E+00 
    6.1039752610519802E+00 
    1.2287857785028619E+01 
    8.4087447924410910E+00 
    5.8750388194658454E+00 
    1.1969139343333870E+01 
    1.2582613584185212E+01 
    9.0289286891187697E+00 
    8.6314233980842925E+00 
    1.4818566407907785E+01 
    9.2306022505214624E+00 
    1.2304858147875764E+01 
    7.2214724219418276E+00 
    1.4959738348509715E+01 
    5.8064079535122408E+00 
    7.9629762519214466E+00 
    6.4947305093927739E+00 
    9.4363470901997726E+00 
    7.4590821569165842E+00 
    1.4943884556891147E+01 
    9.2733916468284541E+00 
    1.1682318368955968E+01 
    5.9704563914881552E+00 
    8.8703687442263988E+00 
    1.2163133355525892E+01 
    7.4763064907517505E+00 
    6.3734783686490983E+00 
    9.7372163906994675E+00 
    1.2377532972898210E+01 
    6.4100833650704674E+00 
    8.3892672545014211E+00 
    8.6577679459216448E+00 
    1.1934312840835918E+01 
    8.4712565234895454E+00 
    1.2345919535027960E+01 
    1.2911960767642794E+01 
    7.6065153767448823E+00 
    7.4614521736885617E+00 
    6.9666305090215275E+00 
    1.2061488492214604E+01 
    9.1027763971696789E+00 
    1.4543584239417727E+01 
    1.1382944645747898E+01 
    1.2126876445345342E+01 
    1.4246872087746340E+01 
    1.3689910026671290E+01 
    8.9158872945318901E+00 
    8.8376455681006565E+00 
    1.1751420768373031E+01 
    1.1988563517115406E+01 
    1.2443498500619940E+01 
    1.2211998484886134E+01 
    1.4836695596729452E+01 
    9.2301869576099929E+00 
    7.6944838384595053E+00 
    9.2118019807860971E+00 
    1.2833943974808308E+01 
    9.0025506709550385E+00 
    5.1962634093974982E+00 
    8.7295600262359550E+00 
    1.3207307804122481E+01 
    9.1226700990231784E+00 
    7.6966494298295132E+00 
    8.5968968854786443E+00 
    1.3307201947624833E+01 
    1.1989540844734465E+01 
    7.3290557744439120E+00 
    1.3434633147970885E+01 
    8.9435639806755862E+00 
    1.2439297416523328E+01 
    1.3321223171263551E+01 
    9.3703538879915271E+00 
    4.7429234804263816E+00 
    9.7234325959795225E+00 
    4.9033834580029954E+00 
    9.0452134187160294E+00 
    8.8594308816856895E+00 
    1.0218876352455981E+01 
    5.1803702028763920E+00 
    1.0842954659978203E+01 
    8.8823424259247581E+00 
    1.2203041325562417E+01 
    9.3146149392406148E+00 
    7.1424312680434605E+00 
    8.4815356641377377E+00 
    9.3817723046536550E+00 
    9.3232349136600732E+00 
    1.2949759979866723E+01 
    7.3625216516762171E+00 
    7.2384771281991913E+00 
    5.4410525965196683E+00 
    1.2468237679980868E+01 
    8.5193452132423353E+00 
    1.1810594701291638E+01 
    8.8320920174310178E+00 
    5.9382175561559736E+00 
    1.2016120481639314E+01 
    8.8067645017810339E+00 
    6.4615824852504744E+00 
    6.8349911618492962E+00 
    7.0694545123132739E+00 
    1.2230460405265401E+01 
    8.8538427921942322E+00 
    1.2806102203459613E+01 
    8.7628077496775401E+00 
    8.6945534898659531E+00 
    8.3121099293756373E+00 
    1.2088173482561375E+01 
    8.6086178349868288E+00 
    7.1043439721967996E+00 
    1.3676844882354942E+01 
    1.2158883236434519E+01 
    6.0821989591855230E+00 
    2.4248826473316125E+00 
    8.8433095980913201E+00 
    8.2411888925748134E+00 
    7.4579580592062387E+00 
    8.1353769858070351E+00 
    1.2133176046499409E+01 
    8.5725797656223950E+00 
    7.7498511317550847E+00 
    1.2007974826513482E+01 
    6.0274929243413791E+00 
    1.1716345830733653E+01 
    7.9642219552015332E+00 
    7.0552434941030606E+00 
    7.5258367979051792E+00 
    1.2515695917505102E+01 
    8.8505262523060448E+00 
    8.8584071485196603E+00 
    5.2570505658663018E+00 
    5.6703524575696100E+00 
    1.1140154255443910E+01 
    8.8678708461423916E+00 
    8.8825937888751003E+00 
    1.3418715309613102E+01 
    7.2375723336672015E+00 
    8.8792783845687406E+00 
    6.2379490643385385E+00 
    6.4404471474286931E+00 
    1.2081646397710411E+01 
    8.5034549071945804E+00 
    6.2349070708402037E+00 
    9.3217025556543440E+00 
    8.7380071790359821E+00 
    1.2084593077975960E+01 
    1.3504729050592863E+01 
    9.4432378053210020E-01 
    8.8480107964589934E+00 
    9.0844702267169311E+00 
    1.2141076827446350E+01 
    8.3492040199466366E+00 
    8.8240407979779736E+00 
    1.2997740525749984E+01 
    7.5529368441751084E+00 
    6.2883683197872013E+00 
    1.0720967194108477E+01 
    1.1968079675966406E+01 
    1.2886531330405978E+01 
    1.3121636115371201E+01 
    8.6980982831149181E+00 
    8.8403738739642197E+00 
    9.9367298511349027E+00 
    5.7794477513593439E+00 
    1.2078901638969105E+01 
    6.7633205281331854E+00 
    6.0186995205711327E+00 
    1.1095498871593446E+01 
    1.0418685855975880E+01 
    5.9019711170965934E+00 
    1.2000660704650635E+01 
    1.2872866547514567E+01 
    9.2442584529906959E+00 
    1.3598129821492266E+01 
    1.2028688690915393E+01 
    8.4324683077111668E+00 
    1.2633559044444574E+01 
    6.4420090079303032E+00 
    1.1983735721946813E+01 
    8.8472153687663244E+00 
    8.8076902626047247E+00 
    1.3573685281071524E+01 
    8.5489571994769733E+00 
    1.0828134672499360E+01 
    7.5094750817025062E+00 
    1.2978323225058158E+01 
    1.1902327376063603E+01 
    7.8244159131928779E+00 
    1.1947388046591737E+01 
    7.9547053894423616E+00 
    8.8349998227580766E+00 
    1.2836290452609806E+01 
    1.2205925191726033E+01 
    1.2876036737503012E+01 
    1.2144080094889167E+01 
    8.0095369952261102E+00 
    8.2166325745170639E+00 
    1.2881596974636501E+01 
    8.3269677289205237E+00 
    1.1843559841123207E+01 
    8.5403826636389741E+00 
    3.5597603402577138E+00 
    6.0793827333826913E+00 
    5.6355693864129579E+00 
    1.2839096710744171E+01 
    1.3509698048478269E+01 
    1.1963737942782810E+01 
    1.0246703197413224E+01 
    1.2215645978714024E+01 
    1.2005343603131346E+01 
    1.2524849427214187E+01 
    5.0800879721504000E+00 
    3.3223275038664273E+00 
    1.0058657320789013E+01 
    8.5020008002046641E+00 
    1.2134579735717322E+01 
    1.2132334368397419E+01 
    9.1009560495541475E+00 
    1.2165091297002508E+01 
    8.8350454560545479E+00 
    8.7351070325660078E+00 
    4.5999351816312934E+00 
    3.3115987785123830E+00 
    1.3303793995398420E+01 
    6.8448626123266267E+00 
    7.7697954748796754E+00 
    9.0094348239193938E+00 
    1.4819061753100504E+01 
    9.0930671691768072E+00 
    9.1256835539564047E+00 
    3.7354704093827280E+00 
    9.0938957432069358E+00 
    9.1060766870332159E+00 
    1.2419445911259345E+01 
    7.5340041958999899E+00 
    8.4249955806186669E+00 
    1.3459212151692306E+01 
    8.8559962854867518E+00 
    1.1978001043488591E+01 
    1.2212830612462684E+01 
    1.0942549448292992E+01 
    7.4451411456498766E+00 
    1.2143694276321536E+01 
    8.6485601622234078E+00 
    1.2159418798583108E+01 
    1.1922318513677794E+01 
    1.2856584821472223E+01 
    1.2141731944264242E+01 
    1.1410454875962113E+01 
    8.8454645277609085E+00 
    5.8560603553514756E+00 
    1.4698135948432711E+01 
    6.9004652870601069E+00 
    1.2783780400901449E+01 
    8.8429069996713636E+00 
    7.2881241091542543E+00 
    4.3456337607882407E+00 
    9.1368148263591831E+00 
    1.2131975597458036E+01 
    1.2128536234251337E+01 
    8.8152657661688174E+00 
    8.8371341022328913E+00 
    1.3653634129606985E+01 
    1.3070009916383245E+01 
    9.1097588307978032E+00 
    3.0932090281941571E+00 
    1.1392388479848698E+01 
    1.4942433130107069E+01 
    8.8487489141175715E+00 
    1.0584406758991166E+01 
    8.3449430951165819E+00 
    1.4563840932153873E+01 
    1.3143607315021676E+01 
    1.2904631404018094E+01 
    9.1289661397511175E+00 
    4.0798492368670338E+00 
    8.3066728722908501E+00 
    8.3697582279565328E+00 
    8.4175938356656950E+00 
    3.3588943631375190E+00 