# vtk DataFile Version 2.0
Pressure Field Data 
ASCII 
DATASET UNSTRUCTURED_GRID 

POINTS 2860 double 

    0.0000000000000000E+00     0.0000000000000000E+00     0.0000000000000000E+00 
    1.0000000000000000E+00     0.0000000000000000E+00     0.0000000000000000E+00 
    1.0000000000000000E+00     1.0000000000000000E+00     0.0000000000000000E+00 
    0.0000000000000000E+00     1.0000000000000000E+00     0.0000000000000000E+00 
    2.5000000000000000E-01     2.5000000000000000E-01     0.0000000000000000E+00 
    7.5000000000000000E-01     2.5000000000000000E-01     0.0000000000000000E+00 
    7.5000000000000000E-01     7.5000000000000000E-01     0.0000000000000000E+00 
    2.5000000000000000E-01     7.5000000000000000E-01     0.0000000000000000E+00 
    3.1249999999942091E-02     0.0000000000000000E+00     0.0000000000000000E+00 
    6.2499999999873469E-02     0.0000000000000000E+00     0.0000000000000000E+00 
    9.3749999999826514E-02     0.0000000000000000E+00     0.0000000000000000E+00 
    1.2499999999977961E-01     0.0000000000000000E+00     0.0000000000000000E+00 
    1.5624999999968961E-01     0.0000000000000000E+00     0.0000000000000000E+00 
    1.8749999999959971E-01     0.0000000000000000E+00     0.0000000000000000E+00 
    2.1874999999950970E-01     0.0000000000000000E+00     0.0000000000000000E+00 
    2.4999999999941969E-01     0.0000000000000000E+00     0.0000000000000000E+00 
    2.8124999999932920E-01     0.0000000000000000E+00     0.0000000000000000E+00 
    3.1249999999923850E-01     0.0000000000000000E+00     0.0000000000000000E+00 
    3.4374999999914790E-01     0.0000000000000000E+00     0.0000000000000000E+00 
    3.7499999999905720E-01     0.0000000000000000E+00     0.0000000000000000E+00 
    4.0624999999896660E-01     0.0000000000000000E+00     0.0000000000000000E+00 
    4.3749999999887590E-01     0.0000000000000000E+00     0.0000000000000000E+00 
    4.6874999999878530E-01     0.0000000000000000E+00     0.0000000000000000E+00 
    4.9999999999869471E-01     0.0000000000000000E+00     0.0000000000000000E+00 
    5.3124999999877620E-01     0.0000000000000000E+00     0.0000000000000000E+00 
    5.6249999999885780E-01     0.0000000000000000E+00     0.0000000000000000E+00 
    5.9374999999893940E-01     0.0000000000000000E+00     0.0000000000000000E+00 
    6.2499999999902101E-01     0.0000000000000000E+00     0.0000000000000000E+00 
    6.5624999999910261E-01     0.0000000000000000E+00     0.0000000000000000E+00 
    6.8749999999918421E-01     0.0000000000000000E+00     0.0000000000000000E+00 
    7.1874999999926570E-01     0.0000000000000000E+00     0.0000000000000000E+00 
    7.4999999999934730E-01     0.0000000000000000E+00     0.0000000000000000E+00 
    7.8124999999942890E-01     0.0000000000000000E+00     0.0000000000000000E+00 
    8.1249999999951039E-01     0.0000000000000000E+00     0.0000000000000000E+00 
    8.4374999999959199E-01     0.0000000000000000E+00     0.0000000000000000E+00 
    8.7499999999967359E-01     0.0000000000000000E+00     0.0000000000000000E+00 
    9.0624999999975520E-01     0.0000000000000000E+00     0.0000000000000000E+00 
    9.3749999999983680E-01     0.0000000000000000E+00     0.0000000000000000E+00 
    9.6874999999991840E-01     0.0000000000000000E+00     0.0000000000000000E+00 
    1.0000000000000000E+00     3.1249999999942091E-02     0.0000000000000000E+00 
    1.0000000000000000E+00     6.2499999999873469E-02     0.0000000000000000E+00 
    1.0000000000000000E+00     9.3749999999826514E-02     0.0000000000000000E+00 
    1.0000000000000000E+00     1.2499999999977961E-01     0.0000000000000000E+00 
    1.0000000000000000E+00     1.5624999999968961E-01     0.0000000000000000E+00 
    1.0000000000000000E+00     1.8749999999959971E-01     0.0000000000000000E+00 
    1.0000000000000000E+00     2.1874999999950970E-01     0.0000000000000000E+00 
    1.0000000000000000E+00     2.4999999999941969E-01     0.0000000000000000E+00 
    1.0000000000000000E+00     2.8124999999932920E-01     0.0000000000000000E+00 
    1.0000000000000000E+00     3.1249999999923850E-01     0.0000000000000000E+00 
    1.0000000000000000E+00     3.4374999999914790E-01     0.0000000000000000E+00 
    1.0000000000000000E+00     3.7499999999905720E-01     0.0000000000000000E+00 
    1.0000000000000000E+00     4.0624999999896660E-01     0.0000000000000000E+00 
    1.0000000000000000E+00     4.3749999999887590E-01     0.0000000000000000E+00 
    1.0000000000000000E+00     4.6874999999878530E-01     0.0000000000000000E+00 
    1.0000000000000000E+00     4.9999999999869471E-01     0.0000000000000000E+00 
    1.0000000000000000E+00     5.3124999999877620E-01     0.0000000000000000E+00 
    1.0000000000000000E+00     5.6249999999885780E-01     0.0000000000000000E+00 
    1.0000000000000000E+00     5.9374999999893940E-01     0.0000000000000000E+00 
    1.0000000000000000E+00     6.2499999999902101E-01     0.0000000000000000E+00 
    1.0000000000000000E+00     6.5624999999910261E-01     0.0000000000000000E+00 
    1.0000000000000000E+00     6.8749999999918421E-01     0.0000000000000000E+00 
    1.0000000000000000E+00     7.1874999999926570E-01     0.0000000000000000E+00 
    1.0000000000000000E+00     7.4999999999934730E-01     0.0000000000000000E+00 
    1.0000000000000000E+00     7.8124999999942890E-01     0.0000000000000000E+00 
    1.0000000000000000E+00     8.1249999999951039E-01     0.0000000000000000E+00 
    1.0000000000000000E+00     8.4374999999959199E-01     0.0000000000000000E+00 
    1.0000000000000000E+00     8.7499999999967359E-01     0.0000000000000000E+00 
    1.0000000000000000E+00     9.0624999999975520E-01     0.0000000000000000E+00 
    1.0000000000000000E+00     9.3749999999983680E-01     0.0000000000000000E+00 
    1.0000000000000000E+00     9.6874999999991840E-01     0.0000000000000000E+00 
    9.6875000000003686E-01     1.0000000000000000E+00     0.0000000000000000E+00 
    9.3750000000011691E-01     1.0000000000000000E+00     0.0000000000000000E+00 
    9.0625000000015765E-01     1.0000000000000000E+00     0.0000000000000000E+00 
    8.7500000000017863E-01     1.0000000000000000E+00     0.0000000000000000E+00 
    8.4375000000028044E-01     1.0000000000000000E+00     0.0000000000000000E+00 
    8.1250000000040856E-01     1.0000000000000000E+00     0.0000000000000000E+00 
    7.8125000000054956E-01     1.0000000000000000E+00     0.0000000000000000E+00 
    7.5000000000066480E-01     1.0000000000000000E+00     0.0000000000000000E+00 
    7.1875000000086831E-01     1.0000000000000000E+00     0.0000000000000000E+00 
    6.8750000000102829E-01     1.0000000000000000E+00     0.0000000000000000E+00 
    6.5625000000114431E-01     1.0000000000000000E+00     0.0000000000000000E+00 
    6.2500000000129829E-01     1.0000000000000000E+00     0.0000000000000000E+00 
    5.9375000000147926E-01     1.0000000000000000E+00     0.0000000000000000E+00 
    5.6250000000168354E-01     1.0000000000000000E+00     0.0000000000000000E+00 
    5.3125000000188671E-01     1.0000000000000000E+00     0.0000000000000000E+00 
    5.0000000000205835E-01     1.0000000000000000E+00     0.0000000000000000E+00 
    4.6875000000192979E-01     1.0000000000000000E+00     0.0000000000000000E+00 
    4.3750000000180111E-01     1.0000000000000000E+00     0.0000000000000000E+00 
    4.0625000000167238E-01     1.0000000000000000E+00     0.0000000000000000E+00 
    3.7500000000154382E-01     1.0000000000000000E+00     0.0000000000000000E+00 
    3.4375000000141509E-01     1.0000000000000000E+00     0.0000000000000000E+00 
    3.1250000000128642E-01     1.0000000000000000E+00     0.0000000000000000E+00 
    2.8125000000115769E-01     1.0000000000000000E+00     0.0000000000000000E+00 
    2.5000000000102918E-01     1.0000000000000000E+00     0.0000000000000000E+00 
    2.1875000000090050E-01     1.0000000000000000E+00     0.0000000000000000E+00 
    1.8750000000077180E-01     1.0000000000000000E+00     0.0000000000000000E+00 
    1.5625000000064329E-01     1.0000000000000000E+00     0.0000000000000000E+00 
    1.2500000000051459E-01     1.0000000000000000E+00     0.0000000000000000E+00 
    9.3750000000385914E-02     1.0000000000000000E+00     0.0000000000000000E+00 
    6.2500000000257239E-02     1.0000000000000000E+00     0.0000000000000000E+00 
    3.1250000000128557E-02     1.0000000000000000E+00     0.0000000000000000E+00 
    0.0000000000000000E+00     9.6875000000003686E-01     0.0000000000000000E+00 
    0.0000000000000000E+00     9.3750000000011691E-01     0.0000000000000000E+00 
    0.0000000000000000E+00     9.0625000000015765E-01     0.0000000000000000E+00 
    0.0000000000000000E+00     8.7500000000017863E-01     0.0000000000000000E+00 
    0.0000000000000000E+00     8.4375000000028044E-01     0.0000000000000000E+00 
    0.0000000000000000E+00     8.1250000000040856E-01     0.0000000000000000E+00 
    0.0000000000000000E+00     7.8125000000054956E-01     0.0000000000000000E+00 
    0.0000000000000000E+00     7.5000000000066480E-01     0.0000000000000000E+00 
    0.0000000000000000E+00     7.1875000000086831E-01     0.0000000000000000E+00 
    0.0000000000000000E+00     6.8750000000102829E-01     0.0000000000000000E+00 
    0.0000000000000000E+00     6.5625000000114431E-01     0.0000000000000000E+00 
    0.0000000000000000E+00     6.2500000000129829E-01     0.0000000000000000E+00 
    0.0000000000000000E+00     5.9375000000147926E-01     0.0000000000000000E+00 
    0.0000000000000000E+00     5.6250000000168354E-01     0.0000000000000000E+00 
    0.0000000000000000E+00     5.3125000000188671E-01     0.0000000000000000E+00 
    0.0000000000000000E+00     5.0000000000205835E-01     0.0000000000000000E+00 
    0.0000000000000000E+00     4.6875000000192979E-01     0.0000000000000000E+00 
    0.0000000000000000E+00     4.3750000000180111E-01     0.0000000000000000E+00 
    0.0000000000000000E+00     4.0625000000167238E-01     0.0000000000000000E+00 
[...]
CELL_DATA 2795 
SCALARS Pressure double 1 
LOOKUP_TABLE default 

    7.2301785284769107E+00 
    1.5648827876926342E+01 
    1.1088796859340325E+01 
    1.0802067515038472E+01 
    8.7761798188395481E+00 
    1.5494628675213647E+01 
    1.6257230899194653E+01 
    6.5036610357985776E+00 
    1.1646737507973029E+01 
    8.9585464506345254E+00 
    7.6713743978894300E+00 
    1.5224997470502545E+01 
    1.5566510341048676E+01 
    1.5463029745563142E+01 
    1.0207596021502072E+01 
    6.4024916720312222E+00 
    1.0039849850831734E+01 
    8.1518956628729171E+00 
    1.4844444831780129E+01 
    1.1072054433852340E+01 
    1.0966719718738897E+01 
    1.5392928989242202E+01 
    1.0535571681805978E+01 
    4.2998281115380688E-01 
    1.5268986264317938E+01 
    1.5523591745946000E+01 
    1.6290061576151349E+01 
    7.4380169260791504E+00 
    1.5142027871122263E+01 
    1.6275428373537000E+01 
    1.1252330191278805E+01 
    1.1281578337122616E+01 
    8.1089709444151605E+00 
    1.1051319610623192E+01 
    3.7292610503013695E+00 
    1.0041938058447410E+01 
    1.1037690089899968E+01 
    1.6315648351259885E+01 
    1.6233556184198068E+01 
    1.5238487936758576E+01 
    8.7367098092817681E+00 
    1.5237598529168551E+01 
    8.9947448903007177E-01 
    1.1042841227981404E+01 
    1.6057871026982991E+01 
    1.5830262678509969E+01 
    1.5213795532322511E+01 
    1.2062080350473884E+01 
    1.5282945649143706E+01 
    1.0248265090222096E+01 
    9.8105501589673629E+00 
    1.1245948844677619E+01 
    1.0945959993719995E+01 
    1.0096814125022977E+01 
    1.1324317640072580E+01 
    1.4624052379428274E+01 
    1.3001704688604232E+01 
    8.8214692850805765E+00 
    1.5398272633445446E+01 
    1.5317566038839475E+01 
    1.0797506425143455E+01 
    1.0669447840581965E+01 
    1.0706398608237880E+01 
    1.6175573865785630E+01 
    1.6452301424245015E+01 
    1.0053843640476890E+01 
    1.1244599030836397E+01 
    1.5072057364573311E+01 
    1.2955300461397909E+01 
    1.0710550409457456E+01 
    1.6452736645383457E+01 
    1.5380782114759613E+01 
    9.9235742926996782E+00 
    1.5950443086960560E+01 
    1.1561815211678551E+01 
    1.5118168875800253E+01 
    1.6334214900609727E+01 
    1.1614121597810792E+01 
    7.3997815525548578E+00 
    1.1262755176866239E+01 
    1.6242524973225070E+01 
    1.6474402076552565E+01 
    1.0058529357382106E+01 
    1.1186037970197930E+01 
    1.6524691553153286E+01 
    1.1037459657415591E+01 
    1.0621048213860592E+01 
    1.3406501746049459E+01 
    7.0736121527207168E+00 
    9.8395215868549037E+00 
    1.1183864909794950E+01 
    1.1806042498857998E+01 
    1.7992809462496819E+01 
    8.5420067371286308E+00 
    1.1252462484988277E+01 
    1.5190807729282323E+01 
    1.5516513559582371E+01 
    7.5833468143770322E+00 
    1.0899043476308144E+01 
    1.1216976647424083E+01 
    1.5537630705997817E+01 
    1.1210584990662797E+01 
    1.5469322103177763E+01 
    4.6931692067628212E+00 
    7.4571628599303903E+00 
    1.1469545991030682E+01 
    1.5655663670697821E+01 
    1.0007265714873727E+01 
    1.0575452048541214E+01 
    1.1191341719438713E+01 
    1.0591346649309173E+01 
    1.2620479143386657E+01 
    1.0313337576308648E+01 
    9.9326311144578412E+00 
    8.0519009286725289E+00 
    1.3255861351448653E+01 
    1.1286226821264693E+01 
    1.6087999603312891E+01 
    9.7132287218933335E+00 
    1.0784809111556104E+01 
    1.5362753068666480E+01 
    9.1760235712611014E+00 
    1.5816455648879961E+01 
    1.1112291958196661E+01 
    1.0715881905698998E+01 
    1.5519045276063837E+01 
    1.1275087241973537E+01 
    1.6343651095761750E+01 
    1.3424935951673520E+01 
    1.4455838315832615E+01 
    1.6307470728583361E+01 
    8.5579488708742648E+00 
    1.1495075662049617E+01 
    1.5514164812274554E+01 
    3.5067495491022074E+00 
    1.1302261336888359E+01 
    1.6272635462657654E+01 
    1.0744472069541105E+01 
    1.2350993237308234E+01 
    7.6001671451754396E+00 
    1.5188487237400295E+01 
    1.8473249694057817E+01 
    1.3927859882157781E+01 
    1.0743256147831989E+01 
    9.7292955604194038E+00 
    1.1973668975967197E+01 
    1.1129407525831224E+01 
    7.7650873889479222E+00 
    1.6301499782206157E+01 
    1.5535801177138266E+01 
    1.5192554581500060E+01 
    1.1820745343423793E+01 
    9.9000993638465005E+00 
    1.0963123611095805E+01 
    1.5987810452096022E+01 
    1.0140913324031816E+01 
    1.1207447301981112E+01 
    1.0301604963833194E+01 
    1.2952047914635392E+01 
    1.8461484227639808E+01 
    1.5183818565024399E+01 
    9.8898899724864453E+00 
    1.5715328640466076E+01 
    1.5615054304852576E+01 
    1.5695718635977444E+01 
    1.6724971901422723E+01 
    1.7272791015282962E+01 
    1.5825366484943558E+01 
    1.1236361953887561E+01 
    1.2140273350970563E+01 
    1.5659339255302728E+01 
    1.6104380846223766E+01 
    8.1025849010025954E+00 
    1.5213412136682216E+01 
    1.5950969594626837E+01 
    7.8815981950043801E+00 
    1.6644765009806399E+01 
    1.6621150915314264E+01 
    1.4916084300473859E+01 
    1.1577715674411214E+01 
    3.0667413942245871E+00 
    1.6272145849388213E+01 
    1.1410619754202715E+01 
    1.6399810825712123E+01 
    1.0677025047274910E+01 
    1.6099941628863540E+01 
    1.1181326437346311E+00 
    1.4463495511317824E+01 
    1.0715253931442231E+01 
    9.8571208003399899E+00 
    9.6244373905011038E+00 
    1.1080582946203549E+01 
    1.2238656282320010E+01 
    1.1674918055319612E+01 
    8.1666319549363582E+00 
    1.6093826657861236E+01 
    1.5534945281004816E+01 
    1.3082047861109677E+01 
    1.1463270874652764E+01 
    1.7792505952436612E+00 
    8.9306571150841574E+00 
    6.3569694541928268E+00 
    1.6287514999555558E+01 
    1.2453252867911093E+01 
    1.5563171810571403E+01 
    1.5604272997366989E+01 
    1.0219538725963345E+01 
    1.3003042281529630E+01 
    1.5187459683280434E+01 
    1.6606597719286903E+01 
    7.5512490954238656E+00 
    1.3854782010665421E+01 
    1.1620223018679868E+01 
    6.7472013557710868E+00 
    1.0210276683238149E+01 
    1.3611040048376008E+01 
    1.5564231795405922E+01 
    1.1133335962670547E+01 
    1.5674654927522932E+01 
    1.5439832013826694E+01 
    1.5386166871057902E+01 
    1.0968088363561105E+01 
    9.7649171779482842E+00 
    1.5200938177662241E+01 
    9.9201452544171307E+00 
    1.1217615879649117E+01 
    9.7454173712987959E+00 
    1.1175843707084146E+01 
    1.5614456620705337E+01 
    7.0416572288245449E+00 
    1.0121340071159855E+01 
    1.6202976211869892E+01 
    1.0978421236892180E+01 
    1.2347236722037580E+01 
    7.2213638641999793E+00 
    9.9767452264060630E+00 
    1.5418855209776051E+01 
    1.5730768947089450E+01 
    5.9254519074334464E+00 
    1.0988319501934521E+01 
    9.7960836610136610E+00 
    1.7038314044704478E+01 
    1.6485348662351011E+01 
    1.7300238672725481E+01 
    1.1008889232759568E+01 
    1.5585557343741668E+01 
    1.5140040196715354E+01 
    1.0869700878374793E+01 
    1.5192964372046291E+01 
    1.1465010132638303E+01 
    6.8327348917303148E+00 
    1.1341122189015179E+01 
    1.6187506420853492E+01 
    1.5189639958326897E+01 
    7.6583727777441224E+00 
    1.5220698985114346E+01 
    1.2260886929215301E+01 
    1.1282779889377636E+01 
    1.0819838680766965E+01 
    1.5050107508106150E+01 
    1.1808036977671158E+01 
    1.5206447072346151E+01 
    1.0979711580486347E+01 
    7.0594355827069810E+00 
    1.1294530556273628E+01 
    9.6329330294053062E+00 
    1.3939773851224295E+01 
    1.6395099551959646E+01 
    1.5198908912341590E+01 
    1.6265625431661707E+01 
    1.0921715405317824E+01 
    7.4517060177000243E+00 
    7.5491057730887530E+00 
    1.1470779672602282E+01 
    1.1191199258334022E+01 
    1.7215163857127269E+00 
    1.4668306281061332E+01 
    1.6760459432155379E+01 
    1.0690278881963820E+01 
    7.1050293784345229E+00 
    1.2925095642727355E+01 
    1.5219196905372787E+01 
    8.2980757421773514E+00 
    5.7436531810179714E+00 
    1.1172285354533502E+01 
    1.5299294106106306E+01 
    1.5997543148024974E+01 
    1.5880305720718441E+01 
    1.5732593872136560E+01 
    8.1612812190700197E+00 
    1.1275683978404452E+01 
    1.4772969333859157E+01 
    8.7991262020349872E+00 
    1.5553114541014395E+01 
    1.3244002253048151E+01 
    7.6474805154605097E+00 
    1.5328625836466939E+01 
    1.6298209313366630E+01 
    1.5386240633963647E+01 
    8.0050154678908214E+00 
    1.1240743745433692E+01 
    8.7510298824263675E+00 
    1.0619731106828135E+01 
    1.5210173777118579E+01 
    1.5197760958337788E+01 
    8.0500968503692842E+00 
    1.6142999550478770E+01 
    1.1795926886802857E+01 
    1.5230858282246739E+01 
    1.6116213778243317E+01 
    1.5218263042485782E+01 
    1.4182113916155151E+01 
    1.7093141860460282E+01 
    1.0646128817845087E+01 
    1.6233480254320490E+01 
    1.5258912360775366E+01 
    1.6309324213411607E+01 
    1.6135464698674987E+01 
    1.0745201863830861E+01 
    1.1078484788107556E+01 
    1.0680974220346659E+01 
    1.3647253690593038E+01 
    4.7031447599464036E+00 
    1.1405978815838383E+01 
    1.7220049356324523E+01 
    1.1465757240124006E+01 
    1.1663972788405879E+01 
    1.6281103824832112E+01 
    1.6522145878737817E+01 
    1.0574537136320695E+01 
    1.5225345263384080E+01 
    1.5193743147045765E+01 
    1.1650723186286822E+01 
    1.6089219674726305E+01 
    8.0250709504262669E+00 
    5.1824313647671270E+00 
    1.1950176284823415E+01 
    1.1479676533229879E+01 
    1.5199493790902743E+01 
    7.5626873457135151E+00 
    1.5797989094674525E+01 
    5.2945145529239044E+00 
    1.1414643600729613E+01 
    1.0781643052406110E+01 
    1.1217628103627558E+01 
    1.8510694113058285E+01 
    4.5721552558130094E+00 
    1.1320516492787766E+01 
    1.3458865109547377E+01 
    1.0816227987464037E+01 
    8.9042512309896988E+00 
    1.5910552043948872E+01 
    1.8086102895291223E+01 
    1.6066808609665564E+01 
    1.1259497000861080E+01 
    6.7086296584950871E+00 
    1.7930216556282254E+01 
    1.5528344544541119E+01 
    8.5774788722174193E+00 
    1.0891984413790068E+01 
    1.6707197038337625E+01 
    3.8806874284646899E+00 
    1.1533614108684981E+01 
    1.6045399174410363E+01 
    1.1232131237258466E+01 
    9.8048107962489670E+00 
    1.1361626338500386E+01 
    1.4991336380032273E+01 
    1.1213917500989741E+01 
    5.9969001104400173E+00 
    1.1069542779258597E+00 
    8.4113924671689428E+00 
    1.6934443864092810E+01 
    1.0679746664414294E+01 
    1.2646871220163771E+01 
    1.2126457548441227E+01 
    1.3929817859414285E+01 
    1.1245723759048440E+01 
    1.5438134201706420E+01 
    1.8524706026687220E+01 
    1.3312679815573981E+01 
    1.6204339105004706E+01 
    6.4231790866875837E-01 
    1.5199868737952633E+01 
    6.6357341406793111E+00 
    1.7388662227515468E+01 
    1.1334599421440434E+01 
    9.9830908443942636E+00 
    8.9131097329105913E+00 
    6.2750503500465458E+00 
    1.2565707368029209E+01 
    8.8983203155966475E+00 
    1.3828054104961090E+01 
    2.6011020080573317E+00 
    1.2299130873665144E+01 
    1.5127600866128384E+01 
    6.8568901556074300E+00 
    1.5682602774578491E+01 
    1.7199568744747602E+01 
    1.5526991274489859E+01 
    1.1197070422977628E+01 
    1.1211925501057515E+01 
    1.1327066309468943E+01 
    6.7759321850234597E+00 
    1.0409378562113302E+01 
    1.0255456734936347E+01 
    1.1315745893314061E+01 
    1.0613769128221584E+01 
    8.2589347328248108E-01 
    7.5369901365341274E+00 
    1.1007694939010618E+01 
    1.1290150102762823E+01 
    1.4197802648648125E+01 
    2.5367667174020623E+00 
    1.1607973856604016E+01 
    1.1485875556926455E+01 
    4.3968540383496810E+00 
    1.5386225229567078E+01 
    9.9302497265423870E+00 
    1.1345170608367754E+01 
    1.5529127125117020E+01 
    6.3031094755165284E+00 
    1.5501930659118816E+01 
    1.0050740507389529E+01 
    1.1496100089147971E+00 
    1.0741093832602262E+01 
    1.6158205995059031E+01 
    1.5199765775255708E+01 
    1.5219553781099972E+01 
    1.1683080903492549E+01 
    1.1417897206257662E+01 
    9.9154755144797129E+00 
    8.2005011058327923E+00 
    1.5642387161360848E+01 
    1.0886197946095892E+01 
    7.9647059490168575E+00 
    1.5214568810443822E+01 
    1.5933294111359327E+01 
    1.1493880784528576E+01 
    1.1027028980284976E+01 
    1.8405850473675258E+01 
    1.1651701497990462E+01 
    1.5655036642206701E+01 
    9.4685168455897522E+00 
    1.8552606645291057E+01 
    7.5043303979974176E+00 
    1.0315232767952873E+01 
    8.3698647911331463E+00 
    1.1897237312164895E+01 
    9.5530880719423745E+00 
    1.8536379063029887E+01 
    1.1702707300566194E+01 
    1.4927577193603248E+01 
    7.7131979383360019E+00 
    1.1240855471019341E+01 
    1.5491611267796829E+01 
    9.5805322766089027E+00 
    8.5195635661836810E+00 
    1.2559430767915323E+01 
    1.5713890778617220E+01 
    8.2479269261239061E+00 
    1.0802664581375682E+01 
    1.1062094125927597E+01 
    1.5174092223974245E+01 
    1.0843582071573994E+01 
    1.5692704785693589E+01 
    1.6339391658342354E+01 
    9.9451834323197197E+00 
    9.7666426651973541E+00 
    8.9286526891263591E+00 
    1.5323379734437470E+01 
    1.1516294990221247E+01 
    1.8121973123381597E+01 
    1.4261298970803699E+01 
    1.5453781558583655E+01 
    1.7804658190394093E+01 
    1.7200746904166792E+01 
    1.1287638031897014E+01 
    1.1300252789659563E+01 
    1.4941164076003497E+01 
    1.5239974926178162E+01 
    1.5820845031622133E+01 
    1.5551182199446014E+01 
    1.8427709620845690E+01 
    1.1651197205349705E+01 
    1.0046492376791486E+01 
    1.1658263275818642E+01 
    1.6248747604420004E+01 
    1.1383140338981859E+01 
    6.7530566390592019E+00 
    1.1180667034369208E+01 
    1.6678294170731292E+01 
    1.1523407026057033E+01 
    1.0052330824786432E+01 
    1.1002002280455567E+01 
    1.6789161974226694E+01 
    1.5285114733257700E+01 
    9.6161823001564688E+00 
    1.6930421438231555E+01 
    1.1316194314729922E+01 
    1.5801265791210257E+01 
    1.6804276816129132E+01 
    1.1920879511541747E+01 
    6.3198423536947503E+00 
    1.2399420908531249E+01 
    6.5231081588251723E+00 
    1.1433123551750649E+01 
    1.1235825635544588E+01 
    1.3112659519275995E+01 
    6.8843663768405436E+00 
    1.3927770726505504E+01 
    1.1253378235259394E+01 
    1.5540100704620498E+01 
    1.2015137772961108E+01 
    9.4634692990808507E+00 
    1.0862200602973889E+01 
    1.1842505402351025E+01 
    1.1761654406418844E+01 
    1.6390921576403926E+01 
    9.6455525336751524E+00 
    9.4899560609257900E+00 
    7.2210855228631941E+00 
    1.5844859411266579E+01 
    1.0909059995448922E+01 
    1.5090536872038070E+01 
    1.1204928468682956E+01 
    7.8534694760513863E+00 
    1.5328380220138493E+01 
    1.1181064203579204E+01 
    8.5129623467329640E+00 
    8.9810406847727169E+00 
    9.2744092058007546E+00 
    1.5573301862955795E+01 
    1.1317783982965752E+01 
    1.6216536433682396E+01 
    1.1140756673571749E+01 
    1.1079277146944236E+01 
    1.0719823352192556E+01 
    1.5410743840766434E+01 
    1.0993924291426268E+01 
    9.3188996601513256E+00 
    1.7187724104115237E+01 
    1.5493219470642847E+01 
    7.8492095642706143E+00 
    3.2165801709361217E+00 
    1.1306910184181250E+01 
    1.0552655248104545E+01 
    9.7627536783624880E+00 
    1.0519711289371214E+01 
    1.5415477913951852E+01 
    1.1009796638287497E+01 
    1.0090959924667501E+01 
    1.5263183124416493E+01 
    7.7826297595411917E+00 
    1.4902101610494714E+01 
    1.0193610271081882E+01 
    9.2990864673433826E+00 
    9.8457823116178567E+00 
    1.5888510275867436E+01 
    1.1220343991471397E+01 
    1.1228608566205958E+01 
    6.9588764009892179E+00 
    7.4883152924890801E+00 
    1.4205790597531138E+01 
    1.1238425401104530E+01 
    1.1348034689220846E+01 
    1.6914086398847608E+01 
    9.4857069575130808E+00 
    1.1250666140568857E+01 
    8.0437965780432741E+00 
    8.2927347227594002E+00 
    1.5407742473633848E+01 
    1.0872684553222983E+01 
    8.2102143565996837E+00 
    1.1815174221990137E+01 
    1.1134899553598705E+01 
    1.5410355153653965E+01 
    1.7008533854495703E+01 
    1.2227665557294272E+00 
    1.1311909796534868E+01 
    1.1478084739048592E+01 
    1.5471269890207505E+01 
    1.0812413572247568E+01 
    1.1193397065911883E+01 
    1.6449269268683683E+01 
    9.8807062944707695E+00 
    8.2800299361982486E+00 
    1.3419437837738204E+01 
    1.5214327888487038E+01 
    1.6308561973787423E+01 
    1.6577586344712255E+01 
    1.1151255048226361E+01 
    1.1303354818221703E+01 
    1.2578718265183038E+01 
    7.4874360369905801E+00 
    1.5350315687050085E+01 
    8.8817760539697961E+00 
    7.7712745865157311E+00 
    1.3942761445608866E+01 
    1.3200637348827746E+01 
    7.6332023847950818E+00 
    1.5252236880475662E+01 
    1.6293584195410620E+01 
    1.1667962970193683E+01 
    1.7111415214240761E+01 
    1.5287567766191204E+01 
    1.0881103793387251E+01 
    1.6020406342684467E+01 
    8.2821673199376100E+00 
    1.5234093613020242E+01 
    1.1310887575273277E+01 
    1.1271020464192137E+01 
    1.7087090477076526E+01 
    1.0948564442603193E+01 
    1.3728916400980761E+01 
    9.8254057999026934E+00 
    1.6415406283139589E+01 
    1.5135073930879219E+01 
    1.0208546446287212E+01 
    1.5188351104893618E+01 
    1.0191497945711317E+01 
    1.1201541700270585E+01 
    1.6250959504684715E+01 
    1.5549233402618144E+01 
    1.6296951027884290E+01 
    1.5475538045443328E+01 
    1.0420004045502747E+01 
    1.0636781461508892E+01 
    1.6304109378630475E+01 
    1.0762771374107210E+01 
    1.5054332510840378E+01 
    1.0933188322026457E+01 
    4.7456949109968996E+00 
    7.8422458574876961E+00 
    7.2840917250462889E+00 
    1.6254591934391481E+01 
    1.7014804910033170E+01 
    1.5207620414468057E+01 
    1.2850578754139892E+01 
    1.5520849659478086E+01 
    1.5260522672690932E+01 
    1.5883086266293020E+01 
    6.7387220101361134E+00 
    4.4209848195824266E+00 
    1.2620123195722718E+01 
    1.0970778136031555E+01 
    1.5417814042186874E+01 
    1.5415296847358036E+01 
    1.1503992229242321E+01 
    1.5454673680889215E+01 
    1.1297579571271770E+01 
    1.1202626443356866E+01 
    6.1080672659019148E+00 
    4.4034663846561184E+00 
    1.6784399327789419E+01 
    8.7935163027471202E+00 
    1.0140371478267239E+01 
    1.1394322459288272E+01 
    1.8407653349709012E+01 
    1.1487700038602329E+01 
    1.1605519157431599E+01 
    5.0110381177247634E+00 
    1.1488489278391164E+01 
    1.1503142518756647E+01 
    1.5732793480634889E+01 
    9.8499082965821927E+00 
    1.0757476570008416E+01 
    1.6958041560829557E+01 
    1.1320375001576883E+01 
    1.5224598521613117E+01 
    1.5471649813273785E+01 
    1.3687570387387089E+01 
    9.5626216699924758E+00 
    1.5476065252134783E+01 
    1.1110750021299829E+01 
    1.5401794496916235E+01 
    1.5159748839274430E+01 
    1.6274898252446995E+01 
    1.5469620567782341E+01 
    1.4497937195338290E+01 
    1.1308949300053676E+01 
    7.5653776750480199E+00 
    1.8282010805466378E+01 
    9.0558825668454865E+00 
    1.6192160590601478E+01 
    1.1306301321965499E+01 
    9.5367814852502377E+00 
    5.8151753512627229E+00 
    1.1541827505039214E+01 
    1.5461434849253621E+01 
    1.5460030148960277E+01 
    1.1181902833848685E+01 
    1.1300345714119137E+01 
    1.7169909279218352E+01 
    1.6519418071777313E+01 
    1.1507093949630363E+01 
    4.1112130016842805E+00 
    1.4378007377504918E+01 
    1.8534000474153270E+01 
    1.1312340589343636E+01 
    1.3254513990237097E+01 
    1.0810328128382793E+01 
    1.8140045461598316E+01 
    1.6603693357964950E+01 
    1.6345164303753826E+01 
    1.1529389463061619E+01 
    5.3553313314343294E+00 
    1.0768885915722509E+01 
    1.0834747243622383E+01 
    1.0878394564530225E+01 
    4.4778154794303617E+00 