# vtk DataFile Version 2.0
Pressure Field Data 
ASCII 
DATASET UNSTRUCTURED_GRID 

POINTS 2860 double 

    0.0000000000000000E+00     0.0000000000000000E+00     0.0000000000000000E+00 
    1.0000000000000000E+00     0.0000000000000000E+00     0.0000000000000000E+00 
    1.0000000000000000E+00     1.0000000000000000E+00     0.0000000000000000E+00 
    0.0000000000000000E+00     1.0000000000000000E+00     0.0000000000000000E+00 
    2.5000000000000000E-01     2.5000000000000000E-01     0.0000000000000000E+00 
    7.5000000000000000E-01     2.5000000000000000E-01     0.0000000000000000E+00 
    7.5000000000000000E-01     7.5000000000000000E-01     0.0000000000000000E+00 
    2.5000000000000000E-01     7.5000000000000000E-01     0.0000000000000000E+00 
    3.1249999999942091E-02     0.0000000000000000E+00     0.0000000000000000E+00 
    6.2499999999873469E-02     0.0000000000000000E+00     0.0000000000000000E+00 
    9.3749999999826514E-02     0.0000000000000000E+00     0.0000000000000000E+00 
    1.2499999999977961E-01     0.0000000000000000E+00     0.0000000000000000E+00 
    1.5624999999968961E-01     0.0000000000000000E+00     0.0000000000000000E+00 
    1.8749999999959971E-01     0.0000000000000000E+00     0.0000000000000000E+00 
    2.1874999999950970E-01     0.0000000000000000E+00     0.0000000000000000E+00 
    2.4999999999941969E-01     0.0000000000000000E+00     0.0000000000000000E+00 
    2.8124999999932920E-01     0.0000000000000000E+00     0.0000000000000000E+00 
    3.1249999999923850E-01     0.0000000000000000E+00     0.0000000000000000E+00 
    3.4374999999914790E-01     0.0000000000000000E+00     0.0000000000000000E+00 
    3.7499999999905720E-01     0.0000000000000000E+00     0.0000000000000000E+00 
    4.0624999999896660E-01     0.0000000000000000E+00     0.0000000000000000E+00 
    4.3749999999887590E-01     0.0000000000000000E+00     0.0000000000000000E+00 
    4.6874999999878530E-01     0.0000000000000000E+00     0.0000000000000000E+00 
    4.9999999999869471E-01     0.0000000000000000E+00     0.0000000000000000E+00 
    5.3124999999877620E-01     0.0000000000000000E+00     0.0000000000000000E+00 
    5.6249999999885780E-01     0.0000000000000000E+00     0.0000000000000000E+00 
    5.9374999999893940E-01     0.0000000000000000E+00     0.0000000000000000E+00 
    6.2499999999902101E-01     0.0000000000000000E+00     0.0000000000000000E+00 
    6.5624999999910261E-01     0.0000000000000000E+00     0.0000000000000000E+00 
    6.8749999999918421E-01     0.0000000000000000E+00     0.0000000000000000E+00 
    7.1874999999926570E-01     0.0000000000000000E+00     0.0000000000000000E+00 
    7.4999999999934730E-01     0.0000000000000000E+00     0.0000000000000000E+00 
    7.8124999999942890E-01     0.0000000000000000E+00     0.0000000000000000E+00 
    8.1249999999951039E-01     0.0000000000000000E+00     0.0000000000000000E+00 
    8.4374999999959199E-01     0.0000000000000000E+00     0.0000000000000000E+00 
    8.7499999999967359E-01     0.0000000000000000E+00     0.0000000000000000E+00 
    9.0624999999975520E-01     0.0000000000000000E+00     0.0000000000000000E+00 
    9.3749999999983680E-01     0.0000000000000000E+00     0.0000000000000000E+00 
    9.6874999999991840E-01     0.0000000000000000E+00     0.0000000000000000E+00 
    1.0000000000000000E+00     3.1249999999942091E-02     0.0000000000000000E+00 
    1.0000000000000000E+00     6.2499999999873469E-02     0.0000000000000000E+00 
    1.0000000000000000E+00     9.3749999999826514E-02     0.0000000000000000E+00 
    1.0000000000000000E+00     1.2499999999977961E-01     0.0000000000000000E+00 
    1.0000000000000000E+00     1.5624999999968961E-01     0.0000000000000000E+00 
    1.0000000000000000E+00     1.8749999999959971E-01     0.0000000000000000E+00 
    1.0000000000000000E+00     2.1874999999950970E-01     0.0000000000000000E+00 
    1.0000000000000000E+00     2.4999999999941969E-01     0.0000000000000000E+00 
    1.0000000000000000E+00     2.8124999999932920E-01     0.0000000000000000E+00 
    1.0000000000000000E+00     3.1249999999923850E-01     0.0000000000000000E+00 
    1.0000000000000000E+00     3.4374999999914790E-01     0.0000000000000000E+00 
    1.0000000000000000E+00     3.7499999999905720E-01     0.0000000000000000E+00 
    1.0000000000000000E+00     4.0624999999896660E-01     0.0000000000000000E+00 
    1.0000000000000000E+00     4.3749999999887590E-01     0.0000000000000000E+00 
    1.0000000000000000E+00     4.6874999999878530E-01     0.0000000000000000E+00 
    1.0000000000000000E+00     4.9999999999869471E-01     0.0000000000000000E+00 
    1.0000000000000000E+00     5.3124999999877620E-01     0.0000000000000000E+00 
    1.0000000000000000E+00     5.6249999999885780E-01     0.0000000000000000E+00 
    1.0000000000000000E+00     5.9374999999893940E-01     0.0000000000000000E+00 
    1.0000000000000000E+00     6.2499999999902101E-01     0.0000000000000000E+00 
    1.0000000000000000E+00     6.5624999999910261E-01     0.0000000000000000E+00 
    1.0000000000000000E+00     6.8749999999918421E-01     0.0000000000000000E+00 
    1.0000000000000000E+00     7.1874999999926570E-01     0.0000000000000000E+00 
    1.0000000000000000E+00     7.4999999999934730E-01     0.0000000000000000E+00 
    1.0000000000000000E+00     7.8124999999942890E-01     0.0000000000000000E+00 
    1.0000000000000000E+00     8.1249999999951039E-01     0.0000000000000000E+00 
    1.0000000000000000E+00     8.4374999999959199E-01     0.0000000000000000E+00 
    1.0000000000000000E+00     8.7499999999967359E-01     0.0000000000000000E+00 
    1.0000000000000000E+00     9.0624999999975520E-01     0.0000000000000000E+00 
    1.0000000000000000E+00     9.3749999999983680E-01     0.0000000000000000E+00 
    1.0000000000000000E+00     9.6874999999991840E-01     0.0000000000000000E+00 
    9.6875000000003686E-01     1.0000000000000000E+00     0.0000000000000000E+00 
    9.3750000000011691E-01     1.0000000000000000E+00     0.0000000000000000E+00 
    9.0625000000015765E-01     1.0000000000000000E+00     0.0000000000000000E+00 
    8.7500000000017863E-01     1.0000000000000000E+00     0.0000000000000000E+00 
    8.4375000000028044E-01     1.0000000000000000E+00     0.0000000000000000E+00 
    8.1250000000040856E-01     1.0000000000000000E+00     0.0000000000000000E+00 
    7.8125000000054956E-01     1.0000000000000000E+00     0.0000000000000000E+00 
    7.5000000000066480E-01     1.0000000000000000E+00     0.0000000000000000E+00 
    7.1875000000086831E-01     1.0000000000000000E+00     0.0000000000000000E+00 
    6.8750000000102829E-01     1.0000000000000000E+00     0.0000000000000000E+00 
    6.5625000000114431E-01     1.0000000000000000E+00     0.0000000000000000E+00 
    6.2500000000129829E-01     1.0000000000000000E+00     0.0000000000000000E+00 
    5.9375000000147926E-01     1.0000000000000000E+00     0.0000000000000000E+00 
    5.6250000000168354E-01     1.0000000000000000E+00     0.0000000000000000E+00 
    5.3125000000188671E-01     1.0000000000000000E+00     0.0000000000000000E+00 
    5.0000000000205835E-01     1.0000000000000000E+00     0.0000000000000000E+00 
    4.6875000000192979E-01     1.0000000000000000E+00     0.0000000000000000E+00 
    4.3750000000180111E-01     1.0000000000000000E+00     0.0000000000000000E+00 
    4.0625000000167238E-01     1.0000000000000000E+00     0.0000000000000000E+00 
    3.7500000000154382E-01     1.0000000000000000E+00     0.0000000000000000E+00 
    3.4375000000141509E-01     1.0000000000000000E+00     0.0000000000000000E+00 
    3.1250000000128642E-01     1.0000000000000000E+00     0.0000000000000000E+00 
    2.8125000000115769E-01     1.0000000000000000E+00     0.0000000000000000E+00 
    2.5000000000102918E-01     1.0000000000000000E+00     0.0000000000000000E+00 
    2.1875000000090050E-01     1.0000000000000000E+00     0.0000000000000000E+00 
    1.8750000000077180E-01     1.0000000000000000E+00     0.0000000000000000E+00 
    1.5625000000064329E-01     1.0000000000000000E+00     0.0000000000000000E+00 
    1.2500000000051459E-01     1.0000000000000000E+00     0.0000000000000000E+00 
    9.3750000000385914E-02     1.0000000000000000E+00     0.0000000000000000E+00 
    6.2500000000257239E-02     1.0000000000000000E+00     0.0000000000000000E+00 
    3.1250000000128557E-02     1.0000000000000000E+00     0.0000000000000000E+00 
    0.0000000000000000E+00     9.6875000000003686E-01     0.0000000000000000E+00 
    0.0000000000000000E+00     9.3750000000011691E-01     0.0000000000000000E+00 
    0.0000000000000000E+00     9.0625000000015765E-01     0.0000000000000000E+00 
    0.0000000000000000E+00     8.7500000000017863E-01     0.0000000000000000E+00 
    0.0000000000000000E+00     8.4375000000028044E-01     0.0000000000000000E+00 
    0.0000000000000000E+00     8.1250000000040856E-01     0.0000000000000000E+00 
    0.0000000000000000E+00     7.8125000000054956E-01     0.0000000000000000E+00 
    0.0000000000000000E+00     7.5000000000066480E-01     0.0000000000000000E+00 
    0.0000000000000000E+00     7.1875000000086831E-01     0.0000000000000000E+00 
    0.0000000000000000E+00     6.8750000000102829E-01     0.0000000000000000E+00 
    0.0000000000000000E+00     6.5625000000114431E-01     0.0000000000000000E+00 
    0.0000000000000000E+00     6.2500000000129829E-01     0.0000000000000000E+00 
    0.0000000000000000E+00     5.9375000000147926E-01     0.0000000000000000E+00 
    0.0000000000000000E+00     5.6250000000168354E-01     0.0000000000000000E+00 
    0.0000000000000000E+00     5.3125000000188671E-01     0.0000000000000000E+00 
    0.0000000000000000E+00     5.0000000000205835E-01     0.0000000000000000E+00 
    0.0000000000000000E+00     4.6875000000192979E-01     0.0000000000000000E+00 
    0.0000000000000000E+00     4.3750000000180111E-01     0.0000000000000000E+00 
    0.0000000000000000E+00     4.0625000000167238E-01     0.0000000000000000E+00 
[...]
CELL_DATA 2795 
SCALARS Pressure double 1 
LOOKUP_TABLE default 

    8.6238878890272161E+00 
    1.9257690273348103E+01 
    1.3540030430999241E+01 
    1.3224116825571226E+01 
    1.0604737480619248E+01 
    1.9012516452406167E+01 
    2.0027209727207854E+01 
    7.7037776219143952E+00 
    1.4098186984286157E+01 
    1.0844416172151606E+01 
    9.2313815772981442E+00 
    1.8623135693598066E+01 
    1.9139457458294181E+01 
    1.8962494004883627E+01 
    1.2545682781362192E+01 
    7.5712319353735626E+00 
    1.2250804295346525E+01 
    9.8339106365165829E+00 
    1.8054382635078827E+01 
    1.3518858583615417E+01 
    1.3415732187810374E+01 
    1.8860549260777770E+01 
    1.2893939838382826E+01 
    5.3590752350385296E-01 
    1.8614614640083676E+01 
    1.9091383864784454E+01 
    2.0070517978121824E+01 
    8.8895071973878572E+00 
    1.8491262818285616E+01 
    2.0057770208232288E+01 
    1.3743329533861164E+01 
    1.3723367332878988E+01 
    9.6526012971939075E+00 
    1.3503188028746457E+01 
    4.4492950160373441E+00 
    1.2254546623204270E+01 
    1.3487526112433333E+01 
    2.0108637264584093E+01 
    1.9998773510242646E+01 
    1.8641923043273245E+01 
    1.0465598029820590E+01 
    1.8673720015871421E+01 
    1.1015611722665564E+00 
    1.3502148862714902E+01 
    1.9832102479381714E+01 
    1.9423520815868343E+01 
    1.8607183441372626E+01 
    1.4521825346416755E+01 
    1.8640555456312519E+01 
    1.2526435654151305E+01 
    1.1953157911285242E+01 
    1.3685541852245873E+01 
    1.3386114540066236E+01 
    1.2320062542803068E+01 
    1.3826032799087127E+01 
    1.7742527508486724E+01 
    1.5736928783456444E+01 
    1.0663377211186273E+01 
    1.8872913497885737E+01 
    1.8742128103129712E+01 
    1.3185299763604281E+01 
    1.3041212189687021E+01 
    1.3108883472513046E+01 
    1.9930735082664320E+01 
    2.0309228740148249E+01 
    1.2267314801042426E+01 
    1.3683631753548916E+01 
    1.8316365687427478E+01 
    1.5554183516072388E+01 
    1.3122998042775203E+01 
    2.0270197712379868E+01 
    1.8845126671813528E+01 
    1.2104298853610418E+01 
    1.9556202041622679E+01 
    1.4107744792817497E+01 
    1.8444600001125711E+01 
    2.0137478965767137E+01 
    1.4138026087584166E+01 
    8.7003510333479213E+00 
    1.3703044799823934E+01 
    2.0008698631657396E+01 
    2.0309265453628399E+01 
    1.2270627229818079E+01 
    1.3629214282155353E+01 
    2.0372585323261699E+01 
    1.3484785826267540E+01 
    1.3002791051919727E+01 
    1.6107736735014619E+01 
    8.3471105975064521E+00 
    1.1992556408965918E+01 
    1.3625677075253364E+01 
    1.4257878429918744E+01 
    2.2104119536403232E+01 
    1.0300916802765371E+01 
    1.3691990834116105E+01 
    1.8574337193705464E+01 
    1.9052941784821382E+01 
    9.0596632919875564E+00 
    1.3340844280910980E+01 
    1.3660858844662203E+01 
    1.9094775672438651E+01 
    1.3648108627012052E+01 
    1.8960683472181735E+01 
    5.5037277446732871E+00 
    8.9689715624329338E+00 
    1.3924648222224862E+01 
    1.9269019096973697E+01 
    1.2212399580741627E+01 
    1.2900476885751173E+01 
    1.3621437027674848E+01 
    1.2963772931144623E+01 
    1.5303329886716361E+01 
    1.2571397979417496E+01 
    1.2113908086770971E+01 
    9.4601204897627174E+00 
    1.6106286847548297E+01 
    1.3728770212413714E+01 
    1.9823276089214179E+01 
    1.1783316856609911E+01 
    1.3200304870658018E+01 
    1.8847708489062445E+01 
    1.1081441351640819E+01 
    1.9506799033140609E+01 
    1.3557788217571842E+01 
    1.3119012723046941E+01 
    1.9059768253766865E+01 
    1.3716246731131410E+01 
    2.0143334658674686E+01 
    1.6137593806110182E+01 
    1.7500478647974901E+01 
    2.0092609250379102E+01 
    1.0322220117829591E+01 
    1.3945831793694927E+01 
    1.9064595297133273E+01 
    4.1106825148801898E+00 
    1.3800279518364237E+01 
    2.0048335008684571E+01 
    1.3150038763234539E+01 
    1.4973076434400479E+01 
    8.9246874125013296E+00 
    1.8580632806606793E+01 
    2.2644763933188543E+01 
    1.6773549480392369E+01 
    1.3152440705925299E+01 
    1.1844689470787896E+01 
    1.4596123067368662E+01 
    1.3575113855167551E+01 
    9.3496698977889512E+00 
    2.0089113363208345E+01 
    1.9032765310595579E+01 
    1.8577280543284218E+01 
    1.4258535215169747E+01 
    1.2054018577937988E+01 
    1.3409733482573911E+01 
    1.9589297530732541E+01 
    1.2386001997002603E+01 
    1.3691839135450456E+01 
    1.2593984326765398E+01 
    1.5867489276199743E+01 
    2.2631800796987687E+01 
    1.8560023568547891E+01 
    1.1899147886718888E+01 
    1.9339340318405963E+01 
    1.9213188208346530E+01 
    1.9322070742042918E+01 
    2.0624808386772937E+01 
    2.1283199417710694E+01 
    1.9393891221562900E+01 
    1.3674748592311650E+01 
    1.4754349134131884E+01 
    1.9159188169139004E+01 
    1.9817094493968472E+01 
    9.8028916504116683E+00 
    1.8603925651416020E+01 
    1.9529660313357972E+01 
    9.5228409765608202E+00 
    2.0532093485554963E+01 
    2.0494461852269421E+01 
    1.8151132791853072E+01 
    1.4022694959527357E+01 
    3.6350012727937218E+00 
    2.0050982606100245E+01 
    1.3858422994442213E+01 
    2.0224314012693082E+01 
    1.3064322833069767E+01 
    1.9760563469483248E+01 
    1.3657903465238048E+00 
    1.7495295400837872E+01 
    1.3091994270546726E+01 
    1.2015599848298471E+01 
    1.1711810532532059E+01 
    1.3524237563873317E+01 
    1.4838316477404167E+01 
    1.4203909529092899E+01 
    9.5643968994032953E+00 
    1.9823035933320014E+01 
    1.9100160466445068E+01 
    1.5700699711021556E+01 
    1.3914759055462193E+01 
    2.0979567764387737E+00 
    1.0805801013918195E+01 
    7.4613715849709816E+00 
    2.0074933746219326E+01 
    1.5164758639696416E+01 
    1.9046792219561873E+01 
    1.9194408730233889E+01 
    1.2472860112404543E+01 
    1.5816667880903623E+01 
    1.8558274081637695E+01 
    2.0478426350289759E+01 
    8.9206987717117929E+00 
    1.6815995666384410E+01 
    1.4177556825228780E+01 
    7.9522764007028046E+00 
    1.2477035948520934E+01 
    1.6522693334690377E+01 
    1.9138622100809386E+01 
    1.3575920502425324E+01 
    1.9293392452182644E+01 
    1.8963905653387389E+01 
    1.8895392852094961E+01 
    1.3412252029047517E+01 
    1.1873705823997870E+01 
    1.8590137050895660E+01 
    1.2090528729764072E+01 
    1.3658321967100241E+01 
    1.1869681651219317E+01 
    1.3636030604430180E+01 
    1.9210195401539906E+01 
    8.4568633230900296E+00 
    1.2361526299457314E+01 
    1.9964388174429583E+01 
    1.3418561963191209E+01 
    1.5038482541315030E+01 
    8.6722777635529820E+00 
    1.2177326581880434E+01 
    1.8932501546756995E+01 
    1.9369894137402394E+01 
    7.1046015915928713E+00 
    1.3435411619103187E+01 
    1.1888155220369283E+01 
    2.1006801013476615E+01 
    2.0325250157787039E+01 
    2.1318939999530951E+01 
    1.3455852113770295E+01 
    1.9167446690469678E+01 
    1.8476684119274722E+01 
    1.3302709636900682E+01 
    1.8576844054223979E+01 
    1.3915106017614546E+01 
    8.0214236014290297E+00 
    1.3852565968326155E+01 
    1.9950125364570546E+01 
    1.8570828152921191E+01 
    9.1936236674417469E+00 
    1.8616636529985378E+01 
    1.4871704782330033E+01 
    1.3775488768544296E+01 
    1.3236663229693974E+01 
    1.8354782352130247E+01 
    1.4400044820805928E+01 
    1.8597064312722694E+01 
    1.3429646023712563E+01 
    8.2556128616104463E+00 
    1.3739683352881357E+01 
    1.1713280616344218E+01 
    1.6802518955278806E+01 
    2.0207189242384029E+01 
    1.8590179800009459E+01 
    2.0039313249599314E+01 
    1.3353426118717030E+01 
    8.9456016494895785E+00 
    9.0734618521382142E+00 
    1.4000064300996856E+01 
    1.3626957035174762E+01 
    2.0793533070271071E+00 
    1.7786988056751387E+01 
    2.0675507784887369E+01 
    1.3084897402143085E+01 
    8.3965347641308874E+00 
    1.5633396824997742E+01 
    1.8609359324164927E+01 
    9.9791508604160466E+00 
    6.7793334314626517E+00 
    1.3613727696062252E+01 
    1.8724569657916895E+01 
    1.9709677915643525E+01 
    1.9432328583223438E+01 
    1.9371236400453920E+01 
    9.6942501452961576E+00 
    1.3769547736840050E+01 
    1.8041732236517692E+01 
    1.0642703656096705E+01 
    1.9119347429238498E+01 
    1.6102712744757643E+01 
    9.2032579594369306E+00 
    1.8712310348907490E+01 
    2.0090954074202422E+01 
    1.8800835369981204E+01 
    9.6072333426429353E+00 
    1.3679390632912773E+01 
    1.0572528990680267E+01 
    1.2911042075268618E+01 
    1.8601002166790835E+01 
    1.8583267904102108E+01 
    9.6690267783736665E+00 
    1.9817618195903062E+01 
    1.4314352564928175E+01 
    1.8639780832749754E+01 
    1.9874485156914137E+01 
    1.8617193125686285E+01 
    1.7098642566155903E+01 
    2.1079086808384453E+01 
    1.3017950314731282E+01 
    1.9998750048453815E+01 
    1.8668964816080830E+01 
    2.0096522789246006E+01 
    1.9805716509942197E+01 
    1.3143521948408226E+01 
    1.3528239650211367E+01 
    1.3074882979916813E+01 
    1.6398459487006654E+01 
    5.5380281731766399E+00 
    1.3922885565346762E+01 
    2.1226403879347519E+01 
    1.3921091672448080E+01 
    1.4156453704962518E+01 
    2.0060315221143309E+01 
    2.0350898438053580E+01 
    1.2897794885266935E+01 
    1.8622356146455513E+01 
    1.8579542416813268E+01 
    1.4140557535668496E+01 
    1.9739112321014289E+01 
    9.7377892377011257E+00 
    6.1994567221582999E+00 
    1.4498706180285074E+01 
    1.3935496716100412E+01 
    1.8573543705373126E+01 
    9.0444170856818129E+00 
    1.9335155179100674E+01 
    6.3330830026257567E+00 
    1.3865506802495142E+01 
    1.3155719772579372E+01 
    1.3654903543887890E+01 
    2.2683295208005550E+01 
    5.3658496883659010E+00 
    1.3821452880112261E+01 
    1.6423366265853844E+01 
    1.3239937497085805E+01 
    1.0546642384683985E+01 
    1.9576700932015228E+01 
    2.2209129911434765E+01 
    1.9734066664047134E+01 
    1.3746762073592903E+01 
    7.9246205641885945E+00 
    2.2041899555511900E+01 
    1.9083385924401728E+01 
    9.9976117964087390E+00 
    1.3325844141875830E+01 
    2.0601503401051218E+01 
    4.5747477492198927E+00 
    1.4000932510851111E+01 
    1.9798558069837675E+01 
    1.3672005908267870E+01 
    1.1896414719517345E+01 
    1.3870301151033336E+01 
    1.8161979106951186E+01 
    1.3653797455438731E+01 
    7.0662703240180491E+00 
    1.3443375812960439E+00 
    1.0187387620037310E+01 
    2.0887491439313575E+01 
    1.3074788289097704E+01 
    1.5394758203160043E+01 
    1.4777411083538196E+01 
    1.6871568805008899E+01 
    1.3686242181794418E+01 
    1.8951293064670608E+01 
    2.2698283851261216E+01 
    1.6001263599907091E+01 
    1.9961168694642215E+01 
    8.0452631757251847E-01 
    1.8584894959588038E+01 
    7.7369603476313040E+00 
    2.1422097944791101E+01 
    1.3838190589585189E+01 
    1.2166144644148963E+01 
    1.0783380969877800E+01 
    7.4231187871503401E+00 
    1.5086604543892120E+01 
    1.0792764236554049E+01 
    1.6657943093343100E+01 
    3.0652326808295407E+00 
    1.4919210876790821E+01 
    1.8461982095766302E+01 
    8.2365138103181064E+00 
    1.9208145438213496E+01 
    2.1162554506784808E+01 
    1.9031217771694294E+01 
    1.3669839292674016E+01 
    1.3647969246188094E+01 
    1.3829265261055896E+01 
    8.0449945034859702E+00 
    1.2731075902837569E+01 
    1.2532993133635511E+01 
    1.3815755628777456E+01 
    1.2987777095819219E+01 
    1.0265180801002798E+00 
    8.8397241918902907E+00 
    1.3456780284150224E+01 
    1.3784473456716444E+01 
    1.7139291523435606E+01 
    3.0083668979561016E+00 
    1.4089558349633627E+01 
    1.3944364675133750E+01 
    5.1712893166597214E+00 
    1.8839629316204338E+01 
    1.2101637679040078E+01 
    1.3791118095665434E+01 
    1.9078490814430438E+01 
    7.4512879081229553E+00 
    1.8982249506721658E+01 
    1.2269769856702213E+01 
    1.3742749168110262E+00 
    1.3148563717276057E+01 
    1.9871940288065090E+01 
    1.8587732026158157E+01 
    1.8616305270262284E+01 
    1.4251551638757702E+01 
    1.3868578594024598E+01 
    1.2097691498862286E+01 
    9.5900371260063189E+00 
    1.9253936881541655E+01 
    1.3320216262136251E+01 
    9.3006275524821387E+00 
    1.8608685656747095E+01 
    1.9573917354427387E+01 
    1.4028126460591018E+01 
    1.3470387521242063E+01 
    2.2567859290055456E+01 
    1.4141782880739783E+01 
    1.9273337628605091E+01 
    1.1487420393025550E+01 
    2.2726389219960570E+01 
    9.0216447060012772E+00 
    1.2572184319455699E+01 
    1.0216732806560053E+01 
    1.4436272047756077E+01 
    1.1722129908200348E+01 
    2.2709334686388530E+01 
    1.4202884401902603E+01 
    1.8143606003787632E+01 
    9.2866719100535260E+00 
    1.3679944164143594E+01 
    1.9035849574404857E+01 
    1.1808022398934893E+01 
    1.0003343690646428E+01 
    1.5284004158110566E+01 
    1.9300430881655192E+01 
    9.9532679120159067E+00 
    1.3183427591586758E+01 
    1.3511617447726460E+01 
    1.8545374179333667E+01 
    1.3259590483622135E+01 
    1.9319191818966729E+01 
    2.0134729072269010E+01 
    1.2128481882447034E+01 
    1.1877719782155694E+01 
    1.0803652117439235E+01 
    1.8754915253988901E+01 
    1.3964285995519118E+01 
    2.2249917347943704E+01 
    1.7312711158955043E+01 
    1.8975794161578190E+01 
    2.1895468239006700E+01 
    2.1166748975962907E+01 
    1.3729699433918691E+01 
    1.3796918382035447E+01 
    1.8170844492683120E+01 
    1.8643382652576886E+01 
    1.9517536428628201E+01 
    1.9115300925294271E+01 
    2.2595099585249496E+01 
    1.4141167364107572E+01 
    1.2262707366391686E+01 
    1.4107104402640990E+01 
    2.0017828954657901E+01 
    1.3830590603481244E+01 
    8.0832201746261632E+00 
    1.3649738454477585E+01 
    2.0569736959606811E+01 
    1.3988536960587806E+01 
    1.2273461361337764E+01 
    1.3450871432702804E+01 
    2.0705443605382406E+01 
    1.8764858100538767E+01 
    1.1608546064090822E+01 
    2.0875835339792975E+01 
    1.3759818596882045E+01 
    1.9463310039862677E+01 
    2.0721774256373674E+01 
    1.4534728867291618E+01 
    7.4545959813100158E+00 
    1.5083610892456857E+01 
    7.7077211523054157E+00 
    1.3883762396557710E+01 
    1.3677212921637922E+01 
    1.5862222723509435E+01 
    8.1461262145692963E+00 
    1.6857753367794864E+01 
    1.3693746396107182E+01 
    1.9099329658160954E+01 
    1.4682504905669379E+01 
    1.1243916457657326E+01 
    1.3298662284218555E+01 
    1.4440576236773532E+01 
    1.4272910385097902E+01 
    2.0221895156999047E+01 
    1.1737513206705097E+01 
    1.1535462909421264E+01 
    8.5587325487885995E+00 
    1.9552614342436531E+01 
    1.3348411902647436E+01 
    1.8445018402376142E+01 
    1.3644366594942726E+01 
    9.3543616440531956E+00 
    1.8787639949133688E+01 
    1.3620678884514350E+01 
    1.0220426115586035E+01 
    1.0851607777845613E+01 
    1.1246769391099287E+01 
    1.9151034699325781E+01 
    1.3818212427661466E+01 
    1.9975899018240003E+01 
    1.3580526397804013E+01 
    1.3517782165485599E+01 
    1.3083287439831652E+01 
    1.8909237612794570E+01 
    1.3425820339046641E+01 
    1.1311309887917071E+01 
    2.1154893695973890E+01 
    1.9025157777230092E+01 
    9.4823497065594768E+00 
    3.7795541775388126E+00 
    1.3805398200037347E+01 
    1.2922047730046435E+01 
    1.1890764331315292E+01 
    1.2833656658618089E+01 
    1.8893675618660033E+01 
    1.3441469833349387E+01 
    1.2303297534219082E+01 
    1.8676778373275219E+01 
    9.3726761253875619E+00 
    1.8121561320990455E+01 
    1.2424194798276355E+01 
    1.1127804411776724E+01 
    1.2003511613826749E+01 
    1.9575388028049062E+01 
    1.3657360783322551E+01 
    1.3666570585389248E+01 
    8.2791616929128331E+00 
    8.9529244738589391E+00 
    1.7193623306377095E+01 
    1.3677134000178148E+01 
    1.3854337468620681E+01 
    2.0859628602507733E+01 
    1.1527965878117280E+01 
    1.3690211323346661E+01 
    9.7127524344852851E+00 
    1.0027701902891675E+01 
    1.8866626244951995E+01 
    1.3283632492579672E+01 
    9.8751334219624241E+00 
    1.4260820769699405E+01 
    1.3582315875512849E+01 
    1.8883777995554620E+01 
    2.0972905001612933E+01 
    1.4560972608515885E+00 
    1.3811413560692959E+01 
    1.3934190983075874E+01 
    1.8997273739220851E+01 
    1.3233835640181454E+01 
    1.3627164013863855E+01 
    2.0302584047003759E+01 
    1.2046430195908995E+01 
    9.9623854441986417E+00 
    1.6260333138076525E+01 
    1.8607911468038910E+01 
    2.0092618516105443E+01 
    2.0438716862122185E+01 
    1.3617419019748288E+01 
    1.3800796549819298E+01 
    1.5149771427872173E+01 
    8.9773521281380599E+00 
    1.8805103193862674E+01 
    1.0742689440705124E+01 
    9.3678243817469795E+00 
    1.6888016705487612E+01 
    1.5877239465273218E+01 
    9.1715685671549068E+00 
    1.8660348564515058E+01 
    2.0074718421953833E+01 
    1.4161241953592237E+01 
    2.1096651992065464E+01 
    1.8709454816598054E+01 
    1.3302052703903703E+01 
    1.9654656928081888E+01 
    1.0079462555142571E+01 
    1.8633623537310726E+01 
    1.3810042920216421E+01 
    1.3763719422875573E+01 
    2.1071331364891044E+01 
    1.3395992334512494E+01 
    1.6522402466904097E+01 
    1.1966205780312400E+01 
    2.0231342034591172E+01 
    1.8477021953719998E+01 
    1.2473016337208977E+01 
    1.8577536923689131E+01 
    1.2552715457951777E+01 
    1.3633539448782784E+01 
    2.0021009785605855E+01 
    1.9112467669765586E+01 
    2.0078596320475064E+01 
    1.9001274690061404E+01 
    1.2746616331660800E+01 
    1.2997709632254223E+01 
    2.0088729300728811E+01 
    1.3155496903191608E+01 
    1.8335277860033042E+01 
    1.3372406974616091E+01 
    5.5767291591814905E+00 
    9.4461301693685833E+00 
    8.7554762087088527E+00 
    2.0025418597548757E+01 
    2.0982022444345752E+01 
    1.8600251351897931E+01 
    1.5576243006372284E+01 
    1.9013395002705579E+01 
    1.8673433687453581E+01 
    1.9538114213799883E+01 
    7.9898031712174076E+00 
    5.1901792948268337E+00 
    1.5293813869962641E+01 
    1.3419311886489723E+01 
    1.8904097787678484E+01 
    1.8899560308864135E+01 
    1.3955339898949301E+01 
    1.8958205334307245E+01 
    1.3793775226575876E+01 
    1.3690554105672511E+01 
    7.2167006823322035E+00 
    5.1655979447180753E+00 
    2.0698152974436653E+01 
    1.0709490196850250E+01 
    1.2386064684593912E+01 
    1.3843510579599210E+01 
    2.2571246510013189E+01 
    1.3945119684580558E+01 
    1.4163962491385629E+01 
    5.8725280284784667E+00 
    1.3944935654883892E+01 
    1.3960726082969325E+01 
    1.9255184255078703E+01 
    1.2003080407748993E+01 
    1.3123629606511603E+01 
    2.0911365990276227E+01 
    1.3821594565820165E+01 
    1.8622403614985497E+01 
    1.8937688128033283E+01 
    1.6607182952017812E+01 
    1.1647317286558060E+01 
    1.8999054431506746E+01 
    1.3577561518937216E+01 
    1.8852342612328425E+01 
    1.8521941633859555E+01 
    2.0051280528811844E+01 
    1.9000541288811259E+01 
    1.7528626089026908E+01 
    1.3807655042400212E+01 
    9.0998321935487656E+00 
    2.2433340870306509E+01 
    1.0967722388565074E+01 
    1.9951922295409560E+01 
    1.3804527638316241E+01 
    1.1589545745652254E+01 
    6.8268468060344984E+00 
    1.4001974198221969E+01 
    1.8980909254707875E+01 
    1.8967096943030658E+01 
    1.3611775946549436E+01 
    1.3797507925394763E+01 
    2.1157944614370869E+01 
    2.0365672987297621E+01 
    1.3967783128244507E+01 
    4.8278761364350498E+00 
    1.7409562619226804E+01 
    2.2705318064387356E+01 
    1.3811653033565035E+01 
    1.6069682414318223E+01 
    1.3232738007339160E+01 
    2.2274219755104934E+01 
    2.0471975297841528E+01 
    2.0165429552747188E+01 
    1.3993239518663485E+01 
    6.3707571103234999E+00 
    1.3183759964976197E+01 
    1.3260544382804552E+01 
    1.3308115910131210E+01 
    5.2679820405987723E+00 