# vtk DataFile Version 2.0
Pressure Field Data 
ASCII 
DATASET UNSTRUCTURED_GRID 

POINTS 2860 double 

    0.0000000000000000E+00     0.0000000000000000E+00     0.0000000000000000E+00 
    1.0000000000000000E+00     0.0000000000000000E+00     0.0000000000000000E+00 
    1.0000000000000000E+00     1.0000000000000000E+00     0.0000000000000000E+00 
    0.0000000000000000E+00     1.0000000000000000E+00     0.0000000000000000E+00 
    2.5000000000000000E-01     2.5000000000000000E-01     0.0000000000000000E+00 
    7.5000000000000000E-01     2.5000000000000000E-01     0.0000000000000000E+00 
    7.5000000000000000E-01     7.5000000000000000E-01     0.0000000000000000E+00 
    2.5000000000000000E-01     7.5000000000000000E-01     0.0000000000000000E+00 
    3.1249999999942091E-02     0.0000000000000000E+00     0.0000000000000000E+00 
    6.2499999999873469E-02     0.0000000000000000E+00     0.0000000000000000E+00 
    9.3749999999826514E-02     0.0000000000000000E+00     0.0000000000000000E+00 
    1.2499999999977961E-01     0.0000000000000000E+00     0.0000000000000000E+00 
    1.5624999999968961E-01     0.0000000000000000E+00     0.0000000000000000E+00 
    1.8749999999959971E-01     0.0000000000000000E+00     0.0000000000000000E+00 
    2.1874999999950970E-01     0.0000000000000000E+00     0.0000000000000000E+00 
    2.4999999999941969E-01     0.0000000000000000E+00     0.0000000000000000E+00 
    2.8124999999932920E-01     0.0000000000000000E+00     0.0000000000000000E+00 
    3.1249999999923850E-01     0.0000000000000000E+00     0.0000000000000000E+00 
    3.4374999999914790E-01     0.0000000000000000E+00     0.0000000000000000E+00 
    3.7499999999905720E-01     0.0000000000000000E+00     0.0000000000000000E+00 
    4.0624999999896660E-01     0.0000000000000000E+00     0.0000000000000000E+00 
    4.3749999999887590E-01     0.0000000000000000E+00     0.0000000000000000E+00 
    4.6874999999878530E-01     0.0000000000000000E+00     0.0000000000000000E+00 
    4.9999999999869471E-01     0.0000000000000000E+00     0.0000000000000000E+00 
    5.3124999999877620E-01     0.0000000000000000E+00     0.0000000000000000E+00 
    5.6249999999885780E-01     0.0000000000000000E+00     0.0000000000000000E+00 
    5.9374999999893940E-01     0.0000000000000000E+00     0.0000000000000000E+00 
    6.2499999999902101E-01     0.0000000000000000E+00     0.0000000000000000E+00 
    6.5624999999910261E-01     0.0000000000000000E+00     0.0000000000000000E+00 
    6.8749999999918421E-01     0.0000000000000000E+00     0.0000000000000000E+00 
    7.1874999999926570E-01     0.0000000000000000E+00     0.0000000000000000E+00 
    7.4999999999934730E-01     0.0000000000000000E+00     0.0000000000000000E+00 
    7.8124999999942890E-01     0.0000000000000000E+00     0.0000000000000000E+00 
    8.1249999999951039E-01     0.0000000000000000E+00     0.0000000000000000E+00 
    8.4374999999959199E-01     0.0000000000000000E+00     0.0000000000000000E+00 
    8.7499999999967359E-01     0.0000000000000000E+00     0.0000000000000000E+00 
    9.0624999999975520E-01     0.0000000000000000E+00     0.0000000000000000E+00 
    9.3749999999983680E-01     0.0000000000000000E+00     0.0000000000000000E+00 
    9.6874999999991840E-01     0.0000000000000000E+00     0.0000000000000000E+00 
    1.0000000000000000E+00     3.1249999999942091E-02     0.0000000000000000E+00 
    1.0000000000000000E+00     6.2499999999873469E-02     0.0000000000000000E+00 
    1.0000000000000000E+00     9.3749999999826514E-02     0.0000000000000000E+00 
    1.0000000000000000E+00     1.2499999999977961E-01     0.0000000000000000E+00 
    1.0000000000000000E+00     1.5624999999968961E-01     0.0000000000000000E+00 
    1.0000000000000000E+00     1.8749999999959971E-01     0.0000000000000000E+00 
    1.0000000000000000E+00     2.1874999999950970E-01     0.0000000000000000E+00 
    1.0000000000000000E+00     2.4999999999941969E-01     0.0000000000000000E+00 
    1.0000000000000000E+00     2.8124999999932920E-01     0.0000000000000000E+00 
    1.0000000000000000E+00     3.1249999999923850E-01     0.0000000000000000E+00 
    1.0000000000000000E+00     3.4374999999914790E-01     0.0000000000000000E+00 
    1.0000000000000000E+00     3.7499999999905720E-01     0.0000000000000000E+00 
    1.0000000000000000E+00     4.0624999999896660E-01     0.0000000000000000E+00 
    1.0000000000000000E+00     4.3749999999887590E-01     0.0000000000000000E+00 
    1.0000000000000000E+00     4.6874999999878530E-01     0.0000000000000000E+00 
    1.0000000000000000E+00     4.9999999999869471E-01     0.0000000000000000E+00 
    1.0000000000000000E+00     5.3124999999877620E-01     0.0000000000000000E+00 
    1.0000000000000000E+00     5.6249999999885780E-01     0.0000000000000000E+00 
    1.0000000000000000E+00     5.9374999999893940E-01     0.0000000000000000E+00 
    1.0000000000000000E+00     6.2499999999902101E-01     0.0000000000000000E+00 
    1.0000000000000000E+00     6.5624999999910261E-01     0.0000000000000000E+00 
    1.0000000000000000E+00     6.8749999999918421E-01     0.0000000000000000E+00 
    1.0000000000000000E+00     7.1874999999926570E-01     0.0000000000000000E+00 
    1.0000000000000000E+00     7.4999999999934730E-01     0.0000000000000000E+00 
    1.0000000000000000E+00     7.8124999999942890E-01     0.0000000000000000E+00 
    1.0000000000000000E+00     8.1249999999951039E-01     0.0000000000000000E+00 
    1.0000000000000000E+00     8.4374999999959199E-01     0.0000000000000000E+00 
    1.0000000000000000E+00     8.7499999999967359E-01     0.0000000000000000E+00 
    1.0000000000000000E+00     9.0624999999975520E-01     0.0000000000000000E+00 
    1.0000000000000000E+00     9.3749999999983680E-01     0.0000000000000000E+00 
    1.0000000000000000E+00     9.6874999999991840E-01     0.0000000000000000E+00 
    9.6875000000003686E-01     1.0000000000000000E+00     0.0000000000000000E+00 
    9.3750000000011691E-01     1.0000000000000000E+00     0.0000000000000000E+00 
    9.0625000000015765E-01     1.0000000000000000E+00     0.0000000000000000E+00 
    8.7500000000017863E-01     1.0000000000000000E+00     0.0000000000000000E+00 
    8.4375000000028044E-01     1.0000000000000000E+00     0.0000000000000000E+00 
    8.1250000000040856E-01     1.0000000000000000E+00     0.0000000000000000E+00 
    7.8125000000054956E-01     1.0000000000000000E+00     0.0000000000000000E+00 
    7.5000000000066480E-01     1.0000000000000000E+00     0.0000000000000000E+00 
    7.1875000000086831E-01     1.0000000000000000E+00     0.0000000000000000E+00 
    6.8750000000102829E-01     1.0000000000000000E+00     0.0000000000000000E+00 
    6.5625000000114431E-01     1.0000000000000000E+00     0.0000000000000000E+00 
    6.2500000000129829E-01     1.0000000000000000E+00     0.0000000000000000E+00 
    5.9375000000147926E-01     1.0000000000000000E+00     0.0000000000000000E+00 
    5.6250000000168354E-01     1.0000000000000000E+00     0.0000000000000000E+00 
    5.3125000000188671E-01     1.0000000000000000E+00     0.0000000000000000E+00 
    5.0000000000205835E-01     1.0000000000000000E+00     0.0000000000000000E+00 
    4.6875000000192979E-01     1.0000000000000000E+00     0.0000000000000000E+00 
    4.3750000000180111E-01     1.0000000000000000E+00     0.0000000000000000E+00 
    4.0625000000167238E-01     1.0000000000000000E+00     0.0000000000000000E+00 
    3.7500000000154382E-01     1.0000000000000000E+00     0.0000000000000000E+00 
    3.4375000000141509E-01     1.0000000000000000E+00     0.0000000000000000E+00 
    3.1250000000128642E-01     1.0000000000000000E+00     0.0000000000000000E+00 
    2.8125000000115769E-01     1.0000000000000000E+00     0.0000000000000000E+00 
    2.5000000000102918E-01     1.0000000000000000E+00     0.0000000000000000E+00 
    2.1875000000090050E-01     1.0000000000000000E+00     0.0000000000000000E+00 
    1.8750000000077180E-01     1.0000000000000000E+00     0.0000000000000000E+00 
    1.5625000000064329E-01     1.0000000000000000E+00     0.0000000000000000E+00 
    1.2500000000051459E-01     1.0000000000000000E+00     0.0000000000000000E+00 
    9.3750000000385914E-02     1.0000000000000000E+00     0.0000000000000000E+00 
    6.2500000000257239E-02     1.0000000000000000E+00     0.0000000000000000E+00 
    3.1250000000128557E-02     1.0000000000000000E+00     0.0000000000000000E+00 
    0.0000000000000000E+00     9.6875000000003686E-01     0.0000000000000000E+00 
    0.0000000000000000E+00     9.3750000000011691E-01     0.0000000000000000E+00 
    0.0000000000000000E+00     9.0625000000015765E-01     0.0000000000000000E+00 
    0.0000000000000000E+00     8.7500000000017863E-01     0.0000000000000000E+00 
    0.0000000000000000E+00     8.4375000000028044E-01     0.0000000000000000E+00 
    0.0000000000000000E+00     8.1250000000040856E-01     0.0000000000000000E+00 
    0.0000000000000000E+00     7.8125000000054956E-01     0.0000000000000000E+00 
    0.0000000000000000E+00     7.5000000000066480E-01     0.0000000000000000E+00 
    0.0000000000000000E+00     7.1875000000086831E-01     0.0000000000000000E+00 
    0.0000000000000000E+00     6.8750000000102829E-01     0.0000000000000000E+00 
    0.0000000000000000E+00     6.5625000000114431E-01     0.0000000000000000E+00 
    0.0000000000000000E+00     6.2500000000129829E-01     0.0000000000000000E+00 
    0.0000000000000000E+00     5.9375000000147926E-01     0.0000000000000000E+00 
    0.0000000000000000E+00     5.6250000000168354E-01     0.0000000000000000E+00 
    0.0000000000000000E+00     5.3125000000188671E-01     0.0000000000000000E+00 
    0.0000000000000000E+00     5.0000000000205835E-01     0.0000000000000000E+00 
    0.0000000000000000E+00     4.6875000000192979E-01     0.0000000000000000E+00 
    0.0000000000000000E+00     4.3750000000180111E-01     0.0000000000000000E+00 
    0.0000000000000000E+00     4.0625000000167238E-01     0.0000000000000000E+00 
[...]
CELL_DATA 2795 
SCALARS Pressure double 1 
LOOKUP_TABLE default 

    5.0829778484142771E+00 
    1.1460041252379165E+01 
    8.1189749945536427E+00 
    7.7475897194582108E+00 
    6.2042366814052361E+00 
    1.1367128077293014E+01 
    1.1970262378929663E+01 
    4.5536632380791611E+00 
    8.5680349496961661E+00 
    6.5470222770168220E+00 
    5.5791003464454230E+00 
    1.1160792993381195E+01 
    1.1376626216797593E+01 
    1.1341748886079799E+01 
    7.4673209087215984E+00 
    4.4761814611771804E+00 
    7.1367744802868600E+00 
    5.9406859708730488E+00 
    1.0869527308780153E+01 
    8.1137288129543137E+00 
    8.0080461350759808E+00 
    1.1288851354199489E+01 
    7.5316420587199833E+00 
    3.0938701506629041E-01 
    1.1130427809633495E+01 
    1.1357023242886918E+01 
    1.1997964687552368E+01 
    5.3707642751808544E+00 
    1.1096632558884595E+01 
    1.1986258753193798E+01 
    8.2216282712789610E+00 
    8.3274892490275505E+00 
    5.7649901467984765E+00 
    8.0808031741027762E+00 
    2.6588880086764060E+00 
    7.1392799982555308E+00 
    8.0732298616708817E+00 
    1.2020388736539051E+01 
    1.1952276830659978E+01 
    1.1171295697567231E+01 
    6.1407802301194607E+00 
    1.1114578761349970E+01 
    6.4166562608661826E-01 
    7.9518977082345019E+00 
    1.1788070303472587E+01 
    1.1646087346076010E+01 
    1.1152183741689182E+01 
    8.8657351223466794E+00 
    1.1209094955111306E+01 
    7.2955906380133859E+00 
    6.9602281377066006E+00 
    8.2960271945798976E+00 
    7.8519760595361197E+00 
    7.1764079392938056E+00 
    8.3005337990429435E+00 
    1.0701286722402690E+01 
    9.6785241756708391E+00 
    6.2363357968293158E+00 
    1.1291983793837101E+01 
    1.1231098709217996E+01 
    7.8137214099999941E+00 
    7.8072744308904038E+00 
    7.6683218120969361E+00 
    1.1903388403237845E+01 
    1.2121790126970753E+01 
    7.1454558894416698E+00 
    8.2943961726046957E+00 
    1.1079928298694661E+01 
    9.4907202130135175E+00 
    7.8239828742588324E+00 
    1.2135892112046511E+01 
    1.1224427229613338E+01 
    7.0468794029870372E+00 
    1.1728133121925836E+01 
    8.5334559934527068E+00 
    1.1010088447689045E+01 
    1.2032602359599879E+01 
    8.3624262032662848E+00 
    5.1107989414548340E+00 
    8.3098164726105583E+00 
    1.1958511154826303E+01 
    1.2154178634742681E+01 
    7.1652508659272192E+00 
    8.2338980055425850E+00 
    1.2193525847831435E+01 
    8.0784204281390419E+00 
    7.6007907561894577E+00 
    9.8184084476337343E+00 
    4.9187411592861086E+00 
    6.9808093306719767E+00 
    8.2341466650089625E+00 
    8.6808501255903128E+00 
    1.3505219513061277E+01 
    6.0334030761956488E+00 
    8.3010453033812226E+00 
    1.1134857127442716E+01 
    1.1335616516309688E+01 
    5.3298668806619123E+00 
    7.9583176963857332E+00 
    8.2627930009733692E+00 
    1.1353153015904480E+01 
    8.2634921262764074E+00 
    1.1296067358799194E+01 
    3.2808645450062239E+00 
    5.4216078998072010E+00 
    8.4818311626484366E+00 
    1.1467742907281343E+01 
    7.1110301411265047E+00 
    7.6377803090953034E+00 
    8.2496744575583278E+00 
    7.5793831697503249E+00 
    9.4220782670617087E+00 
    7.4159270348486706E+00 
    7.0531107044210728E+00 
    5.5683534208844314E+00 
    9.5712903889231526E+00 
    8.3290933830399663E+00 
    1.1829388553550885E+01 
    7.1200915954974979E+00 
    7.7401338700062894E+00 
    1.1215608595998964E+01 
    6.4799576656207911E+00 
    1.1593212970796570E+01 
    8.1561700562303390E+00 
    7.6774545611344438E+00 
    1.1337807785709895E+01 
    8.3206361041284929E+00 
    1.2041322076562116E+01 
    9.8276470487287408E+00 
    1.0580372808883682E+01 
    1.2012320707748462E+01 
    6.0449219157249905E+00 
    8.4953788238983954E+00 
    1.1341603595539999E+01 
    2.4655348046272989E+00 
    8.2775377503511027E+00 
    1.1984096975538126E+01 
    7.7074060934697126E+00 
    8.8857177657943325E+00 
    5.2530997053369513E+00 
    1.1135868071198896E+01 
    1.3958338533820363E+01 
    1.0198623283295642E+01 
    7.6996545687010203E+00 
    6.9001761378480344E+00 
    8.8704733450095379E+00 
    8.1729883530071099E+00 
    5.6391893297763316E+00 
    1.2006172276641276E+01 
    1.1428780651153518E+01 
    1.1136378136849629E+01 
    8.6975626109626507E+00 
    7.0266888412609250E+00 
    8.0080266702218115E+00 
    1.1751387708452354E+01 
    7.2163388301713045E+00 
    8.0743268558796117E+00 
    7.3458708452576822E+00 
    9.3779247767569895E+00 
    1.3947377542462425E+01 
    1.1129035943968290E+01 
    6.9377454547884749E+00 
    1.1498680783432121E+01 
    1.1432881340452056E+01 
    1.1500886321184295E+01 
    1.2364675645598902E+01 
    1.2847509894596987E+01 
    1.1640999432219290E+01 
    8.2874312721048611E+00 
    8.7818327041889521E+00 
    1.1499973583830316E+01 
    1.1841359611370846E+01 
    5.8765992374872900E+00 
    1.1151611802633173E+01 
    1.1719516606789840E+01 
    5.7307539773227854E+00 
    1.2282906586794706E+01 
    1.2277243947270025E+01 
    1.0925394665375809E+01 
    8.5468080179390675E+00 
    2.2010301509791015E+00 
    1.1981666062744841E+01 
    8.4316574687954962E+00 
    1.2084986978333236E+01 
    7.6543799393906538E+00 
    1.1837175713770913E+01 
    7.7929988440058340E-01 
    1.0594681854703229E+01 
    7.8407117647640820E+00 
    6.9957355172501261E+00 
    6.8204508453073487E+00 
    8.1271497717573524E+00 
    9.1234620726259923E+00 
    8.3852727285159006E+00 
    5.6079288917361509E+00 
    1.1835620178698136E+01 
    1.1362984251485690E+01 
    9.5915487789726530E+00 
    8.4739623420673880E+00 
    1.2627543195512585E+00 
    6.3160770844197920E+00 
    4.3960254998022785E+00 
    1.1996517886614091E+01 
    9.2237617367912410E+00 
    1.1418584549380800E+01 
    1.1418568702906363E+01 
    7.3002777548550037E+00 
    9.6115395460539723E+00 
    1.1131768305102270E+01 
    1.2262910162070220E+01 
    5.2570789057525333E+00 
    1.0021429517977195E+01 
    8.4198833469551424E+00 
    4.6889473355902220E+00 
    7.2752303481442020E+00 
    1.0015695009098390E+01 
    1.1386507114551454E+01 
    8.1817162275813846E+00 
    1.1481233027704342E+01 
    1.1281076122685446E+01 
    1.1239164649532356E+01 
    8.0159262605875892E+00 
    6.9698444950314400E+00 
    1.1143592358418749E+01 
    7.0438565437976042E+00 
    8.2688815845521741E+00 
    6.9097302890656307E+00 
    8.0252170797860920E+00 
    1.1425791445351123E+01 
    5.1147522863494643E+00 
    7.2069712002738813E+00 
    1.1924701917543295E+01 
    8.0314224748433958E+00 
    9.1280703556236347E+00 
    5.2505376147637719E+00 
    7.0906303596104907E+00 
    1.1262823102154396E+01 
    1.1528918598458988E+01 
    4.2948668531304213E+00 
    8.0308564514299157E+00 
    6.9413318478153379E+00 
    1.2636545046167384E+01 
    1.2161732039524423E+01 
    1.2869727692715637E+01 
    8.0510092533782789E+00 
    1.1403665568951737E+01 
    1.1096896087233299E+01 
    7.9384390979734896E+00 
    1.1136299222148233E+01 
    8.4735897368219870E+00 
    4.7163465982121906E+00 
    8.2176554165693503E+00 
    1.1911653480279025E+01 
    1.1133630731443246E+01 
    5.5526385600427144E+00 
    1.1157300662139694E+01 
    9.1233583945241907E+00 
    8.2620133517066154E+00 
    7.7849517915809798E+00 
    1.1025791805444833E+01 
    8.7092319627112360E+00 
    1.1147265699135412E+01 
    7.9108223723977726E+00 
    4.8346687586521977E+00 
    8.3271051737335959E+00 
    6.8279852723262904E+00 
    1.0200442015017275E+01 
    1.2084426036457574E+01 
    1.1143575099261817E+01 
    1.1977619481810168E+01 
    7.9872728341511081E+00 
    5.4133169467735174E+00 
    5.4871777226152663E+00 
    8.4430853799841401E+00 
    8.2456375789440308E+00 
    1.2047082965865714E+00 
    1.0741632213669964E+01 
    1.2389094222568325E+01 
    7.6589202244152119E+00 
    4.9499024648679368E+00 
    9.3199194059058303E+00 
    1.1155986442433418E+01 
    5.8503622519359846E+00 
    4.0175026749402862E+00 
    8.2227108186362212E+00 
    1.1242324651561743E+01 
    1.1753513598352885E+01 
    1.1659578849082434E+01 
    1.1532677338604280E+01 
    5.7043492658182373E+00 
    8.2492025487798610E+00 
    1.0742859974466201E+01 
    6.4291849606046370E+00 
    1.1365706876567794E+01 
    9.7884427112725092E+00 
    5.5622015476773026E+00 
    1.1242857078213662E+01 
    1.1986432683751241E+01 
    1.1228948025479252E+01 
    5.6436897037283273E+00 
    8.2910642962019825E+00 
    6.1851425440393113E+00 
    7.8116744003997933E+00 
    1.1149251628408884E+01 
    1.1139846165190601E+01 
    5.6754386299352699E+00 
    1.1871880982544067E+01 
    8.7470875315322321E+00 
    1.1179608237775989E+01 
    1.1846324779010153E+01 
    1.1163321842567626E+01 
    1.0396715219762703E+01 
    1.2680176513740387E+01 
    7.6423170280473682E+00 
    1.1952305552226465E+01 
    1.1202052531401366E+01 
    1.2013213460661209E+01 
    1.1866709095151004E+01 
    7.7224172847841386E+00 
    8.1129872181126377E+00 
    7.6492083496661971E+00 
    1.0002738544893687E+01 
    3.2883087283393460E+00 
    8.3809297437879611E+00 
    1.2795432844254279E+01 
    8.4785939336912257E+00 
    8.6401754390188987E+00 
    1.1989574654398099E+01 
    1.2196362108688021E+01 
    7.6400048253937012E+00 
    1.1160717917725060E+01 
    1.1137543434440039E+01 
    8.6294866885255210E+00 
    1.1828921148606328E+01 
    5.8468480224301125E+00 
    3.7560611228811434E+00 
    8.8724639564569294E+00 
    8.4902264065800743E+00 
    1.1141099087031135E+01 
    5.3173171537916772E+00 
    1.1591498183177801E+01 
    3.8272853022252815E+00 
    8.4361730279422211E+00 
    7.8193827314404052E+00 
    8.2705312348811795E+00 
    1.3996197935160971E+01 
    3.1982287125893190E+00 
    8.2967543187134165E+00 
    9.7418595417364511E+00 
    7.8987024422819694E+00 
    6.1874278952898898E+00 
    1.1694990032013461E+01 
    1.3590122611162286E+01 
    1.1811854734278578E+01 
    8.2413142875412380E+00 
    4.6775661593966289E+00 
    1.3451436742774387E+01 
    1.1352631336770191E+01 
    5.8056481313973327E+00 
    7.8138993220317392E+00 
    1.2350362420492555E+01 
    2.7136137803550944E+00 
    8.5342544540877636E+00 
    1.1782816775898018E+01 
    8.2834939288562239E+00 
    7.1914018267159374E+00 
    8.3385485967343431E+00 
    1.0914134800077328E+01 
    8.2658068127889663E+00 
    4.1865820785235197E+00 
    7.6425403012453152E-01 
    6.1337601329141886E+00 
    1.2536886033603894E+01 
    7.6474017617198342E+00 
    9.3735368296508508E+00 
    8.9996052105945950E+00 
    1.0222465946841311E+01 
    8.2962844378483229E+00 
    1.1275790565690558E+01 
    1.4009651537043634E+01 
    9.7431747367026791E+00 
    1.1928901376557835E+01 
    4.5691618884374713E-01 
    1.1141320916858049E+01 
    4.5358284843275802E+00 
    1.2950028617509412E+01 
    8.3104131938618533E+00 
    7.3080135257417496E+00 
    6.3028069114496468E+00 
    4.3956738350509763E+00 
    9.2166381647885984E+00 
    6.5023776683896131E+00 
    1.0114495260482022E+01 
    1.8707590554932163E+00 
    9.1508972713053716E+00 
    1.1086430010489346E+01 
    4.9813841784844186E+00 
    1.1535523780498394E+01 
    1.2788252712489440E+01 
    1.1418172400536454E+01 
    8.1856093032714874E+00 
    8.2657766137027249E+00 
    8.3031681599036400E+00 
    4.7493272479151223E+00 
    7.4300200749109377E+00 
    7.3072485381020025E+00 
    8.2921511820251439E+00 
    7.5983252202971210E+00 
    5.7544174422298677E-01 
    5.1732687889011073E+00 
    7.9083451142509009E+00 
    8.2687909153498502E+00 
    1.0391989816327339E+01 
    1.7745627848418553E+00 
    8.5947429756652838E+00 
    8.4952114559525818E+00 
    3.0775066415656758E+00 
    1.1313910708447281E+01 
    7.0693683918718540E+00 
    8.3785322682766523E+00 
    1.1349239310125403E+01 
    4.4083235769736850E+00 
    1.1402019557624429E+01 
    7.1454557128232050E+00 
    8.0816300569638688E-01 
    7.6998470456500021E+00 
    1.1883903128159773E+01 
    1.1141888771652093E+01 
    1.1160851563115999E+01 
    8.6439115904637998E+00 
    8.4388772528505509E+00 
    7.0422901031428928E+00 
    5.6085543205515629E+00 
    1.1441006913052284E+01 
    7.8142553045060250E+00 
    5.4243909031798250E+00 
    1.1154157833274683E+01 
    1.1719320790921344E+01 
    8.4563614833366767E+00 
    8.0744447721158821E+00 
    1.3898133178129710E+01 
    8.6302288876200315E+00 
    1.1458698537366425E+01 
    6.7028847719059703E+00 
    1.4037668034633882E+01 
    5.4543922497785760E+00 
    7.4206541162291249E+00 
    6.1008347075576488E+00 
    8.8282042596948997E+00 
    6.9900211124978648E+00 
    1.4021926478561539E+01 
    8.6714434019404258E+00 
    1.0863471872889193E+01 
    5.6082277874233029E+00 
    8.2914579121193377E+00 
    1.1324167147201598E+01 
    7.0116828058863998E+00 
    5.8699579934079589E+00 
    9.0516709909248618E+00 
    1.1535041366075157E+01 
    6.0138760734993788E+00 
    7.8345782421574111E+00 
    8.0974498654394704E+00 
    1.1121577045694510E+01 
    7.9297076919686766E+00 
    1.1499634993217338E+01 
    1.2038271444830558E+01 
    7.0632994330696155E+00 
    6.9268530870515699E+00 
    6.5279301706831685E+00 
    1.1237180604313732E+01 
    8.4897185384545057E+00 
    1.3625214839652180E+01 
    1.0604337882881177E+01 
    1.1289298504078893E+01 
    1.3335410382598608E+01 
    1.2790997085854643E+01 
    8.3328543756469777E+00 
    8.2778137723718554E+00 
    1.0950031691385336E+01 
    1.1171801876606340E+01 
    1.1588654173806184E+01 
    1.1370102112994191E+01 
    1.3915094210813280E+01 
    8.6298312920668323E+00 
    7.1465068394451334E+00 
    8.5916048003065484E+00 
    1.1964064043893195E+01 
    8.4109635890736065E+00 
    4.8844170674555087E+00 
    8.1707464067188713E+00 
    1.2322013592452898E+01 
    8.5261226348768879E+00 
    7.1483337798687465E+00 
    8.0407447290925873E+00 
    1.2418659623601448E+01 
    1.1160561631662922E+01 
    6.7889814496388174E+00 
    1.2541537864091930E+01 
    8.3565083417967347E+00 
    1.1588148981527059E+01 
    1.2431897844055849E+01 
    8.6932514750080028E+00 
    4.4032418222123022E+00 
    9.0251718490883945E+00 
    4.5512106744912897E+00 
    8.4512403393624798E+00 
    8.2861476904660503E+00 
    9.4918657131583775E+00 
    4.8069597104430599E+00 
    1.0078822363790607E+01 
    8.3030339801510209E+00 
    1.1361728463107879E+01 
    8.6586146459094593E+00 
    6.5593879896101166E+00 
    7.9315576629340052E+00 
    8.7510743644681757E+00 
    8.7198428713431646E+00 
    1.2073348308639520E+01 
    6.8350975169082870E+00 
    6.7197959078370406E+00 
    5.0478012220909330E+00 
    1.1612928215717671E+01 
    7.9678185316398773E+00 
    1.0990595171563324E+01 
    8.2569808821225550E+00 
    5.5076465252503963E+00 
    1.1184544655114038E+01 
    8.2327559899598519E+00 
    5.9948077049364752E+00 
    6.3438168426351442E+00 
    6.5626164131362748E+00 
    1.1387421351464855E+01 
    8.2940944312997029E+00 
    1.1937619451899932E+01 
    8.1920953062222051E+00 
    8.1327159192080529E+00 
    7.7568906984004133E+00 
    1.1252585158743475E+01 
    8.0567342246784701E+00 
    6.5954147630711999E+00 
    1.2777908517990884E+01 
    1.1319200113670574E+01 
    5.7124909076587826E+00 
    2.2590269262128144E+00 
    8.2831498627605367E+00 
    7.7091588251883376E+00 
    6.9243260085432734E+00 
    7.5844510644470819E+00 
    1.1306108845927504E+01 
    8.0137502727521195E+00 
    7.2062406054334600E+00 
    1.1189674739905261E+01 
    5.6615132215844088E+00 
    1.0917686764549957E+01 
    7.4553938780067170E+00 
    6.5202840130751012E+00 
    6.9877559178609854E+00 
    1.1660969991169248E+01 
    8.2732953131293137E+00 
    8.2804887859943346E+00 
    4.8821974173729279E+00 
    5.2657774241567203E+00 
    1.0347412460411755E+01 
    8.2892647094076768E+00 
    8.3259207581541919E+00 
    1.2525934653343477E+01 
    6.7191469483051147E+00 
    8.2997198578858207E+00 
    5.8588182733086853E+00 
    6.0444778021773384E+00 
    1.1244809782569003E+01 
    7.9598164729714700E+00 
    5.7897942311057387E+00 
    8.6980113375733268E+00 
    8.1742668260473828E+00 
    1.1248221657160309E+01 
    1.2609358671687076E+01 
    8.8340749362151760E-01 
    8.2879262114956571E+00 
    8.4890291763523074E+00 
    1.1302601499078488E+01 
    7.7639254022241371E+00 
    8.2493086221094671E+00 
    1.2118270958290511E+01 
    7.0129917734343126E+00 
    5.8389462198036517E+00 
    1.0014800250029465E+01 
    1.1152887148941661E+01 
    1.2014282880785329E+01 
    1.2241094034226933E+01 
    8.1365175699840613E+00 
    8.2804654141843397E+00 
    9.2717788730457453E+00 
    5.4314807025178231E+00 
    1.1255757988418555E+01 
    6.2810641553155468E+00 
    5.6531121578283141E+00 
    1.0344826610465391E+01 
    9.7175654999706840E+00 
    5.5449816499880047E+00 
    1.1182448060296760E+01 
    1.2001087880645166E+01 
    8.6433908511283342E+00 
    1.2699962579100562E+01 
    1.1208426497847505E+01 
    7.8601556062025315E+00 
    1.1773543080188187E+01 
    6.0443562438200429E+00 
    1.1167295682388813E+01 
    8.2872660580171171E+00 
    8.2454703820213560E+00 
    1.2675397642460144E+01 
    7.9946107715357249E+00 
    1.0095684826803764E+01 
    6.9723854098887257E+00 
    1.2101785975430161E+01 
    1.1091518824831189E+01 
    7.2668671412281869E+00 
    1.1135024893908836E+01 
    7.4507711159702001E+00 
    8.2584321716706945E+00 
    1.1966447976931596E+01 
    1.1362962057553712E+01 
    1.2004177749864823E+01 
    1.1305329253602842E+01 
    7.4418723457657636E+00 
    7.6505259232746976E+00 
    1.2009312603933669E+01 
    7.7570743251670189E+00 
    1.1035916690934020E+01 
    7.9894458332803975E+00 
    3.3119937149686511E+00 
    5.7080669049724708E+00 
    5.2929659564800007E+00 
    1.1969003334157247E+01 
    1.2613836693680430E+01 
    1.1149885098120253E+01 
    9.6100809535910265E+00 
    1.1382107042240030E+01 
    1.1187356228761034E+01 
    1.1673587105055848E+01 
    4.7169755933732169E+00 
    3.0932890606988805E+00 
    9.4271325938830071E+00 
    7.9116390109766126E+00 
    1.1307623862909463E+01 
    1.1305532889757398E+01 
    8.5024879255517209E+00 
    1.1336057124457435E+01 
    8.2751133667427794E+00 
    8.1283160018253522E+00 
    4.2734397073969470E+00 
    3.0832130004944847E+00 
    1.2415669478618987E+01 
    6.4157381397309399E+00 
    7.2167817228057825E+00 
    8.4191875853884728E+00 
    1.3898271919762760E+01 
    8.4973431416124594E+00 
    8.4702151324329300E+00 
    3.4889439972443475E+00 
    8.4976476602903794E+00 
    8.5088166747309035E+00 
    1.1562520015194671E+01 
    6.9965057881660577E+00 
    7.8795178184111325E+00 
    1.2565352844043991E+01 
    8.2963168435666130E+00 
    1.1162687605711561E+01 
    1.1367788136947754E+01 
    1.0250511398853192E+01 
    6.9693378108867927E+00 
    1.1304800992140695E+01 
    8.0785391694848077E+00 
    1.1322498440774963E+01 
    1.1110334782036562E+01 
    1.1985579747207929E+01 
    1.1303515401712430E+01 
    1.0632840530184765E+01 
    8.2855324730031832E+00 
    5.5003801287997618E+00 
    1.3778739994312405E+01 
    6.4078127585424340E+00 
    1.1917689661599354E+01 
    8.2828793252482438E+00 
    6.7696486596554992E+00 
    4.0882207405619866E+00 
    8.5368351223166066E+00 
    1.1293919193800562E+01 
    1.1290160410346232E+01 
    8.2404274726356999E+00 
    8.2768730888024411E+00 
    1.2754066059707275E+01 
    1.2191205508761632E+01 
    8.5134101522047363E+00 
    2.8805501108580618E+00 
    1.0615552106597928E+01 
    1.4020756282638757E+01 
    8.2889271739621453E+00 
    9.9215913907224635E+00 
    7.7579428761377542E+00 
    1.3646788754125637E+01 
    1.2261283667294203E+01 
    1.2029004537056295E+01 
    8.5317386493401113E+00 
    3.8272164706096832E+00 
    7.7208702458250000E+00 
    7.7838515496794800E+00 
    7.8369319042906840E+00 
    3.1317737651987012E+00 