# vtk DataFile Version 2.0
Pressure Field Data 
ASCII 
DATASET UNSTRUCTURED_GRID 

POINTS 2860 double 

    0.0000000000000000E+00     0.0000000000000000E+00     0.0000000000000000E+00 
    1.0000000000000000E+00     0.0000000000000000E+00     0.0000000000000000E+00 
    1.0000000000000000E+00     1.0000000000000000E+00     0.0000000000000000E+00 
    0.0000000000000000E+00     1.0000000000000000E+00     0.0000000000000000E+00 
    2.5000000000000000E-01     2.5000000000000000E-01     0.0000000000000000E+00 
    7.5000000000000000E-01     2.5000000000000000E-01     0.0000000000000000E+00 
    7.5000000000000000E-01     7.5000000000000000E-01     0.0000000000000000E+00 
    2.5000000000000000E-01     7.5000000000000000E-01     0.0000000000000000E+00 
    3.1249999999942091E-02     0.0000000000000000E+00     0.0000000000000000E+00 
    6.2499999999873469E-02     0.0000000000000000E+00     0.0000000000000000E+00 
    9.3749999999826514E-02     0.0000000000000000E+00     0.0000000000000000E+00 
    1.2499999999977961E-01     0.0000000000000000E+00     0.0000000000000000E+00 
    1.5624999999968961E-01     0.0000000000000000E+00     0.0000000000000000E+00 
    1.8749999999959971E-01     0.0000000000000000E+00     0.0000000000000000E+00 
    2.1874999999950970E-01     0.0000000000000000E+00     0.0000000000000000E+00 
    2.4999999999941969E-01     0.0000000000000000E+00     0.0000000000000000E+00 
    2.8124999999932920E-01     0.0000000000000000E+00     0.0000000000000000E+00 
    3.1249999999923850E-01     0.0000000000000000E+00     0.0000000000000000E+00 
    3.4374999999914790E-01     0.0000000000000000E+00     0.0000000000000000E+00 
    3.7499999999905720E-01     0.0000000000000000E+00     0.0000000000000000E+00 
    4.0624999999896660E-01     0.0000000000000000E+00     0.0000000000000000E+00 
    4.3749999999887590E-01     0.0000000000000000E+00     0.0000000000000000E+00 
    4.6874999999878530E-01     0.0000000000000000E+00     0.0000000000000000E+00 
    4.9999999999869471E-01     0.0000000000000000E+00     0.0000000000000000E+00 
    5.3124999999877620E-01     0.0000000000000000E+00     0.0000000000000000E+00 
    5.6249999999885780E-01     0.0000000000000000E+00     0.0000000000000000E+00 
    5.9374999999893940E-01     0.0000000000000000E+00     0.0000000000000000E+00 
    6.2499999999902101E-01     0.0000000000000000E+00     0.0000000000000000E+00 
    6.5624999999910261E-01     0.0000000000000000E+00     0.0000000000000000E+00 
    6.8749999999918421E-01     0.0000000000000000E+00     0.0000000000000000E+00 
    7.1874999999926570E-01     0.0000000000000000E+00     0.0000000000000000E+00 
    7.4999999999934730E-01     0.0000000000000000E+00     0.0000000000000000E+00 
    7.8124999999942890E-01     0.0000000000000000E+00     0.0000000000000000E+00 
    8.1249999999951039E-01     0.0000000000000000E+00     0.0000000000000000E+00 
    8.4374999999959199E-01     0.0000000000000000E+00     0.0000000000000000E+00 
    8.7499999999967359E-01     0.0000000000000000E+00     0.0000000000000000E+00 
    9.0624999999975520E-01     0.0000000000000000E+00     0.0000000000000000E+00 
    9.3749999999983680E-01     0.0000000000000000E+00     0.0000000000000000E+00 
    9.6874999999991840E-01     0.0000000000000000E+00     0.0000000000000000E+00 
    1.0000000000000000E+00     3.1249999999942091E-02     0.0000000000000000E+00 
    1.0000000000000000E+00     6.2499999999873469E-02     0.0000000000000000E+00 
    1.0000000000000000E+00     9.3749999999826514E-02     0.0000000000000000E+00 
    1.0000000000000000E+00     1.2499999999977961E-01     0.0000000000000000E+00 
    1.0000000000000000E+00     1.5624999999968961E-01     0.0000000000000000E+00 
    1.0000000000000000E+00     1.8749999999959971E-01     0.0000000000000000E+00 
    1.0000000000000000E+00     2.1874999999950970E-01     0.0000000000000000E+00 
    1.0000000000000000E+00     2.4999999999941969E-01     0.0000000000000000E+00 
    1.0000000000000000E+00     2.8124999999932920E-01     0.0000000000000000E+00 
    1.0000000000000000E+00     3.1249999999923850E-01     0.0000000000000000E+00 
    1.0000000000000000E+00     3.4374999999914790E-01     0.0000000000000000E+00 
    1.0000000000000000E+00     3.7499999999905720E-01     0.0000000000000000E+00 
    1.0000000000000000E+00     4.0624999999896660E-01     0.0000000000000000E+00 
    1.0000000000000000E+00     4.3749999999887590E-01     0.0000000000000000E+00 
    1.0000000000000000E+00     4.6874999999878530E-01     0.0000000000000000E+00 
    1.0000000000000000E+00     4.9999999999869471E-01     0.0000000000000000E+00 
    1.0000000000000000E+00     5.3124999999877620E-01     0.0000000000000000E+00 
    1.0000000000000000E+00     5.6249999999885780E-01     0.0000000000000000E+00 
    1.0000000000000000E+00     5.9374999999893940E-01     0.0000000000000000E+00 
    1.0000000000000000E+00     6.2499999999902101E-01     0.0000000000000000E+00 
    1.0000000000000000E+00     6.5624999999910261E-01     0.0000000000000000E+00 
    1.0000000000000000E+00     6.8749999999918421E-01     0.0000000000000000E+00 
    1.0000000000000000E+00     7.1874999999926570E-01     0.0000000000000000E+00 
    1.0000000000000000E+00     7.4999999999934730E-01     0.0000000000000000E+00 
    1.0000000000000000E+00     7.8124999999942890E-01     0.0000000000000000E+00 
    1.0000000000000000E+00     8.1249999999951039E-01     0.0000000000000000E+00 
    1.0000000000000000E+00     8.4374999999959199E-01     0.0000000000000000E+00 
    1.0000000000000000E+00     8.7499999999967359E-01     0.0000000000000000E+00 
    1.0000000000000000E+00     9.0624999999975520E-01     0.0000000000000000E+00 
    1.0000000000000000E+00     9.3749999999983680E-01     0.0000000000000000E+00 
    1.0000000000000000E+00     9.6874999999991840E-01     0.0000000000000000E+00 
    9.6875000000003686E-01     1.0000000000000000E+00     0.0000000000000000E+00 
    9.3750000000011691E-01     1.0000000000000000E+00     0.0000000000000000E+00 
    9.0625000000015765E-01     1.0000000000000000E+00     0.0000000000000000E+00 
    8.7500000000017863E-01     1.0000000000000000E+00     0.0000000000000000E+00 
    8.4375000000028044E-01     1.0000000000000000E+00     0.0000000000000000E+00 
    8.1250000000040856E-01     1.0000000000000000E+00     0.0000000000000000E+00 
    7.8125000000054956E-01     1.0000000000000000E+00     0.0000000000000000E+00 
    7.5000000000066480E-01     1.0000000000000000E+00     0.0000000000000000E+00 
    7.1875000000086831E-01     1.0000000000000000E+00     0.0000000000000000E+00 
    6.8750000000102829E-01     1.0000000000000000E+00     0.0000000000000000E+00 
    6.5625000000114431E-01     1.0000000000000000E+00     0.0000000000000000E+00 
    6.2500000000129829E-01     1.0000000000000000E+00     0.0000000000000000E+00 
    5.9375000000147926E-01     1.0000000000000000E+00     0.0000000000000000E+00 
    5.6250000000168354E-01     1.0000000000000000E+00     0.0000000000000000E+00 
    5.3125000000188671E-01     1.0000000000000000E+00     0.0000000000000000E+00 
    5.0000000000205835E-01     1.0000000000000000E+00     0.0000000000000000E+00 
    4.6875000000192979E-01     1.0000000000000000E+00     0.0000000000000000E+00 
    4.3750000000180111E-01     1.0000000000000000E+00     0.0000000000000000E+00 
    4.0625000000167238E-01     1.0000000000000000E+00     0.0000000000000000E+00 
    3.7500000000154382E-01     1.0000000000000000E+00     0.0000000000000000E+00 
    3.4375000000141509E-01     1.0000000000000000E+00     0.0000000000000000E+00 
    3.1250000000128642E-01     1.0000000000000000E+00     0.0000000000000000E+00 
    2.8125000000115769E-01     1.0000000000000000E+00     0.0000000000000000E+00 
    2.5000000000102918E-01     1.0000000000000000E+00     0.0000000000000000E+00 
    2.1875000000090050E-01     1.0000000000000000E+00     0.0000000000000000E+00 
    1.8750000000077180E-01     1.0000000000000000E+00     0.0000000000000000E+00 
    1.5625000000064329E-01     1.0000000000000000E+00     0.0000000000000000E+00 
    1.2500000000051459E-01     1.0000000000000000E+00     0.0000000000000000E+00 
    9.3750000000385914E-02     1.0000000000000000E+00     0.0000000000000000E+00 
    6.2500000000257239E-02     1.0000000000000000E+00     0.0000000000000000E+00 
    3.1250000000128557E-02     1.0000000000000000E+00     0.0000000000000000E+00 
    0.0000000000000000E+00     9.6875000000003686E-01     0.0000000000000000E+00 
    0.0000000000000000E+00     9.3750000000011691E-01     0.0000000000000000E+00 
    0.0000000000000000E+00     9.0625000000015765E-01     0.0000000000000000E+00 
    0.0000000000000000E+00     8.7500000000017863E-01     0.0000000000000000E+00 
    0.0000000000000000E+00     8.4375000000028044E-01     0.0000000000000000E+00 
    0.0000000000000000E+00     8.1250000000040856E-01     0.0000000000000000E+00 
    0.0000000000000000E+00     7.8125000000054956E-01     0.0000000000000000E+00 
    0.0000000000000000E+00     7.5000000000066480E-01     0.0000000000000000E+00 
    0.0000000000000000E+00     7.1875000000086831E-01     0.0000000000000000E+00 
    0.0000000000000000E+00     6.8750000000102829E-01     0.0000000000000000E+00 
    0.0000000000000000E+00     6.5625000000114431E-01     0.0000000000000000E+00 
    0.0000000000000000E+00     6.2500000000129829E-01     0.0000000000000000E+00 
    0.0000000000000000E+00     5.9375000000147926E-01     0.0000000000000000E+00 
    0.0000000000000000E+00     5.6250000000168354E-01     0.0000000000000000E+00 
    0.0000000000000000E+00     5.3125000000188671E-01     0.0000000000000000E+00 
    0.0000000000000000E+00     5.0000000000205835E-01     0.0000000000000000E+00 
    0.0000000000000000E+00     4.6875000000192979E-01     0.0000000000000000E+00 
    0.0000000000000000E+00     4.3750000000180111E-01     0.0000000000000000E+00 
    0.0000000000000000E+00     4.0625000000167238E-01     0.0000000000000000E+00 
[...]
CELL_DATA 2795 
SCALARS Pressure double 1 
LOOKUP_TABLE default 

    6.7618304644920180E+00 
    1.4727003211489491E+01 
    1.0423781762190787E+01 
    1.0115715289461829E+01 
    8.1895502767948773E+00 
    1.4585070713897723E+01 
    1.5317011232276554E+01 
    6.0921236650461648E+00 
    1.0981432870702770E+01 
    8.3876594249019760E+00 
    7.1544987465328607E+00 
    1.4327743789894036E+01 
    1.4643538024566904E+01 
    1.4554598752398723E+01 
    9.5912060957757266E+00 
    5.9988736897482635E+00 
    9.3768694477985246E+00 
    7.6135765349172191E+00 
    1.3963989015002953E+01 
    1.0409813570507366E+01 
    1.0304676815896057E+01 
    1.4488141288000508E+01 
    9.8544142718884462E+00 
    4.0683440460909454E-01 
    1.4361973870918561E+01 
    1.4606303735928289E+01 
    1.5348774867353217E+01 
    6.9203837939150237E+00 
    1.4248205472431472E+01 
    1.5334096641417277E+01 
    1.0565437525269012E+01 
    1.0623531516542291E+01 
    7.5323910721932394E+00 
    1.0386195957217565E+01 
    3.4961941683879343E+00 
    9.3793766702455184E+00 
    1.0373930448349132E+01 
    1.5373040843968278E+01 
    1.5294341047695612E+01 
    1.4340780460703352E+01 
    8.1534875615268501E+00 
    1.4328665499558619E+01 
    8.5026874117754592E-01 
    1.0357514973898978E+01 
    1.5120059013162017E+01 
    1.4921817845800382E+01 
    1.4317003656713288E+01 
    1.1343529297263737E+01 
    1.4387529841455271E+01 
    9.5762862994787472E+00 
    9.1592247005426479E+00 
    1.0588675349774826E+01 
    1.0254986076265357E+01 
    9.4313356220194162E+00 
    1.0637249984677180E+01 
    1.3753766696105041E+01 
    1.2288014964186006E+01 
    8.2318908455172100E+00 
    1.4492499503552974E+01 
    1.4416180553864075E+01 
    1.0121202029976009E+01 
    1.0022296902146669E+01 
    1.0021589893594696E+01 
    1.5237627534785080E+01 
    1.5502902292085219E+01 
    9.3897554499154285E+00 
    1.0587491525946396E+01 
    1.4215072488281500E+01 
    1.2176695249727311E+01 
    1.0066533801268136E+01 
    1.5506618113295648E+01 
    1.4464900499296915E+01 
    9.2674067592308127E+00 
    1.5036705641086746E+01 
    1.0871568956990782E+01 
    1.4218121293360070E+01 
    1.5390332687756288E+01 
    1.0926834074689369E+01 
    6.9863749944255540E+00 
    1.0605743923943193E+01 
    1.5302869305418090E+01 
    1.5526714024388886E+01 
    9.4003500343809492E+00 
    1.0525956694134534E+01 
    1.5575204989927814E+01 
    1.0374967574966060E+01 
    9.9378441915195275E+00 
    1.2606056945399915E+01 
    6.6542772443586280E+00 
    9.1863869354930454E+00 
    1.0524558372642877E+01 
    1.1145174420010488E+01 
    1.7011390709691664E+01 
    7.9726606861297187E+00 
    1.0595412720006323E+01 
    1.4295107863451573E+01 
    1.4595712763664078E+01 
    7.0911974331104668E+00 
    1.0242441299568432E+01 
    1.0556379407449866E+01 
    1.4615693248965641E+01 
    1.0553172786596861E+01 
    1.4550181888804159E+01 
    4.4087247506675213E+00 
    6.9546371471357853E+00 
    1.0813865094804131E+01 
    1.4734171670508147E+01 
    9.3464232779379728E+00 
    9.9083640941015165E+00 
    1.0535319469557258E+01 
    9.9105541034481952E+00 
    1.1910992590011482E+01 
    9.6548993915808889E+00 
    9.2747983172547279E+00 
    7.4999369204881443E+00 
    1.2444882600485553E+01 
    1.0626921803282661E+01 
    1.5152641484936835E+01 
    9.1136497555112310E+00 
    1.0099610950450643E+01 
    1.4448499001403965E+01 
    8.5640045395731423E+00 
    1.4887618151724816E+01 
    1.0450761081744734E+01 
    1.0031260424468782E+01 
    1.4597765654936005E+01 
    1.0618126373222193E+01 
    1.5400052954403469E+01 
    1.2622696742329971E+01 
    1.3595926446970909E+01 
    1.5365580617754588E+01 
    7.9872786070332973E+00 
    1.0842248141056411E+01 
    1.4594853413146305E+01 
    3.3021312984033329E+00 
    1.0615361327683202E+01 
    1.5332048896672246E+01 
    1.0060400847768777E+01 
    1.1592265047039644E+01 
    7.1137222459075833E+00 
    1.4293140462893954E+01 
    1.7485863731709255E+01 
    1.3099492106895333E+01 
    1.0058047757588877E+01 
    9.0829280120437499E+00 
    1.1277856043709148E+01 
    1.0467797235403824E+01 
    7.2331460621595198E+00 
    1.5359417418620740E+01 
    1.4631780606263270E+01 
    1.4296814826418560E+01 
    1.1149196540770253E+01 
    9.2433279643868715E+00 
    1.0301826056594422E+01 
    1.5068249879742098E+01 
    9.4753090041838224E+00 
    1.0532638934516148E+01 
    9.6307935214246996E+00 
    1.2162663722035996E+01 
    1.7474253678696005E+01 
    1.4288299212581245E+01 
    9.2317482643379822E+00 
    1.4787224775351106E+01 
    1.4694631672512818E+01 
    1.4772838168619135E+01 
    1.5769258246189491E+01 
    1.6303878489551568E+01 
    1.4922102354610502E+01 
    1.0579237569320346E+01 
    1.1469851071206676E+01 
    1.4754924879967612E+01 
    1.5168096179609417E+01 
    7.5405838832739898E+00 
    1.4316586797458550E+01 
    1.5033077606489027E+01 
    7.3453078299165320E+00 
    1.5688842330850671E+01 
    1.5668718877570548E+01 
    1.4032830500258823E+01 
    1.0918170672532998E+01 
    2.8592448070916507E+00 
    1.5331029569986239E+01 
    1.0753873602740228E+01 
    1.5453397339779487E+01 
    9.9953338172257666E+00 
    1.5169357341689361E+01 
    1.0507697989046678E+00 
    1.3606785158411991E+01 
    1.0066583118192050E+01 
    9.2039269362632190E+00 
    8.9833725731556022E+00 
    1.0419695647423605E+01 
    1.1549236282182328E+01 
    1.0946197301694609E+01 
    7.6326355852703003E+00 
    1.5158673958844574E+01 
    1.4616258340096245E+01 
    1.2304682843881222E+01 
    1.0808414474428927E+01 
    1.6805292644574121E+00 
    8.3332638549926514E+00 
    5.9573630641272972E+00 
    1.5345695876365015E+01 
    1.1750675753316642E+01 
    1.4655354141173623E+01 
    1.4682581354234767E+01 
    9.5567432358335900E+00 
    1.2297715037160238E+01 
    1.4291852839811494E+01 
    1.5654263711020290E+01 
    7.0538557799567521E+00 
    1.3012733037894240E+01 
    1.0954221261986923E+01 
    6.3349684513562847E+00 
    9.5438051735987592E+00 
    1.2913274200894351E+01 
    1.4644309348040025E+01 
    1.0473267833218983E+01 
    1.4751886984251092E+01 
    1.4523405793226907E+01 
    1.4472459878965294E+01 
    1.0307049277129876E+01 
    9.1282035340553946E+00 
    1.4304912578671589E+01 
    9.2626533230946873E+00 
    1.0559162292783389E+01 
    9.0972304566475568E+00 
    1.0484861453193101E+01 
    1.4692029251734215E+01 
    6.5693785239560833E+00 
    9.4583268530346238E+00 
    1.5264024227235401E+01 
    1.0318123590298947E+01 
    1.1647113303164344E+01 
    6.7373600522310797E+00 
    9.3189664556691270E+00 
    1.4502856325670217E+01 
    1.4806437864547078E+01 
    5.5272679994664964E+00 
    1.0326173651267544E+01 
    9.1451981780965355E+00 
    1.6074254785651327E+01 
    1.5537006748142858E+01 
    1.6330223015282179E+01 
    1.0346609134912089E+01 
    1.4664728554081105E+01 
    1.4247236841701330E+01 
    1.0214410601356558E+01 
    1.4297115048055634E+01 
    1.0809207623887486E+01 
    6.4227413399564615E+00 
    1.0654454115758691E+01 
    1.5248735480485770E+01 
    1.4293904598006550E+01 
    7.1310042622274921E+00 
    1.4323545099259853E+01 
    1.1568561238981747E+01 
    1.0596586687556522E+01 
    1.0135794419903933E+01 
    1.4160108123292851E+01 
    1.1115325212620055E+01 
    1.4310102522281898E+01 
    1.0293863497921926E+01 
    6.6414218890589911E+00 
    1.0632851528861790E+01 
    8.9923301251449335E+00 
    1.3108565583172194E+01 
    1.5449942150733294E+01 
    1.4303098070035317E+01 
    1.5325146695972530E+01 
    1.0263555523709696E+01 
    6.9496430973873800E+00 
    7.0400008606847786E+00 
    1.0781928930209206E+01 
    1.0533899587780473E+01 
    1.6121996127350842E+00 
    1.3798514621363090E+01 
    1.5802704170293554E+01 
    1.0007035032697141E+01 
    6.6624536095236753E+00 
    1.2151804504925584E+01 
    1.4322135022039523E+01 
    7.7496088892140902E+00 
    5.3853187436845751E+00 
    1.0513031582760787E+01 
    1.4400908761031788E+01 
    1.5065080757235950E+01 
    1.4961428337029814E+01 
    1.4808782815508600E+01 
    7.6166227774951505E+00 
    1.0588874180256930E+01 
    1.3884304173635002E+01 
    8.2352717929598267E+00 
    1.4630623894799504E+01 
    1.2543713885224580E+01 
    7.1329208258095571E+00 
    1.4430389678298898E+01 
    1.5351899795388851E+01 
    1.4473727934123550E+01 
    7.4764712130337196E+00 
    1.0583651885242453E+01 
    8.1663243104015670E+00 
    9.9854636652515900E+00 
    1.4313508302300788E+01 
    1.4301670082394052E+01 
    7.5179369150213242E+00 
    1.5207521119369691E+01 
    1.1125565222646976E+01 
    1.4334271734292255E+01 
    1.5178774450860926E+01 
    1.4321985150545450E+01 
    1.3344964442400860E+01 
    1.6126859831469314E+01 
    9.9676682114731499E+00 
    1.5294287208187143E+01 
    1.4361596417427952E+01 
    1.5367200457337386E+01 
    1.5200262707398112E+01 
    1.0063317996563814E+01 
    1.0414530158421423E+01 
    9.9975539681658159E+00 
    1.2839257526051467E+01 
    4.4185698108461011E+00 
    1.0717804801891546E+01 
    1.6251289107243132E+01 
    1.0809808660395042E+01 
    1.0999735190575169E+01 
    1.5339889744204608E+01 
    1.5574391785752722E+01 
    9.9080020602317838E+00 
    1.4327938064293688E+01 
    1.4297985681426860E+01 
    1.0987117286917414E+01 
    1.5155155008005805E+01 
    7.4923010370620293E+00 
    4.8315192628255028E+00 
    1.1272710310784607E+01 
    1.0824209611983623E+01 
    1.4303477945513078E+01 
    7.0700959596860642E+00 
    1.4877004589862281E+01 
    4.9428525868948485E+00 
    1.0758623111570465E+01 
    1.0108949873891632E+01 
    1.0560402850444575E+01 
    1.7523335354716405E+01 
    4.2949743628838819E+00 
    1.0633511166821231E+01 
    1.2640707236799628E+01 
    1.0164503594844302E+01 
    8.2930283858573670E+00 
    1.4983853226179477E+01 
    1.7103100055809680E+01 
    1.5139058162064316E+01 
    1.0573909054776466E+01 
    6.2936177912438085E+00 
    1.6950210693643420E+01 
    1.4608294255236880E+01 
    7.9937443133489143E+00 
    1.0204770332551812E+01 
    1.5752171294927141E+01 
    3.6486795939791348E+00 
    1.0875179656956899E+01 
    1.5109289530840250E+01 
    1.0574352233606367E+01 
    9.2019716628773764E+00 
    1.0674061402634150E+01 
    1.4112231803289665E+01 
    1.0555828341468764E+01 
    5.6225272847531711E+00 
    1.0382152975210468E+00 
    7.8600305173414338E+00 
    1.5971372675259724E+01 
    9.9959729663870860E+00 
    1.1941432580185230E+01 
    1.1428314367217153E+01 
    1.3212821425738474E+01 
    1.0587820229981601E+01 
    1.4520396077809043E+01 
    1.7537232533269567E+01 
    1.2516605817384514E+01 
    1.5266230083798527E+01 
    6.0635994724574016E-01 
    1.4303655489831739E+01 
    6.2233125751138259E+00 
    1.6416782390642190E+01 
    1.0647398498893166E+01 
    9.3632669937001562E+00 
    8.3168249758065205E+00 
    5.8797070686432891E+00 
    1.1812629044864323E+01 
    8.3230895732459409E+00 
    1.3001928753487366E+01 
    2.4203883168640195E+00 
    1.1604506158852748E+01 
    1.4234830807854230E+01 
    6.3944247232070541E+00 
    1.4781407214319325E+01 
    1.6234511172871464E+01 
    1.4621262496601378E+01 
    1.0513075523585913E+01 
    1.0554894620782679E+01 
    1.0639966192409462E+01 
    6.3441005682083969E+00 
    9.7331874605605879E+00 
    9.5856635466821576E+00 
    1.0628812901072850E+01 
    9.9331715996199375E+00 
    7.7789332696433744E-01 
    7.1247174685534249E+00 
    1.0325420943148670E+01 
    1.0603797473661810E+01 
    1.3353150548208681E+01 
    2.3866138057058568E+00 
    1.0946272039524100E+01 
    1.0829377016298171E+01 
    4.1338661650827113E+00 
    1.4485030710473298E+01 
    9.2788991366993638E+00 
    1.0688702389016042E+01 
    1.4607730920601872E+01 
    5.9064243222045327E+00 
    1.4598938348213116E+01 
    9.3890403407631577E+00 
    1.0841284089561323E+00 
    1.0056303965686192E+01 
    1.5219885981767513E+01 
    1.4303685377153595E+01 
    1.4323065339939681E+01 
    1.0991112349271095E+01 
    1.0761908940388494E+01 
    9.2604270578034917E+00 
    7.6886402760030386E+00 
    1.4717026457065751E+01 
    1.0200463073653379E+01 
    7.4805633866779102E+00 
    1.4317969261787523E+01 
    1.5017875957483005E+01 
    1.0804922742726896E+01 
    1.0365904001777473E+01 
    1.7419859194187890E+01 
    1.0988025328149467E+01 
    1.4731063505198851E+01 
    8.8373449603027190E+00 
    1.7565144939187963E+01 
    6.9986014427044418E+00 
    9.6573245841046109E+00 
    7.8054348897677768E+00 
    1.1221941011798618E+01 
    8.9721553239640617E+00 
    1.7549016460151325E+01 
    1.1036645762298210E+01 
    1.4048261605264223E+01 
    7.1909684036642556E+00 
    1.0583631082659519E+01 
    1.4573487757296274E+01 
    8.9789994870732972E+00 
    7.9274208826398755E+00 
    1.1784968943078921E+01 
    1.4792678522704961E+01 
    7.7066221557789270E+00 
    1.0128848028119981E+01 
    1.0398358492954518E+01 
    1.4278989200352479E+01 
    1.0188959108925703E+01 
    1.4770250902816732E+01 
    1.5396257521792602E+01 
    9.2866419069286685E+00 
    9.1176415154124832E+00 
    8.3601046814145104E+00 
    1.4424512649814506E+01 
    1.0851744612863596E+01 
    1.7138667221413378E+01 
    1.3466616522178024E+01 
    1.4535703233782955E+01 
    1.6826592317296605E+01 
    1.6235734824700220E+01 
    1.0630186312153095E+01 
    1.0613643512833949E+01 
    1.4058972602173730E+01 
    1.4341825016746958E+01 
    1.4889871340303399E+01 
    1.4629848019079054E+01 
    1.7440788192645666E+01 
    1.0987549979838354E+01 
    9.3866807178000542E+00 
    1.0994606348788093E+01 
    1.5308896246350583E+01 
    1.0726363371455218E+01 
    6.3033840875995013E+00 
    1.0497055884125951E+01 
    1.5723479448240964E+01 
    1.0865535038205394E+01 
    9.3914780948448708E+00 
    1.0339000201952524E+01 
    1.5831407024466788E+01 
    1.4376682176490807E+01 
    8.9753419103860299E+00 
    1.5969055155707080E+01 
    1.0659060049844951E+01 
    1.4874821887581760E+01 
    1.5846290742977530E+01 
    1.1245504238758576E+01 
    5.9218752294399124E+00 
    1.1748202244271035E+01 
    6.1142528628455244E+00 
    1.0776890498337941E+01 
    1.0577070699849429E+01 
    1.2370427714245386E+01 
    6.4464348575900194E+00 
    1.3094186585952000E+01 
    1.0595881445807514E+01 
    1.4619412318989232E+01 
    1.1271783330545217E+01 
    8.8150710221793247E+00 
    1.0208183894195328E+01 
    1.1148837689276984E+01 
    1.1093053573431401E+01 
    1.5444110010911151E+01 
    9.0030023228043170E+00 
    8.8560954657893962E+00 
    6.7529018194743058E+00 
    1.4914241312860746E+01 
    1.0251400187383705E+01 
    1.4187178149205630E+01 
    1.0546861933054931E+01 
    7.3385005730538238E+00 
    1.4414587984099345E+01 
    1.0522598933395749E+01 
    7.9492460250438359E+00 
    8.3830323509049869E+00 
    8.6563996551294817E+00 
    1.4650935468078055E+01 
    1.0630814906463414E+01 
    1.5277795937194872E+01 
    1.0481727899001500E+01 
    1.0419906957272774E+01 
    1.0047472132274756E+01 
    1.4493827542548861E+01 
    1.0335421090583433E+01 
    8.6965212175999440E+00 
    1.6222739456799641E+01 
    1.4572871981443846E+01 
    7.3214876483098799E+00 
    3.0290365609693168E+00 
    1.0620055554140080E+01 
    9.9186592974676735E+00 
    9.1147334308312811E+00 
    9.8533794623891833E+00 
    1.4509706728026542E+01 
    1.0329818281671987E+01 
    9.4351204775194191E+00 
    1.4364241100733551E+01 
    7.2576317812265296E+00 
    1.4020663905680422E+01 
    9.5673745046408705E+00 
    8.6732611189823032E+00 
    9.1943145294167437E+00 
    1.4959304803154300E+01 
    1.0563234285710772E+01 
    1.0571426626485309E+01 
    6.5124160590307101E+00 
    7.0003520247826190E+00 
    1.3426030035804006E+01 
    1.0581258506275846E+01 
    1.0660651903038694E+01 
    1.5952755502296606E+01 
    8.8540594483454242E+00 
    1.0593556484474725E+01 
    7.5054967217742927E+00 
    7.7468371577558290E+00 
    1.4490856960161777E+01 
    1.0217964637560788E+01 
    7.6660851298178745E+00 
    1.1154885538875343E+01 
    1.0472184415931942E+01 
    1.4493141914323145E+01 
    1.6044996028339689E+01 
    1.1593494514022675E+00 
    1.0624974722225673E+01 
    1.0822371197205349E+01 
    1.4552176752125629E+01 
    1.0126702532495306E+01 
    1.0536586992506875E+01 
    1.5499666935684269E+01 
    9.2255513187560414E+00 
    7.7314885307303047E+00 
    1.2672536266845315E+01 
    1.4317593760208156E+01 
    1.5366893805292362E+01 
    1.5626641821271097E+01 
    1.0467182918605952E+01 
    1.0616650454106107E+01 
    1.1869110286690169E+01 
    6.9761746040354620E+00 
    1.4446847635034965E+01 
    8.2874379910170735E+00 
    7.2469668968016938E+00 
    1.3177809410092369E+01 
    1.2454457738960649E+01 
    7.1140300215774852E+00 
    1.4354236175862752E+01 
    1.5352230183794719E+01 
    1.1003535271783797E+01 
    1.6145419150666356E+01 
    1.4388080718021513E+01 
    1.0198542810634121E+01 
    1.5087516892738295E+01 
    7.7495722088481847E+00 
    1.4336250846619899E+01 
    1.0624003935642483E+01 
    1.0584332188167126E+01 
    1.6121080520946755E+01 
    1.0287946938165687E+01 
    1.2942996153389549E+01 
    9.1733778572510278E+00 
    1.5469739456831265E+01 
    1.4241666228689192E+01 
    9.5378870603628396E+00 
    1.4292966169840403E+01 
    9.5527299565967034E+00 
    1.0545261606918684E+01 
    1.5311135857890259E+01 
    1.4626840568515421E+01 
    1.5355554673092183E+01 
    1.4556016962426547E+01 
    9.7449946736932684E+00 
    9.9611999417805066E+00 
    1.5362278189816896E+01 
    1.0083353446325752E+01 
    1.4167369944499770E+01 
    1.0273999663748361E+01 
    4.4545275069407326E+00 
    7.3179597593392307E+00 
    6.7933263908100781E+00 
    1.5314559084347604E+01 
    1.6050930051188018E+01 
    1.4311425810463950E+01 
    1.2131104314195614E+01 
    1.4609887542520912E+01 
    1.4361314391120358E+01 
    1.4957614655912158E+01 
    6.3098938510139693E+00 
    4.1523609110797972E+00 
    1.1913696318138815E+01 
    1.0284559376652977E+01 
    1.4511608399336616E+01 
    1.4509061920929579E+01 
    1.0851155339826342E+01 
    1.4546880885260741E+01 
    1.0610994403186879E+01 
    1.0515827476645404E+01 
    5.7253599218213536E+00 
    4.1390139936789252E+00 
    1.5826983785687395E+01 
    8.2384297551543000E+00 
    9.4757044080638462E+00 
    1.0738181594410824E+01 
    1.7421339508730167E+01 
    1.0831839891239477E+01 
    1.0917444075261848E+01 
    4.6869392738807623E+00 
    1.0833258233239356E+01 
    1.0848345980507686E+01 
    1.4829472698184281E+01 
    9.1997276256213354E+00 
    1.0110019143140965E+01 
    1.5995810072258225E+01 
    1.0633312075016049E+01 
    1.4327705019580755E+01 
    1.4570302294314894E+01 
    1.2920563549053213E+01 
    8.9686801288728599E+00 
    1.4556227103477850E+01 
    1.0424717581438070E+01 
    1.4501249455482187E+01 
    1.4265187078515330E+01 
    1.5334151515360539E+01 
    1.4551411316123735E+01 
    1.3644100829460440E+01 
    1.0622113325116022E+01 
    7.0553567786984566E+00 
    1.7296983525347457E+01 
    8.4508013955723911E+00 
    1.5253682243893898E+01 
    1.0619494057885253E+01 
    8.9054085625948201E+00 
    5.4147459451657021E+00 
    1.0887333681379364E+01 
    1.4542488940378034E+01 
    1.4540544871634012E+01 
    1.0525780735511491E+01 
    1.0613597140136797E+01 
    1.6203215315917028E+01 
    1.5570224261236469E+01 
    1.0850602878258375E+01 
    3.8609716721945233E+00 
    1.3574700587117096E+01 
    1.7546874971015779E+01 
    1.0625468511164462E+01 
    1.2513083586243189E+01 
    1.0124242106023338E+01 
    1.7157056738111397E+01 
    1.5651751763438822E+01 
    1.5398249163637217E+01 
    1.0872485818011704E+01 
    5.0089717154654121E+00 
    1.0083158674531916E+01 
    1.0148751526825373E+01 
    1.0193135365437287E+01 
    4.1954880309751843E+00 