# vtk DataFile Version 2.0
Pressure Field Data 
ASCII 
DATASET UNSTRUCTURED_GRID 

POINTS 2860 double 

    0.0000000000000000E+00     0.0000000000000000E+00     0.0000000000000000E+00 
    1.0000000000000000E+00     0.0000000000000000E+00     0.0000000000000000E+00 
    1.0000000000000000E+00     1.0000000000000000E+00     0.0000000000000000E+00 
    0.0000000000000000E+00     1.0000000000000000E+00     0.0000000000000000E+00 
    2.5000000000000000E-01     2.5000000000000000E-01     0.0000000000000000E+00 
    7.5000000000000000E-01     2.5000000000000000E-01     0.0000000000000000E+00 
    7.5000000000000000E-01     7.5000000000000000E-01     0.0000000000000000E+00 
    2.5000000000000000E-01     7.5000000000000000E-01     0.0000000000000000E+00 
    3.1249999999942091E-02     0.0000000000000000E+00     0.0000000000000000E+00 
    6.2499999999873469E-02     0.0000000000000000E+00     0.0000000000000000E+00 
    9.3749999999826514E-02     0.0000000000000000E+00     0.0000000000000000E+00 
    1.2499999999977961E-01     0.0000000000000000E+00     0.0000000000000000E+00 
    1.5624999999968961E-01     0.0000000000000000E+00     0.0000000000000000E+00 
    1.8749999999959971E-01     0.0000000000000000E+00     0.0000000000000000E+00 
    2.1874999999950970E-01     0.0000000000000000E+00     0.0000000000000000E+00 
    2.4999999999941969E-01     0.0000000000000000E+00     0.0000000000000000E+00 
    2.8124999999932920E-01     0.0000000000000000E+00     0.0000000000000000E+00 
    3.1249999999923850E-01     0.0000000000000000E+00     0.0000000000000000E+00 
    3.4374999999914790E-01     0.0000000000000000E+00     0.0000000000000000E+00 
    3.7499999999905720E-01     0.0000000000000000E+00     0.0000000000000000E+00 
    4.0624999999896660E-01     0.0000000000000000E+00     0.0000000000000000E+00 
    4.3749999999887590E-01     0.0000000000000000E+00     0.0000000000000000E+00 
    4.6874999999878530E-01     0.0000000000000000E+00     0.0000000000000000E+00 
    4.9999999999869471E-01     0.0000000000000000E+00     0.0000000000000000E+00 
    5.3124999999877620E-01     0.0000000000000000E+00     0.0000000000000000E+00 
    5.6249999999885780E-01     0.0000000000000000E+00     0.0000000000000000E+00 
    5.9374999999893940E-01     0.0000000000000000E+00     0.0000000000000000E+00 
    6.2499999999902101E-01     0.0000000000000000E+00     0.0000000000000000E+00 
    6.5624999999910261E-01     0.0000000000000000E+00     0.0000000000000000E+00 
    6.8749999999918421E-01     0.0000000000000000E+00     0.0000000000000000E+00 
    7.1874999999926570E-01     0.0000000000000000E+00     0.0000000000000000E+00 
    7.4999999999934730E-01     0.0000000000000000E+00     0.0000000000000000E+00 
    7.8124999999942890E-01     0.0000000000000000E+00     0.0000000000000000E+00 
    8.1249999999951039E-01     0.0000000000000000E+00     0.0000000000000000E+00 
    8.4374999999959199E-01     0.0000000000000000E+00     0.0000000000000000E+00 
    8.7499999999967359E-01     0.0000000000000000E+00     0.0000000000000000E+00 
    9.0624999999975520E-01     0.0000000000000000E+00     0.0000000000000000E+00 
    9.3749999999983680E-01     0.0000000000000000E+00     0.0000000000000000E+00 
    9.6874999999991840E-01     0.0000000000000000E+00     0.0000000000000000E+00 
    1.0000000000000000E+00     3.1249999999942091E-02     0.0000000000000000E+00 
    1.0000000000000000E+00     6.2499999999873469E-02     0.0000000000000000E+00 
    1.0000000000000000E+00     9.3749999999826514E-02     0.0000000000000000E+00 
    1.0000000000000000E+00     1.2499999999977961E-01     0.0000000000000000E+00 
    1.0000000000000000E+00     1.5624999999968961E-01     0.0000000000000000E+00 
    1.0000000000000000E+00     1.8749999999959971E-01     0.0000000000000000E+00 
    1.0000000000000000E+00     2.1874999999950970E-01     0.0000000000000000E+00 
    1.0000000000000000E+00     2.4999999999941969E-01     0.0000000000000000E+00 
    1.0000000000000000E+00     2.8124999999932920E-01     0.0000000000000000E+00 
    1.0000000000000000E+00     3.1249999999923850E-01     0.0000000000000000E+00 
    1.0000000000000000E+00     3.4374999999914790E-01     0.0000000000000000E+00 
    1.0000000000000000E+00     3.7499999999905720E-01     0.0000000000000000E+00 
    1.0000000000000000E+00     4.0624999999896660E-01     0.0000000000000000E+00 
    1.0000000000000000E+00     4.3749999999887590E-01     0.0000000000000000E+00 
    1.0000000000000000E+00     4.6874999999878530E-01     0.0000000000000000E+00 
    1.0000000000000000E+00     4.9999999999869471E-01     0.0000000000000000E+00 
    1.0000000000000000E+00     5.3124999999877620E-01     0.0000000000000000E+00 
    1.0000000000000000E+00     5.6249999999885780E-01     0.0000000000000000E+00 
    1.0000000000000000E+00     5.9374999999893940E-01     0.0000000000000000E+00 
    1.0000000000000000E+00     6.2499999999902101E-01     0.0000000000000000E+00 
    1.0000000000000000E+00     6.5624999999910261E-01     0.0000000000000000E+00 
    1.0000000000000000E+00     6.8749999999918421E-01     0.0000000000000000E+00 
    1.0000000000000000E+00     7.1874999999926570E-01     0.0000000000000000E+00 
    1.0000000000000000E+00     7.4999999999934730E-01     0.0000000000000000E+00 
    1.0000000000000000E+00     7.8124999999942890E-01     0.0000000000000000E+00 
    1.0000000000000000E+00     8.1249999999951039E-01     0.0000000000000000E+00 
    1.0000000000000000E+00     8.4374999999959199E-01     0.0000000000000000E+00 
    1.0000000000000000E+00     8.7499999999967359E-01     0.0000000000000000E+00 
    1.0000000000000000E+00     9.0624999999975520E-01     0.0000000000000000E+00 
    1.0000000000000000E+00     9.3749999999983680E-01     0.0000000000000000E+00 
    1.0000000000000000E+00     9.6874999999991840E-01     0.0000000000000000E+00 
    9.6875000000003686E-01     1.0000000000000000E+00     0.0000000000000000E+00 
    9.3750000000011691E-01     1.0000000000000000E+00     0.0000000000000000E+00 
    9.0625000000015765E-01     1.0000000000000000E+00     0.0000000000000000E+00 
    8.7500000000017863E-01     1.0000000000000000E+00     0.0000000000000000E+00 
    8.4375000000028044E-01     1.0000000000000000E+00     0.0000000000000000E+00 
    8.1250000000040856E-01     1.0000000000000000E+00     0.0000000000000000E+00 
    7.8125000000054956E-01     1.0000000000000000E+00     0.0000000000000000E+00 
    7.5000000000066480E-01     1.0000000000000000E+00     0.0000000000000000E+00 
    7.1875000000086831E-01     1.0000000000000000E+00     0.0000000000000000E+00 
    6.8750000000102829E-01     1.0000000000000000E+00     0.0000000000000000E+00 
    6.5625000000114431E-01     1.0000000000000000E+00     0.0000000000000000E+00 
    6.2500000000129829E-01     1.0000000000000000E+00     0.0000000000000000E+00 
    5.9375000000147926E-01     1.0000000000000000E+00     0.0000000000000000E+00 
    5.6250000000168354E-01     1.0000000000000000E+00     0.0000000000000000E+00 
    5.3125000000188671E-01     1.0000000000000000E+00     0.0000000000000000E+00 
    5.0000000000205835E-01     1.0000000000000000E+00     0.0000000000000000E+00 
    4.6875000000192979E-01     1.0000000000000000E+00     0.0000000000000000E+00 
    4.3750000000180111E-01     1.0000000000000000E+00     0.0000000000000000E+00 
    4.0625000000167238E-01     1.0000000000000000E+00     0.0000000000000000E+00 
    3.7500000000154382E-01     1.0000000000000000E+00     0.0000000000000000E+00 
    3.4375000000141509E-01     1.0000000000000000E+00     0.0000000000000000E+00 
    3.1250000000128642E-01     1.0000000000000000E+00     0.0000000000000000E+00 
    2.8125000000115769E-01     1.0000000000000000E+00     0.0000000000000000E+00 
    2.5000000000102918E-01     1.0000000000000000E+00     0.0000000000000000E+00 
    2.1875000000090050E-01     1.0000000000000000E+00     0.0000000000000000E+00 
    1.8750000000077180E-01     1.0000000000000000E+00     0.0000000000000000E+00 
    1.5625000000064329E-01     1.0000000000000000E+00     0.0000000000000000E+00 
    1.2500000000051459E-01     1.0000000000000000E+00     0.0000000000000000E+00 
    9.3750000000385914E-02     1.0000000000000000E+00     0.0000000000000000E+00 
    6.2500000000257239E-02     1.0000000000000000E+00     0.0000000000000000E+00 
    3.1250000000128557E-02     1.0000000000000000E+00     0.0000000000000000E+00 
    0.0000000000000000E+00     9.6875000000003686E-01     0.0000000000000000E+00 
    0.0000000000000000E+00     9.3750000000011691E-01     0.0000000000000000E+00 
    0.0000000000000000E+00     9.0625000000015765E-01     0.0000000000000000E+00 
    0.0000000000000000E+00     8.7500000000017863E-01     0.0000000000000000E+00 
    0.0000000000000000E+00     8.4375000000028044E-01     0.0000000000000000E+00 
    0.0000000000000000E+00     8.1250000000040856E-01     0.0000000000000000E+00 
    0.0000000000000000E+00     7.8125000000054956E-01     0.0000000000000000E+00 
    0.0000000000000000E+00     7.5000000000066480E-01     0.0000000000000000E+00 
    0.0000000000000000E+00     7.1875000000086831E-01     0.0000000000000000E+00 
    0.0000000000000000E+00     6.8750000000102829E-01     0.0000000000000000E+00 
    0.0000000000000000E+00     6.5625000000114431E-01     0.0000000000000000E+00 
    0.0000000000000000E+00     6.2500000000129829E-01     0.0000000000000000E+00 
    0.0000000000000000E+00     5.9375000000147926E-01     0.0000000000000000E+00 
    0.0000000000000000E+00     5.6250000000168354E-01     0.0000000000000000E+00 
    0.0000000000000000E+00     5.3125000000188671E-01     0.0000000000000000E+00 
    0.0000000000000000E+00     5.0000000000205835E-01     0.0000000000000000E+00 
    0.0000000000000000E+00     4.6875000000192979E-01     0.0000000000000000E+00 
    0.0000000000000000E+00     4.3750000000180111E-01     0.0000000000000000E+00 
    0.0000000000000000E+00     4.0625000000167238E-01     0.0000000000000000E+00 
[...]
CELL_DATA 2795 
SCALARS Pressure double 1 
LOOKUP_TABLE default 

    7.3698442523408465E+00 
    1.6055887123624512E+01 
    1.1353022903496061E+01 
    1.1068589589960940E+01 
    8.9714507798864833E+00 
    1.5897483199208006E+01 
    1.6676799016180613E+01 
    6.6185683139193134E+00 
    1.1912636069708396E+01 
    9.1800732153842457E+00 
    7.8679956097163357E+00 
    1.5620541160103663E+01 
    1.5973576072372754E+01 
    1.5865210576758141E+01 
    1.0470831340315646E+01 
    6.5132308631850018E+00 
    1.0285550565740341E+01 
    8.3583170095423096E+00 
    1.5231429217835633E+01 
    1.1335518145608972E+01 
    1.1231841385375310E+01 
    1.5793019706042086E+01 
    1.0796421096617019E+01 
    4.3677649835920063E-01 
    1.5660807724886629E+01 
    1.5927718928413228E+01 
    1.6710225241821338E+01 
    7.6299467065903128E+00 
    1.5535879090935742E+01 
    1.6694633812407787E+01 
    1.1520373429652320E+01 
    1.1542507462072081E+01 
    8.3195376502453975E+00 
    1.1315668640732991E+01 
    3.8007310743742884E+00 
    1.0286854052284598E+01 
    1.1301840042947585E+01 
    1.6735543312028526E+01 
    1.6652622552484402E+01 
    1.5634358458797971E+01 
    8.9356240288288102E+00 
    1.5634527425658407E+01 
    9.1334604830294974E-01 
    1.1309957796137489E+01 
    1.6474256432916395E+01 
    1.6232635587311833E+01 
    1.5609085170981972E+01 
    1.2323792007078099E+01 
    1.5676795653995660E+01 
    1.0505684387616270E+01 
    1.0046698853859320E+01 
    1.1506618360231927E+01 
    1.1213101074877381E+01 
    1.0346957414168127E+01 
    1.1592598028889064E+01 
    1.5006002344816125E+01 
    1.3294159544188455E+01 
    9.0181140906238237E+00 
    1.5798796666821282E+01 
    1.5715439978692356E+01 
    1.1056812757853695E+01 
    1.0929633508424288E+01 
    1.0971404376171179E+01 
    1.6592799526971181E+01 
    1.6875676602062693E+01 
    1.0301558434837393E+01 
    1.1505199432368697E+01 
    1.5441263529153161E+01 
    1.3290364038087269E+01 
    1.0975769043208340E+01 
    1.6875574445736511E+01 
    1.5781846913468689E+01 
    1.0165369977998687E+01 
    1.6352271459535377E+01 
    1.1832847076318473E+01 
    1.5502016781984379E+01 
    1.6754719595763770E+01 
    1.1871094813289782E+01 
    7.5322213705797951E+00 
    1.1523273218248638E+01 
    1.6661803183276806E+01 
    1.6897219155674328E+01 
    1.0302464906481816E+01 
    1.1448099695677135E+01 
    1.6948927196489244E+01 
    1.1301355181746933E+01 
    1.0884105665133971E+01 
    1.3746966987838958E+01 
    7.2103747827418259E+00 
    1.0078360671387038E+01 
    1.1445606394165154E+01 
    1.2072428497501337E+01 
    1.8435705356403190E+01 
    8.7286267912732942E+00 
    1.1513020459503602E+01 
    1.5585585592935795E+01 
    1.5921908247778987E+01 
    7.7368344807108640E+00 
    1.1165423307923220E+01 
    1.1479248621402213E+01 
    1.5944032324451829E+01 
    1.1471421588994565E+01 
    1.5873328660636082E+01 
    4.7619426505337854E+00 
    7.6480227498325215E+00 
    1.1729231370582067E+01 
    1.6062611508601019E+01 
    1.0252121922993318E+01 
    1.0827728291876538E+01 
    1.1451513987477341E+01 
    1.0853140650509316E+01 
    1.2907619961017186E+01 
    1.0558873788269889E+01 
    1.0174399866212886E+01 
    8.2224820338634910E+00 
    1.3584941899349108E+01 
    1.1547789315617644E+01 
    1.6503538853340519E+01 
    9.9477804234539846E+00 
    1.1050436357064163E+01 
    1.5763603874840529E+01 
    9.3872883912340086E+00 
    1.6227779011943888E+01 
    1.1375215865494232E+01 
    1.0980823651009807E+01 
    1.5924912231626623E+01 
    1.1535552213598358E+01 
    1.6764677262045943E+01 
    1.3773438469550189E+01 
    1.4831147911636988E+01 
    1.6727954735240584E+01 
    8.7447692140593389E+00 
    1.1753716670873233E+01 
    1.5919186878619698E+01 
    3.5561306081030759E+00 
    1.1570381162231829E+01 
    1.6692437201405209E+01 
    1.1009158370561416E+01 
    1.2621805498445115E+01 
    7.7393715193948909E+00 
    1.5582753526267522E+01 
    1.8919653956232541E+01 
    1.4282455544083994E+01 
    1.1008746557550021E+01 
    9.9605403166400421E+00 
    1.2249475007210501E+01 
    1.1392257777440825E+01 
    7.9688768136548793E+00 
    1.6721846517040643E+01 
    1.5933716723420353E+01 
    1.5587329818958569E+01 
    1.2073411825138614E+01 
    1.0140303794567730E+01 
    1.1228065508330181E+01 
    1.6392168883906198E+01 
    1.0390425423330983E+01 
    1.1474940281268692E+01 
    1.0555434410672085E+01 
    1.3284821245218339E+01 
    1.8907797613734182E+01 
    1.5578526954617432E+01 
    1.0137362348659263E+01 
    1.6125336240969808E+01 
    1.6021238488512790E+01 
    1.6103558932330092E+01 
    1.7152483394888240E+01 
    1.7708124989984153E+01 
    1.6223690669966910E+01 
    1.1496988409610424E+01 
    1.2391413862354128E+01 
    1.6053281311842046E+01 
    1.6520210913979703E+01 
    8.3191988201997020E+00 
    1.5608740813891117E+01 
    1.6353101569278650E+01 
    8.0901281046211420E+00 
    1.7071921222648609E+01 
    1.7046743209880315E+01 
    1.5303737913207486E+01 
    1.1830477027903155E+01 
    3.1400177630039336E+00 
    1.6691960281739558E+01 
    1.1670427728732024E+01 
    1.6821721516647376E+01 
    1.0939789638864889E+01 
    1.6511959153011880E+01 
    1.1368160035569244E+00 
    1.4833417905894912E+01 
    1.0975235270647026E+01 
    1.0096553283480628E+01 
    9.8519420215219498E+00 
    1.1343601775158465E+01 
    1.2515192874163152E+01 
    1.1950159989527002E+01 
    8.3028383903541343E+00 
    1.6509477041385090E+01 
    1.5939772965686915E+01 
    1.3383347827621389E+01 
    1.1722468135816861E+01 
    1.8031697256457015E+00 
    9.1317342532789354E+00 
    6.4666583310374479E+00 
    1.6706869635590955E+01 
    1.2734674591670332E+01 
    1.5961151075226416E+01 
    1.6011045871930246E+01 
    1.0467402297425881E+01 
    1.3290899758588953E+01 
    1.5582095861665506E+01 
    1.7032089279668128E+01 
    7.7182614963619089E+00 
    1.4195072114930943E+01 
    1.1889791762135907E+01 
    6.8661647037350519E+00 
    1.0461068378099109E+01 
    1.3897129331276545E+01 
    1.5969852782052955E+01 
    1.1395647961946553E+01 
    1.6082328625105085E+01 
    1.5842781737607012E+01 
    1.5787495463457297E+01 
    1.1232640867309218E+01 
    9.9940964316863781E+00 
    1.5595758287386047E+01 
    1.0160280625775604E+01 
    1.1478893766607230E+01 
    9.9795420174746940E+00 
    1.1438262548075125E+01 
    1.6021689966437570E+01 
    7.2210100101085022E+00 
    1.0369153997385915E+01 
    1.6621104229690413E+01 
    1.1242360978432917E+01 
    1.2626249707137353E+01 
    7.4054203920916981E+00 
    1.0220263480886654E+01 
    1.5821322911705009E+01 
    1.6139495268144813E+01 
    6.0747723337663704E+00 
    1.1252837693835501E+01 
    1.0033323789700420E+01 
    1.7470763306475590E+01 
    1.6908520131145387E+01 
    1.7736188667877940E+01 
    1.1273105975162654E+01 
    1.5991757363086558E+01 
    1.5532812607938123E+01 
    1.1135145988640701E+01 
    1.5587816646460567E+01 
    1.1724259922141083E+01 
    6.9536953820213530E+00 
    1.1610032536635602E+01 
    1.6605038842057823E+01 
    1.5584447504894646E+01 
    7.8585915486979623E+00 
    1.5616190068060179E+01 
    1.2539265538400393E+01 
    1.1550340950417727E+01 
    1.1084724615221313E+01 
    1.5442066470662786E+01 
    1.2081242331154730E+01 
    1.5601418824848102E+01 
    1.1246809427854171E+01 
    7.1867979575362018E+00 
    1.1557298586972362E+01 
    9.8595836175273472E+00 
    1.4301050303345054E+01 
    1.6817163264023755E+01 
    1.5593571800392988E+01 
    1.6685344567135125E+01 
    1.1185541956803904E+01 
    7.6414207569270696E+00 
    7.7423375467630651E+00 
    1.1740627615918614E+01 
    1.1452050931332293E+01 
    1.7536931872447408E+00 
    1.5047189135856490E+01 
    1.7189023560290522E+01 
    1.0954180842205401E+01 
    7.2468727078835027E+00 
    1.3184768863226672E+01 
    1.5614596990687103E+01 
    8.4747918359282863E+00 
    5.8394446177931085E+00 
    1.1434057810729454E+01 
    1.5694914546282432E+01 
    1.6411331731960686E+01 
    1.6281157348689359E+01 
    1.6141077875927110E+01 
    8.3462948744090664E+00 
    1.1543686074253735E+01 
    1.5154762269261147E+01 
    9.0173098587416245E+00 
    1.5959839455160358E+01 
    1.3537929991153295E+01 
    7.8432620623103997E+00 
    1.5724322663337034E+01 
    1.6719398077100596E+01 
    1.5784212610547975E+01 
    8.1720515026979896E+00 
    1.1501345286120568E+01 
    8.9454576589723160E+00 
    1.0870039911361095E+01 
    1.5605430242561672E+01 
    1.5592732994903978E+01 
    8.2179406820368861E+00 
    1.6558908666379562E+01 
    1.2063130539440252E+01 
    1.5625539718173744E+01 
    1.6532763889119408E+01 
    1.5613126343639646E+01 
    1.4534724935359941E+01 
    1.7526838224841235E+01 
    1.0906511910726742E+01 
    1.6652535874566841E+01 
    1.5654365450448280E+01 
    1.6729874326218127E+01 
    1.6552374420352049E+01 
    1.1008324676385971E+01 
    1.1342377370083831E+01 
    1.0944951428193308E+01 
    1.3974296493742196E+01 
    4.7739365653617893E+00 
    1.1675227404166707E+01 
    1.7655198505006332E+01 
    1.1725570287020163E+01 
    1.1928061531611378E+01 
    1.6701135591106606E+01 
    1.6945911858364632E+01 
    1.0826440046950319E+01 
    1.5620965855385311E+01 
    1.5588501543090592E+01 
    1.1914490630786458E+01 
    1.6505319474345928E+01 
    8.2364020743712558E+00 
    5.3132292845391333E+00 
    1.2220978994883168E+01 
    1.1739317461225140E+01 
    1.5594260435856262E+01 
    7.7135517959251612E+00 
    1.6200428434547820E+01 
    5.4243155493498145E+00 
    1.1674485641455377E+01 
    1.1038406370038082E+01 
    1.1478351014252560E+01 
    1.8957081140212306E+01 
    4.6390543856206259E+00 
    1.1588744085236103E+01 
    1.3803843620772334E+01 
    1.1081484413788797E+01 
    9.1130349878244967E+00 
    1.6322809955761400E+01 
    1.8529956652570313E+01 
    1.6477639492031631E+01 
    1.1526571508321146E+01 
    6.8269225868934269E+00 
    1.8372286722570944E+01 
    1.5933852165412622E+01 
    8.6974186657943324E+00 
    1.1158312135172393E+01 
    1.7134320398878661E+01 
    3.9373436582373609E+00 
    1.1794729115612142E+01 
    1.6461020629945239E+01 
    1.1493067438696668E+01 
    1.0040812587162566E+01 
    1.1630339131415901E+01 
    1.5355517080301558E+01 
    1.1475045350777338E+01 
    6.0944090372812498E+00 
    1.1269542000100965E+00 
    8.6259187627515566E+00 
    1.7366042437620813E+01 
    1.0943908333853106E+01 
    1.2931903462154901E+01 
    1.2404517336958092E+01 
    1.4215639317053418E+01 
    1.1506682464805001E+01 
    1.5841554899375959E+01 
    1.8971161148389189E+01 
    1.3663200053771483E+01 
    1.6622812596289116E+01 
    6.5269417516035366E-01 
    1.5594899967296032E+01 
    6.7473550659312655E+00 
    1.7825709786884378E+01 
    1.1602997152970412E+01 
    1.0229161890806527E+01 
    9.1136553592481757E+00 
    6.3843002652873775E+00 
    1.2846105810437557E+01 
    9.1229423736997450E+00 
    1.4189332420508839E+01 
    2.6647551488957082E+00 
    1.2578749145479744E+01 
    1.5520563843813044E+01 
    7.0318101501922552E+00 
    1.6078620369285261E+01 
    1.7633105930046277E+01 
    1.5926123602687779E+01 
    1.1462861599651289E+01 
    1.1472567623056477E+01 
    1.1595375500577378E+01 
    6.8994883014366444E+00 
    1.0666680719079647E+01 
    1.0508267715909501E+01 
    1.1583911413808242E+01 
    1.0875532626354920E+01 
    8.3937871791036567E-01 
    7.6696459570938638E+00 
    1.1273233637608399E+01 
    1.1557842174233963E+01 
    1.4563592485049305E+01 
    2.5730438334652717E+00 
    1.1870766165882598E+01 
    1.1745986291536669E+01 
    4.4616575068254374E+00 
    1.5782826431099881E+01 
    1.0169049145638928E+01 
    1.1605306276145665E+01 
    1.5935516121359230E+01 
    6.4114220686550354E+00 
    1.5899466759346831E+01 
    1.0297097739678685E+01 
    1.1651868023449405E+00 
    1.1006280801155944E+01 
    1.6575171184959384E+01 
    1.5594657727960097E+01 
    1.5614662494618528E+01 
    1.1955658686192164E+01 
    1.1677642119133360E+01 
    1.0156666261879376E+01 
    8.3203638290379978E+00 
    1.6051150983038358E+01 
    1.1152865576661167E+01 
    8.1025088180394462E+00 
    1.5609696521261153E+01 
    1.6340294814787857E+01 
    1.1763962774988267E+01 
    1.1290661099097113E+01 
    1.8851436567068653E+01 
    1.1915503603876173E+01 
    1.6063276559210887E+01 
    9.6893282704782813E+00 
    1.8999055001994524E+01 
    7.6963302976715324E+00 
    1.0560437935760383E+01 
    8.5998777990604562E+00 
    1.2166968844625531E+01 
    9.7976937103240793E+00 
    1.8982768684020343E+01 
    1.1967726186787049E+01 
    1.5289595841152829E+01 
    7.9128632448985741E+00 
    1.1501517443780033E+01 
    1.5895847426448517E+01 
    9.8453997016947206E+00 
    8.6918150089464117E+00 
    1.2873145977099185E+01 
    1.6122613988803540E+01 
    8.4557464707341037E+00 
    1.1060262252829004E+01 
    1.1326028996560661E+01 
    1.5568622415374241E+01 
    1.1106741065053551E+01 
    1.6100333608906467E+01 
    1.6760486775161482E+01 
    1.0186667218481423E+01 
    9.9995393478688630E+00 
    9.1489729438715983E+00 
    1.5720465367252709E+01 
    1.1780131507491255E+01 
    1.8566012812731049E+01 
    1.4595994892476011E+01 
    1.5857598252899866E+01 
    1.8245471041335442E+01 
    1.7634283317173054E+01 
    1.1548247988258426E+01 
    1.1568151727869513E+01 
    1.5327232114606460E+01 
    1.5635942034113810E+01 
    1.6232972014360787E+01 
    1.5957567756073038E+01 
    1.8873840260559867E+01 
    1.1914984841185758E+01 
    1.0291545579302985E+01 
    1.1922110634383595E+01 
    1.6668137658100537E+01 
    1.1643050983645209E+01 
    6.9122240152354220E+00 
    1.1446145363502771E+01 
    1.7105209213485619E+01 
    1.1784241259509448E+01 
    1.0298441510918945E+01 
    1.1266461538589063E+01 
    1.7217863941136681E+01 
    1.5683408070632900E+01 
    9.8489600316045323E+00 
    1.7361302436204518E+01 
    1.1576552804538846E+01 
    1.6211331695564347E+01 
    1.7233215462120906E+01 
    1.2193541360307087E+01 
    6.4273342478028521E+00 
    1.2664554130145749E+01 
    6.6370098133003781E+00 
    1.1692655920034024E+01 
    1.1497210299192322E+01 
    1.3351415189552363E+01 
    7.0164523500941884E+00 
    1.4236170553428499E+01 
    1.1514123627154556E+01 
    1.5946042864689437E+01 
    1.2318137981657411E+01 
    9.6985968375101201E+00 
    1.1128626553236332E+01 
    1.2116386264858871E+01 
    1.2027961278666259E+01 
    1.6812922205920909E+01 
    9.8757114022459884E+00 
    9.7128637287214143E+00 
    7.3744550121112642E+00 
    1.6257107560474850E+01 
    1.1174443530617967E+01 
    1.5481558339823508E+01 
    1.1466078368093143E+01 
    8.0255599297630376E+00 
    1.5728282068687134E+01 
    1.1442491871083913E+01 
    8.7012488005984849E+00 
    9.1833863055661542E+00 
    9.4869842676040363E+00 
    1.5980364055372927E+01 
    1.1585979817427951E+01 
    1.6635331139517106E+01 
    1.1402654414923735E+01 
    1.1341753278054860E+01 
    1.0976156199637355E+01 
    1.5813402549318059E+01 
    1.1256707634549619E+01 
    9.5340048403860482E+00 
    1.7621193032125039E+01 
    1.5898748630606354E+01 
    8.0548460171277849E+00 
    3.2619586596546557E+00 
    1.1575001909052702E+01 
    1.0814350522084526E+01 
    9.9980214761845652E+00 
    1.0771277483905026E+01 
    1.5816174468476701E+01 
    1.1272265969886460E+01 
    1.0333635995085203E+01 
    1.5659673729812734E+01 
    7.9827404303432843E+00 
    1.5287888099061819E+01 
    1.0442394947421530E+01 
    9.5233241302488185E+00 
    1.0084053587874092E+01 
    1.6300267653959022E+01 
    1.1481002056864295E+01 
    1.1489281174752596E+01 
    7.0886508588144697E+00 
    7.6359867572785847E+00 
    1.4492199953425553E+01 
    1.1499067093112222E+01 
    1.1616592781369112E+01 
    1.7344885537673150E+01 
    9.7063485424908613E+00 
    1.1511252933632539E+01 
    8.2505498201898178E+00 
    8.5046373888598961E+00 
    1.5809688531558443E+01 
    1.1134614743635600E+01 
    8.3833064919361426E+00 
    1.2075557825680471E+01 
    1.1398161330590307E+01 
    1.5812699930949330E+01 
    1.7440666300682707E+01 
    1.2399805968838558E+00 
    1.1580071353899996E+01 
    1.1737822542292601E+01 
    1.5875829978443699E+01 
    1.1078497143814596E+01 
    1.1453986291117802E+01 
    1.6872674213884405E+01 
    1.0120779972299825E+01 
    8.4555937045377760E+00 
    1.3725254904024842E+01 
    1.5609543988804285E+01 
    1.6728958192669076E+01 
    1.7002319828089167E+01 
    1.1416981681948608E+01 
    1.1571329075753695E+01 
    1.2839340225903108E+01 
    7.6799169752348275E+00 
    1.5749407578377701E+01 
    9.0812478284483653E+00 
    7.9725361439617828E+00 
    1.4263722748701600E+01 
    1.3482200788773859E+01 
    7.8307440997565605E+00 
    1.5648352466983143E+01 
    1.6713792537372548E+01 
    1.1932148620450706E+01 
    1.7544989381065449E+01 
    1.5684419038091812E+01 
    1.1145076761817799E+01 
    1.6435498424073486E+01 
    8.4944671333668857E+00 
    1.5629900693066627E+01 
    1.1579007935891601E+01 
    1.1538916748727413E+01 
    1.7520640379770388E+01 
    1.1214085358277195E+01 
    1.4035986859767142E+01 
    1.0060702708879555E+01 
    1.6837848549820279E+01 
    1.5528582394993595E+01 
    1.0463795368593663E+01 
    1.5582742972684080E+01 
    1.0464234682004889E+01 
    1.1461819839396540E+01 
    1.6670352182489598E+01 
    1.5956009863983059E+01 
    1.6717189773439664E+01 
    1.5880391756069779E+01 
    1.0676955189489513E+01 
    1.0895103759420623E+01 
    1.6724547029184265E+01 
    1.1024181692289034E+01 
    1.5442995737879469E+01 
    1.1197824821629613E+01 
    4.8184748152428050E+00 
    8.0422971599875126E+00 
    7.4701899763443027E+00 
    1.6674085720607980E+01 
    1.7447136274315763E+01 
    1.5602530619003714E+01 
    1.3142713402415623E+01 
    1.5922280460078046E+01 
    1.5657062189062799E+01 
    1.6294666183318053E+01 
    6.8621524858120573E+00 
    4.4848699151966205E+00 
    1.2905547468878284E+01 
    1.1237899481453526E+01 
    1.5818873352444829E+01 
    1.5816331134762244E+01 
    1.1761770844256279E+01 
    1.5856567827327131E+01 
    1.1565455272980515E+01 
    1.1471037449995690E+01 
    6.2114956275344353E+00 
    4.4672315199602695E+00 
    1.7212920935025185E+01 
    9.0167855623043760E+00 
    1.0389414960444595E+01 
    1.1654201746947443E+01 
    1.8853415036856326E+01 
    1.1747538581925388E+01 
    1.1876612299195054E+01 
    5.1018556554712484E+00 
    1.1748092025277417E+01 
    1.1762704772307757E+01 
    1.6125912296707508E+01 
    1.0087367274986011E+01 
    1.1015367343123742E+01 
    1.7389400781894647E+01 
    1.1588650275164731E+01 
    1.5619979312111976E+01 
    1.5870332014616620E+01 
    1.4005069044187682E+01 
    9.8033580399983720E+00 
    1.5881092501120952E+01 
    1.1377798819111254E+01 
    1.5798575280475443E+01 
    1.5554030717906048E+01 
    1.6694775643772019E+01 
    1.5873707421432592E+01 
    1.4862118705292307E+01 
    1.1577030743048766E+01 
    7.7591509524056770E+00 
    1.8726998005680443E+01 
    9.2618013601692208E+00 
    1.6609628342709197E+01 
    1.1574356560113154E+01 
    9.7609791448641197E+00 
    5.9338065251459247E+00 
    1.1800995553207740E+01 
    1.5865776624995728E+01 
    1.5864537851107187E+01 
    1.1442162966203803E+01 
    1.1568345952693154E+01 
    1.7603975121758129E+01 
    1.6943170656379952E+01 
    1.1767276510421057E+01 
    4.1704461929930963E+00 
    1.4711769153215066E+01 
    1.8980252274805160E+01 
    1.1580454996961139E+01 
    1.3558139249869400E+01 
    1.1076683619252140E+01 
    1.8583811200599403E+01 
    1.7029127443768722E+01 
    1.6766812777775755E+01 
    1.1789839305420101E+01 
    5.4659115162445575E+00 
    1.1034850454043177E+01 
    1.1101108231994129E+01 
    1.1144318504662092E+01 
    4.5501427428059227E+00 