# vtk DataFile Version 2.0
Pressure Field Data 
ASCII 
DATASET UNSTRUCTURED_GRID 

POINTS 2860 double 

    0.0000000000000000E+00     0.0000000000000000E+00     0.0000000000000000E+00 
    1.0000000000000000E+00     0.0000000000000000E+00     0.0000000000000000E+00 
    1.0000000000000000E+00     1.0000000000000000E+00     0.0000000000000000E+00 
    0.0000000000000000E+00     1.0000000000000000E+00     0.0000000000000000E+00 
    2.5000000000000000E-01     2.5000000000000000E-01     0.0000000000000000E+00 
    7.5000000000000000E-01     2.5000000000000000E-01     0.0000000000000000E+00 
    7.5000000000000000E-01     7.5000000000000000E-01     0.0000000000000000E+00 
    2.5000000000000000E-01     7.5000000000000000E-01     0.0000000000000000E+00 
    3.1249999999942091E-02     0.0000000000000000E+00     0.0000000000000000E+00 
    6.2499999999873469E-02     0.0000000000000000E+00     0.0000000000000000E+00 
    9.3749999999826514E-02     0.0000000000000000E+00     0.0000000000000000E+00 
    1.2499999999977961E-01     0.0000000000000000E+00     0.0000000000000000E+00 
    1.5624999999968961E-01     0.0000000000000000E+00     0.0000000000000000E+00 
    1.8749999999959971E-01     0.0000000000000000E+00     0.0000000000000000E+00 
    2.1874999999950970E-01     0.0000000000000000E+00     0.0000000000000000E+00 
    2.4999999999941969E-01     0.0000000000000000E+00     0.0000000000000000E+00 
    2.8124999999932920E-01     0.0000000000000000E+00     0.0000000000000000E+00 
    3.1249999999923850E-01     0.0000000000000000E+00     0.0000000000000000E+00 
    3.4374999999914790E-01     0.0000000000000000E+00     0.0000000000000000E+00 
    3.7499999999905720E-01     0.0000000000000000E+00     0.0000000000000000E+00 
    4.0624999999896660E-01     0.0000000000000000E+00     0.0000000000000000E+00 
    4.3749999999887590E-01     0.0000000000000000E+00     0.0000000000000000E+00 
    4.6874999999878530E-01     0.0000000000000000E+00     0.0000000000000000E+00 
    4.9999999999869471E-01     0.0000000000000000E+00     0.0000000000000000E+00 
    5.3124999999877620E-01     0.0000000000000000E+00     0.0000000000000000E+00 
    5.6249999999885780E-01     0.0000000000000000E+00     0.0000000000000000E+00 
    5.9374999999893940E-01     0.0000000000000000E+00     0.0000000000000000E+00 
    6.2499999999902101E-01     0.0000000000000000E+00     0.0000000000000000E+00 
    6.5624999999910261E-01     0.0000000000000000E+00     0.0000000000000000E+00 
    6.8749999999918421E-01     0.0000000000000000E+00     0.0000000000000000E+00 
    7.1874999999926570E-01     0.0000000000000000E+00     0.0000000000000000E+00 
    7.4999999999934730E-01     0.0000000000000000E+00     0.0000000000000000E+00 
    7.8124999999942890E-01     0.0000000000000000E+00     0.0000000000000000E+00 
    8.1249999999951039E-01     0.0000000000000000E+00     0.0000000000000000E+00 
    8.4374999999959199E-01     0.0000000000000000E+00     0.0000000000000000E+00 
    8.7499999999967359E-01     0.0000000000000000E+00     0.0000000000000000E+00 
    9.0624999999975520E-01     0.0000000000000000E+00     0.0000000000000000E+00 
    9.3749999999983680E-01     0.0000000000000000E+00     0.0000000000000000E+00 
    9.6874999999991840E-01     0.0000000000000000E+00     0.0000000000000000E+00 
    1.0000000000000000E+00     3.1249999999942091E-02     0.0000000000000000E+00 
    1.0000000000000000E+00     6.2499999999873469E-02     0.0000000000000000E+00 
    1.0000000000000000E+00     9.3749999999826514E-02     0.0000000000000000E+00 
    1.0000000000000000E+00     1.2499999999977961E-01     0.0000000000000000E+00 
    1.0000000000000000E+00     1.5624999999968961E-01     0.0000000000000000E+00 
    1.0000000000000000E+00     1.8749999999959971E-01     0.0000000000000000E+00 
    1.0000000000000000E+00     2.1874999999950970E-01     0.0000000000000000E+00 
    1.0000000000000000E+00     2.4999999999941969E-01     0.0000000000000000E+00 
    1.0000000000000000E+00     2.8124999999932920E-01     0.0000000000000000E+00 
    1.0000000000000000E+00     3.1249999999923850E-01     0.0000000000000000E+00 
    1.0000000000000000E+00     3.4374999999914790E-01     0.0000000000000000E+00 
    1.0000000000000000E+00     3.7499999999905720E-01     0.0000000000000000E+00 
    1.0000000000000000E+00     4.0624999999896660E-01     0.0000000000000000E+00 
    1.0000000000000000E+00     4.3749999999887590E-01     0.0000000000000000E+00 
    1.0000000000000000E+00     4.6874999999878530E-01     0.0000000000000000E+00 
    1.0000000000000000E+00     4.9999999999869471E-01     0.0000000000000000E+00 
    1.0000000000000000E+00     5.3124999999877620E-01     0.0000000000000000E+00 
    1.0000000000000000E+00     5.6249999999885780E-01     0.0000000000000000E+00 
    1.0000000000000000E+00     5.9374999999893940E-01     0.0000000000000000E+00 
    1.0000000000000000E+00     6.2499999999902101E-01     0.0000000000000000E+00 
    1.0000000000000000E+00     6.5624999999910261E-01     0.0000000000000000E+00 
    1.0000000000000000E+00     6.8749999999918421E-01     0.0000000000000000E+00 
    1.0000000000000000E+00     7.1874999999926570E-01     0.0000000000000000E+00 
    1.0000000000000000E+00     7.4999999999934730E-01     0.0000000000000000E+00 
    1.0000000000000000E+00     7.8124999999942890E-01     0.0000000000000000E+00 
    1.0000000000000000E+00     8.1249999999951039E-01     0.0000000000000000E+00 
    1.0000000000000000E+00     8.4374999999959199E-01     0.0000000000000000E+00 
    1.0000000000000000E+00     8.7499999999967359E-01     0.0000000000000000E+00 
    1.0000000000000000E+00     9.0624999999975520E-01     0.0000000000000000E+00 
    1.0000000000000000E+00     9.3749999999983680E-01     0.0000000000000000E+00 
    1.0000000000000000E+00     9.6874999999991840E-01     0.0000000000000000E+00 
    9.6875000000003686E-01     1.0000000000000000E+00     0.0000000000000000E+00 
    9.3750000000011691E-01     1.0000000000000000E+00     0.0000000000000000E+00 
    9.0625000000015765E-01     1.0000000000000000E+00     0.0000000000000000E+00 
    8.7500000000017863E-01     1.0000000000000000E+00     0.0000000000000000E+00 
    8.4375000000028044E-01     1.0000000000000000E+00     0.0000000000000000E+00 
    8.1250000000040856E-01     1.0000000000000000E+00     0.0000000000000000E+00 
    7.8125000000054956E-01     1.0000000000000000E+00     0.0000000000000000E+00 
    7.5000000000066480E-01     1.0000000000000000E+00     0.0000000000000000E+00 
    7.1875000000086831E-01     1.0000000000000000E+00     0.0000000000000000E+00 
    6.8750000000102829E-01     1.0000000000000000E+00     0.0000000000000000E+00 
    6.5625000000114431E-01     1.0000000000000000E+00     0.0000000000000000E+00 
    6.2500000000129829E-01     1.0000000000000000E+00     0.0000000000000000E+00 
    5.9375000000147926E-01     1.0000000000000000E+00     0.0000000000000000E+00 
    5.6250000000168354E-01     1.0000000000000000E+00     0.0000000000000000E+00 
    5.3125000000188671E-01     1.0000000000000000E+00     0.0000000000000000E+00 
    5.0000000000205835E-01     1.0000000000000000E+00     0.0000000000000000E+00 
    4.6875000000192979E-01     1.0000000000000000E+00     0.0000000000000000E+00 
    4.3750000000180111E-01     1.0000000000000000E+00     0.0000000000000000E+00 
    4.0625000000167238E-01     1.0000000000000000E+00     0.0000000000000000E+00 
    3.7500000000154382E-01     1.0000000000000000E+00     0.0000000000000000E+00 
    3.4375000000141509E-01     1.0000000000000000E+00     0.0000000000000000E+00 
    3.1250000000128642E-01     1.0000000000000000E+00     0.0000000000000000E+00 
    2.8125000000115769E-01     1.0000000000000000E+00     0.0000000000000000E+00 
    2.5000000000102918E-01     1.0000000000000000E+00     0.0000000000000000E+00 
    2.1875000000090050E-01     1.0000000000000000E+00     0.0000000000000000E+00 
    1.8750000000077180E-01     1.0000000000000000E+00     0.0000000000000000E+00 
    1.5625000000064329E-01     1.0000000000000000E+00     0.0000000000000000E+00 
    1.2500000000051459E-01     1.0000000000000000E+00     0.0000000000000000E+00 
    9.3750000000385914E-02     1.0000000000000000E+00     0.0000000000000000E+00 
    6.2500000000257239E-02     1.0000000000000000E+00     0.0000000000000000E+00 
    3.1250000000128557E-02     1.0000000000000000E+00     0.0000000000000000E+00 
    0.0000000000000000E+00     9.6875000000003686E-01     0.0000000000000000E+00 
    0.0000000000000000E+00     9.3750000000011691E-01     0.0000000000000000E+00 
    0.0000000000000000E+00     9.0625000000015765E-01     0.0000000000000000E+00 
    0.0000000000000000E+00     8.7500000000017863E-01     0.0000000000000000E+00 
    0.0000000000000000E+00     8.4375000000028044E-01     0.0000000000000000E+00 
    0.0000000000000000E+00     8.1250000000040856E-01     0.0000000000000000E+00 
    0.0000000000000000E+00     7.8125000000054956E-01     0.0000000000000000E+00 
    0.0000000000000000E+00     7.5000000000066480E-01     0.0000000000000000E+00 
    0.0000000000000000E+00     7.1875000000086831E-01     0.0000000000000000E+00 
    0.0000000000000000E+00     6.8750000000102829E-01     0.0000000000000000E+00 
    0.0000000000000000E+00     6.5625000000114431E-01     0.0000000000000000E+00 
    0.0000000000000000E+00     6.2500000000129829E-01     0.0000000000000000E+00 
    0.0000000000000000E+00     5.9375000000147926E-01     0.0000000000000000E+00 
    0.0000000000000000E+00     5.6250000000168354E-01     0.0000000000000000E+00 
    0.0000000000000000E+00     5.3125000000188671E-01     0.0000000000000000E+00 
    0.0000000000000000E+00     5.0000000000205835E-01     0.0000000000000000E+00 
    0.0000000000000000E+00     4.6875000000192979E-01     0.0000000000000000E+00 
    0.0000000000000000E+00     4.3750000000180111E-01     0.0000000000000000E+00 
    0.0000000000000000E+00     4.0625000000167238E-01     0.0000000000000000E+00 
[...]
CELL_DATA 2795 
SCALARS Pressure double 1 
LOOKUP_TABLE default 

    5.7570684755981354E+00 
    1.2890967703731137E+01 
    9.0794543052378724E+00 
    8.7524508550730182E+00 
    7.0223771641327533E+00 
    1.2774112962603311E+01 
    1.3442138562637160E+01 
    5.1605662258835236E+00 
    9.6117074027650382E+00 
    7.2983707621347147E+00 
    6.2038293953551262E+00 
    1.2542654450302321E+01 
    1.2806320562954136E+01 
    1.2746013273152231E+01 
    8.3408041284975845E+00 
    5.0744944131768062E+00 
    8.0756395003638470E+00 
    6.6114494138030100E+00 
    1.2215676858458252E+01 
    9.0697363891921494E+00 
    8.9618473633936766E+00 
    1.2686926389556723E+01 
    8.5120257521858136E+00 
    3.4683949221819810E-01 
    1.2542940248607344E+01 
    1.2779254422921094E+01 
    1.3471777753164401E+01 
    5.9506891667671091E+00 
    1.2470696412708937E+01 
    1.3457667544024076E+01 
    9.2002284891296799E+00 
    9.2957954129137796E+00 
    6.3657515806818097E+00 
    9.0404086922686844E+00 
    2.9838808897787530E+00 
    8.0779855920152954E+00 
    9.0302342670008979E+00 
    1.3494049204870700E+01 
    1.3421713699126272E+01 
    1.2554598250324592E+01 
    6.9707394792500885E+00 
    1.2516654344217184E+01 
    7.1938355855449554E-01 
    8.9889689554851806E+00 
    1.3251300491456316E+01 
    1.3103774478147420E+01 
    1.2532905131792289E+01 
    9.9247791860151882E+00 
    1.2598870182791240E+01 
    8.2552166544035437E+00 
    7.8794796946052728E+00 
    9.2639670813907191E+00 
    8.8728326687335386E+00 
    8.1240238342791091E+00 
    9.2716319723710132E+00 
    1.2026627427192878E+01 
    1.0826907781427821E+01 
    7.0594285083281179E+00 
    1.2690355714337203E+01 
    1.2622258858258567E+01 
    8.7795705649176039E+00 
    8.7181255355691150E+00 
    8.6650747072110903E+00 
    1.3368156011993539E+01 
    1.3609495522998072E+01 
    8.0869146247342574E+00 
    9.2618290614781191E+00 
    1.2458068326509633E+01 
    1.0644646960562026E+01 
    8.7522874629418421E+00 
    1.3619512746774673E+01 
    1.2639559395802564E+01 
    7.9759013020325158E+00 
    1.3190558500547656E+01 
    9.4996412538854820E+00 
    1.2408495904705616E+01 
    1.3508688401776515E+01 
    9.4571595884315780E+00 
    5.8448579421391269E+00 
    9.2796825046185543E+00 
    1.3429176853184938E+01 
    1.3637395685315306E+01 
    8.1013770577804252E+00 
    9.1927705094965884E+00 
    1.3681822311539639E+01 
    9.0336498936662135E+00 
    8.5896790392867892E+00 
    1.1019398310662057E+01 
    5.5994551727875663E+00 
    7.9030529825583642E+00 
    9.1925785971338367E+00 
    9.7415882828148614E+00 
    1.5053760958305928E+01 
    6.8299115173814959E+00 
    9.2694956296048865E+00 
    1.2513190765065035E+01 
    1.2761983445761226E+01 
    6.0398415747071112E+00 
    8.9062585402077730E+00 
    9.2229401846623613E+00 
    1.2780618073930903E+01 
    9.2254687788499758E+00 
    1.2719199751315731E+01 
    3.7119539499481724E+00 
    6.0290571686751342E+00 
    9.4786445778114796E+00 
    1.2898596355037771E+01 
    8.0472545540645406E+00 
    8.5859608645412546E+00 
    9.2120364661701544E+00 
    8.5648846031613086E+00 
    1.0478647379742066E+01 
    8.3507920646545628E+00 
    7.9827995326763741E+00 
    6.3532775131935528E+00 
    1.0806140856345493E+01 
    9.2970598809296607E+00 
    1.3288581566593422E+01 
    7.9448206082885555E+00 
    8.7396225699227799E+00 
    1.2627727656301252E+01 
    7.3443955998842227E+00 
    1.3037755644438079E+01 
    9.1129300838066811E+00 
    8.6743192142597429E+00 
    1.2763943069876481E+01 
    9.2922109147923653E+00 
    1.3518622643582786E+01 
    1.1031789065544274E+01 
    1.1888817409590837E+01 
    1.3487333964994452E+01 
    6.8426972468166536E+00 
    9.4986778154835907E+00 
    1.2764814428291205E+01 
    2.7841657307426360E+00 
    9.2501105474658640E+00 
    1.3456504640070067E+01 
    8.7034847799745467E+00 
    1.0043422112868830E+01 
    5.9942398690466190E+00 
    1.2512088561623054E+01 
    1.5516903550623603E+01 
    1.1453170290402461E+01 
    8.6991912955891859E+00 
    7.8119175303715576E+00 
    9.8963880909509783E+00 
    9.1303435840424658E+00 
    6.2644990417412361E+00 
    1.3480976109853724E+01 
    1.2852667782278038E+01 
    1.2514796383418146E+01 
    9.7414312442214506E+00 
    7.9550903766775418E+00 
    8.9603897056336379E+00 
    1.3213388133190602E+01 
    8.1640349093505193E+00 
    9.1312947369937572E+00 
    8.3051374125996471E+00 
    1.0580139502570594E+01 
    1.5505618296515776E+01 
    1.2506893458206735E+01 
    7.9246999041828534E+00 
    1.2939277501652754E+01 
    1.2861291852048229E+01 
    1.2934483599643499E+01 
    1.3863480392046919E+01 
    1.4371581418778785E+01 
    1.3099016781327048E+01 
    9.2534942330015753E+00 
    9.9389513619900818E+00 
    1.2938758738177464E+01 
    1.3302527832375761E+01 
    6.5255923983294934E+00 
    1.2532406081118161E+01 
    1.3177237101723762E+01 
    6.3682364556050981E+00 
    1.3782610318268787E+01 
    1.3769663254244374E+01 
    1.2278324708332654E+01 
    9.5585356673605641E+00 
    2.4640853197802635E+00 
    1.3454601421710974E+01 
    9.4265942328242964E+00 
    1.3566355152621210E+01 
    8.6440546381510739E+00 
    1.3303713982747476E+01 
    8.7881097823760856E-01 
    1.1903201255523424E+01 
    8.7595204285377193E+00 
    7.9194875557078301E+00 
    7.7228053489423321E+00 
    9.0825154753410562E+00 
    1.0152470017767380E+01 
    9.4764825082978561E+00 
    6.4270650565089928E+00 
    1.3294990978621135E+01 
    1.2786779551946822E+01 
    1.0757439086274641E+01 
    9.4727473111834044E+00 
    1.4213028119520348E+00 
    7.1493951994076683E+00 
    5.0029976271960050E+00 
    1.3468378074906783E+01 
    1.0387580350011712E+01 
    1.2842800289478914E+01 
    1.2847525974365379E+01 
    8.2468076159485868E+00 
    1.0892929546975367E+01 
    1.2510186095175534E+01 
    1.3755341741015792E+01 
    5.9778948931319578E+00 
    1.1311415476867179E+01 
    9.5330125210151504E+00 
    5.3330132886555859E+00 
    8.2267159150186657E+00 
    1.1345797921494896E+01 
    1.2812477863645501E+01 
    9.1385564237814556E+00 
    1.2913998876994476E+01 
    1.2698796073863631E+01 
    1.2652536925246350E+01 
    8.9669355368687569E+00 
    7.8684056108657376E+00 
    1.2522438381325770E+01 
    7.9726324402970787E+00 
    9.2298432579304954E+00 
    7.8235580371123428E+00 
    9.0713174139816068E+00 
    1.2855744742186205E+01 
    5.6871501397932169E+00 
    8.1507532552317077E+00 
    1.3392331402014547E+01 
    8.9805693318398045E+00 
    1.0284256523919378E+01 
    5.8347360402527029E+00 
    8.0231982499942784E+00 
    1.2679140819010120E+01 
    1.2965238900621239E+01 
    4.7812072341108713E+00 
    8.9842304642848116E+00 
    7.8654849593765883E+00 
    1.4151625436765485E+01 
    1.3646303278671407E+01 
    1.4395665753828457E+01 
    9.0050298523526493E+00 
    1.2831207968293088E+01 
    1.2471223282484397E+01 
    8.8824626142664247E+00 
    1.2514942288571211E+01 
    9.4751096519420450E+00 
    5.3820689874091281E+00 
    9.2942392760603898E+00 
    1.3377631207952827E+01 
    1.2511999626134187E+01 
    6.1642553475049313E+00 
    1.2538739964790576E+01 
    1.0166745855329596E+01 
    9.2328791123223919E+00 
    8.7780649333750258E+00 
    1.2391335544863068E+01 
    9.7415136405412923E+00 
    1.2527030793401128E+01 
    8.9291355180070511E+00 
    5.5317466736336138E+00 
    9.2986625515228631E+00 
    7.7310611126297433E+00 
    1.1457608962318984E+01 
    1.3565186176562545E+01 
    1.2521152005116534E+01 
    1.3449817267656938E+01 
    8.9301913132263060E+00 
    6.0170466085595571E+00 
    6.1000865762452134E+00 
    9.4117110537723097E+00 
    9.2065056901700739E+00 
    1.3586279382178892E+00 
    1.2070819609465731E+01 
    1.3892542922621008E+01 
    8.6527176310547400E+00 
    5.6263738772176577E+00 
    1.0536985143171616E+01 
    1.2537416906611519E+01 
    6.6266563310979256E+00 
    4.5512672182693041E+00 
    9.1806716041362932E+00 
    1.2617531795225894E+01 
    1.3206931205398414E+01 
    1.3109151234606479E+01 
    1.2968439389837590E+01 
    6.4845757577938761E+00 
    9.2238416382854851E+00 
    1.2107035250763197E+01 
    7.1638698666556557E+00 
    1.2794405525217929E+01 
    1.1097952963423277E+01 
    6.1855069177466424E+00 
    1.2636837281144354E+01 
    1.3465889878197865E+01 
    1.2648321247578183E+01 
    6.3901265523435304E+00 
    9.2579200320459076E+00 
    7.0015585265931533E+00 
    8.7216117359753369E+00 
    1.2529667846332808E+01 
    1.2519013659242006E+01 
    6.4260709690082276E+00 
    1.3339516382593823E+01 
    9.7629976548523114E+00 
    1.2551866856763706E+01 
    1.3310113518382609E+01 
    1.2539509533011879E+01 
    1.1675969849716761E+01 
    1.4199585146526104E+01 
    8.6229207516264861E+00 
    1.3421707827568325E+01 
    1.2578307771677171E+01 
    1.3488532867535117E+01 
    1.3332943234558178E+01 
    8.7107721676602949E+00 
    9.0716129454833592E+00 
    8.6432532780492508E+00 
    1.1226923392511274E+01 
    3.7218661524567720E+00 
    9.3502044131387247E+00 
    1.4319010885573821E+01 
    9.4746962650237396E+00 
    9.6482532805093744E+00 
    1.3463111945040366E+01 
    1.3683693930252634E+01 
    8.5866235817055330E+00 
    1.2542653866455385E+01 
    1.2515938139659632E+01 
    9.6367575434413908E+00 
    1.3290696666130877E+01 
    6.5015200082056870E+00 
    4.1827950208064912E+00 
    9.8972716319679819E+00 
    9.4881120537413803E+00 
    1.2520764051474394E+01 
    6.0240349565350595E+00 
    1.3030477994559678E+01 
    4.2642194379996390E+00 
    9.4263558735718931E+00 
    8.7744058165159391E+00 
    9.2335473329048767E+00 
    1.5554519902660109E+01 
    3.6169186508272335E+00 
    9.2680512510956294E+00 
    1.0991892288613004E+01 
    8.8379194793600213E+00 
    7.0675153513752278E+00 
    1.3137586920043443E+01 
    1.5142144181235873E+01 
    1.3275670547916235E+01 
    9.2115143190876640E+00 
    5.3107292800940789E+00 
    1.4996296778700094E+01 
    1.2776967769979066E+01 
    6.6877467283577205E+00 
    8.8296762482505997E+00 
    1.3847836363013775E+01 
    3.0689199410723087E+00 
    9.5345959745698767E+00 
    1.3243605709943980E+01 
    9.2471984043956379E+00 
    8.0239118955411382E+00 
    9.3074520690330704E+00 
    1.2313514411148462E+01 
    9.2268149145172664E+00 
    4.7467845595203562E+00 
    8.6497001297059173E-01 
    6.8276712232986529E+00 
    1.4050284937460749E+01 
    8.6415318238013867E+00 
    1.0575556446852861E+01 
    1.0048384006293995E+01 
    1.1574749285222001E+01 
    9.2607484187870739E+00 
    1.2693969863152153E+01 
    1.5568187365821814E+01 
    1.0936950464205845E+01 
    1.3395956432309241E+01 
    5.1325194722715783E-01 
    1.2520758926845726E+01 
    5.1861068473126286E+00 
    1.4478800959908675E+01 
    9.2815607533787610E+00 
    8.1453469720161813E+00 
    7.1344000120441935E+00 
    4.9797796323457417E+00 
    1.0328179336038781E+01 
    7.2369172022086614E+00 
    1.1361286765102445E+01 
    2.0936640816840484E+00 
    1.0198906597965602E+01 
    1.2459384494207617E+01 
    5.5407579436656773E+00 
    1.2983554740022129E+01 
    1.4308632241836619E+01 
    1.2832658994087797E+01 
    9.1541386775093496E+00 
    9.2286061280684599E+00 
    9.2743012187404918E+00 
    5.3820331178735836E+00 
    8.3994080301342908E+00 
    8.2642717230496388E+00 
    9.2635013615294319E+00 
    8.5851001119642731E+00 
    6.4924167513619924E-01 
    5.9332916609521469E+00 
    8.9388608510283376E+00 
    9.2397420159403616E+00 
    1.1674757879327284E+01 
    2.0051081059919187E+00 
    9.5994852950111422E+00 
    9.4927203532403439E+00 
    3.4813094407083454E+00 
    1.2704511990904647E+01 
    7.9934797074992066E+00 
    9.3594592076291594E+00 
    1.2774571281297291E+01 
    4.9966133830460127E+00 
    1.2823580746464167E+01 
    8.0853590108025646E+00 
    9.0976216083066741E-01 
    8.6981792793766886E+00 
    1.3350056362709022E+01 
    1.2521050524759625E+01 
    1.2539744681060938E+01 
    9.6170254517904930E+00 
    9.4304495313317407E+00 
    7.9701291417815572E+00 
    6.4439964764135249E+00 
    1.2875356677272707E+01 
    8.8299899628389831E+00 
    6.2136920235306290E+00 
    1.2534413944627259E+01 
    1.3179761934764324E+01 
    9.4346308256969547E+00 
    9.0273602201887098E+00 
    1.5453861051847129E+01 
    9.6375740401370553E+00 
    1.2891742551616856E+01 
    7.5916652578277617E+00 
    1.5596143916685584E+01 
    6.0644142974647650E+00 
    8.3541101601989851E+00 
    6.7809044490420289E+00 
    9.8506724920139792E+00 
    7.7976237761938947E+00 
    1.5580215385965246E+01 
    9.6818867268271944E+00 
    1.2253982883434936E+01 
    6.2340740639779026E+00 
    9.2585789638044727E+00 
    1.2745555918831101E+01 
    7.8151882919656979E+00 
    6.7189291558291266E+00 
    1.0222149158532121E+01 
    1.2960956763858944E+01 
    6.6944347472846575E+00 
    8.7920181337660512E+00 
    9.0553425149807278E+00 
    1.2498479552696228E+01 
    8.8636318268216634E+00 
    1.2932666739106605E+01 
    1.3515524264062924E+01 
    7.9939179202948889E+00 
    7.8426823592294328E+00 
    7.2751490368407632E+00 
    1.2632543725879257E+01 
    9.5130505240874044E+00 
    1.5177318121285534E+01 
    1.1893139153867610E+01 
    1.2708585491410908E+01 
    1.4876281462155436E+01 
    1.4310360724050984E+01 
    9.3038899678793943E+00 
    9.2490307497869360E+00 
    1.2305965632444970E+01 
    1.2555177995663835E+01 
    1.3035985666575847E+01 
    1.2796346728197088E+01 
    1.5472762755339174E+01 
    9.6371431399067937E+00 
    8.0849980733509437E+00 
    9.6359063791862400E+00 
    1.3434904910297714E+01 
    9.4002038614810584E+00 
    5.4337307345250538E+00 
    9.1389583134026608E+00 
    1.3819427015979933E+01 
    9.5258400486640316E+00 
    8.0873970131366768E+00 
    8.9957630357055507E+00 
    1.3921465331014149E+01 
    1.2565598198065096E+01 
    7.7072722170823020E+00 
    1.4051759829764020E+01 
    9.3340318450432367E+00 
    1.3029140312072339E+01 
    1.3935802433931181E+01 
    9.8469779173371936E+00 
    4.9965521017937968E+00 
    1.0221311151192674E+01 
    5.1642924255612712E+00 
    9.4460016496156154E+00 
    9.2476699997751339E+00 
    1.0738732281586179E+01 
    5.4541622715931330E+00 
    1.1383719310935593E+01 
    9.2703933239950853E+00 
    1.2787009912181629E+01 
    9.7778298027511674E+00 
    7.5272025353468601E+00 
    8.8758488204519796E+00 
    9.7686320045308719E+00 
    9.7334533067017635E+00 
    1.3555980261788783E+01 
    7.7399719339914679E+00 
    7.6096299657849951E+00 
    5.7277924173359160E+00 
    1.3060832100927261E+01 
    8.9153232069330937E+00 
    1.2382099819805642E+01 
    9.2173112140687437E+00 
    6.2491799182612260E+00 
    1.2594380263985958E+01 
    9.1917585461549489E+00 
    6.7963745265704167E+00 
    7.1866815038115028E+00 
    7.4320963732759067E+00 
    1.2815523289812482E+01 
    9.2654233139097180E+00 
    1.3406144726514100E+01 
    9.1494390655478224E+00 
    9.0863407061440284E+00 
    8.7140261912101895E+00 
    1.2668747219610571E+01 
    9.0032748173696948E+00 
    7.4686035610628583E+00 
    1.4297334251670199E+01 
    1.2741972611446055E+01 
    6.3505506065400796E+00 
    2.5507900758602227E+00 
    9.2549048435779664E+00 
    8.6228280389546708E+00 
    7.8398424399550324E+00 
    8.5328880608618078E+00 
    1.2706301083557946E+01 
    8.9797714221906908E+00 
    8.1390765981585886E+00 
    1.2575510366753939E+01 
    6.2950663248202341E+00 
    1.2269563021900515E+01 
    8.3270895039538821E+00 
    7.4248058594355379E+00 
    7.9104737627114918E+00 
    1.3107816313680718E+01 
    9.2368621930492960E+00 
    9.2453901490083830E+00 
    5.5317541361544080E+00 
    5.9646676020729776E+00 
    1.1696291818117814E+01 
    9.2557455863762197E+00 
    9.2942492095829934E+00 
    1.4035673887104418E+01 
    7.6083043147733260E+00 
    9.2681468088858878E+00 
    6.5153308891153507E+00 
    6.7277775341341499E+00 
    1.2663355381697592E+01 
    8.8949674405146784E+00 
    6.5560042076754801E+00 
    9.7483127583821965E+00 
    9.1330547038210952E+00 
    1.2665944447739259E+01 
    1.4123437981549593E+01 
    9.8913215622288742E-01 
    9.2596400883830920E+00 
    9.4865020329964391E+00 
    1.2723378682866709E+01 
    8.7651135879220945E+00 
    9.2107757550330920E+00 
    1.3605988324433723E+01 
    7.9383807406442388E+00 
    6.6124988061460241E+00 
    1.1183235752308359E+01 
    1.2533648073192397E+01 
    1.3489029284887627E+01 
    1.3730666527277624E+01 
    9.1082727411046420E+00 
    9.2518310769016701E+00 
    1.0388593248375289E+01 
    6.0345054506175790E+00 
    1.2649585927282942E+01 
    7.1089317147168121E+00 
    6.2848527005653523E+00 
    1.1603342922050690E+01 
    1.0897085849816774E+01 
    6.1624028735030123E+00 
    1.2567552992383376E+01 
    1.3475075611056234E+01 
    9.6517147285989164E+00 
    1.4218748337319147E+01 
    1.2597448447892937E+01 
    8.8437154104704199E+00 
    1.3228202840037097E+01 
    6.7279539077348316E+00 
    1.2550135318878354E+01 
    9.2587894450032202E+00 
    9.2195778250515978E+00 
    1.4194353240551857E+01 
    8.9467089667510198E+00 
    1.1327646330003144E+01 
    7.8926961812183114E+00 
    1.3583841561418199E+01 
    1.2465031531494958E+01 
    8.2209132065532611E+00 
    1.2511780488963753E+01 
    8.3198407984272009E+00 
    9.2213716299409079E+00 
    1.3437217898391616E+01 
    1.2791068102858068E+01 
    1.3478291357012690E+01 
    1.2726579868223450E+01 
    8.4113813296591005E+00 
    8.6221436336927066E+00 
    1.3484169845821718E+01 
    8.7356890911562886E+00 
    1.2402850850767960E+01 
    8.9369130018461505E+00 
    3.7501784008516736E+00 
    6.3492916975885256E+00 
    5.8860570401789198E+00 
    1.3440200769904987E+01 
    1.4128708544282109E+01 
    1.2528657883428469E+01 
    1.0680679982695969E+01 
    1.2794360338081527E+01 
    1.2572716736513355E+01 
    1.3113798535450931E+01 
    5.3472795932957267E+00 
    3.4977694829149018E+00 
    1.0487026349188667E+01 
    8.9194712138746777E+00 
    1.2707744465491288E+01 
    1.2705404951500119E+01 
    9.5053739731279805E+00 
    1.2739591632718374E+01 
    9.2464358564509048E+00 
    9.1561873893639625E+00 
    4.8424710549466097E+00 
    3.4861454757672652E+00 
    1.3917762694494836E+01 
    7.1522191357767966E+00 
    8.1636632693803186E+00 
    9.4072437144228971E+00 
    1.5454617368676319E+01 
    9.4952575371672108E+00 
    9.5658682164802897E+00 
    3.9358097385390898E+00 
    9.4963935706640044E+00 
    9.5093886552811338E+00 
    1.3010659439732036E+01 
    7.9180932470809733E+00 
    8.8086952673785568E+00 
    1.4076903808791192E+01 
    9.2676749235735230E+00 
    1.2543368601486607E+01 
    1.2790355955737791E+01 
    1.1394589177949625E+01 
    7.7867349643258654E+00 
    1.2726317176087242E+01 
    9.0616228116251669E+00 
    1.2721457170606376E+01 
    1.2485946788672884E+01 
    1.3458285927551810E+01 
    1.2723783979995892E+01 
    1.1944346547596824E+01 
    9.2570057392152769E+00 
    6.1161838695610777E+00 
    1.5332763659797200E+01 
    7.2534129019408713E+00 
    1.3383183261476663E+01 
    9.2544493716204688E+00 
    7.6592012075231066E+00 
    4.5672735811083207E+00 
    9.5426324977475314E+00 
    1.2714047308668057E+01 
    1.2710922098282213E+01 
    9.2019969465924820E+00 
    9.2486848765181993E+00 
    1.4274966919245850E+01 
    1.3677746877167420E+01 
    9.5124198868384564E+00 
    3.2557053516773764E+00 
    1.1921260092399651E+01 
    1.5578575261943696E+01 
    9.2602864763984147E+00 
    1.1027868758368450E+01 
    8.7615996859086120E+00 
    1.5196929267672619E+01 
    1.3753554946971850E+01 
    1.3510464050496623E+01 
    9.5324160160083125E+00 
    4.2783786160977586E+00 
    8.7223717375249468E+00 
    8.7861549152900089E+00 
    8.8323010765098608E+00 
    3.5351639889723518E+00 