# vtk DataFile Version 2.0
Pressure Field Data 
ASCII 
DATASET UNSTRUCTURED_GRID 

POINTS 2860 double 

    0.0000000000000000E+00     0.0000000000000000E+00     0.0000000000000000E+00 
    1.0000000000000000E+00     0.0000000000000000E+00     0.0000000000000000E+00 
    1.0000000000000000E+00     1.0000000000000000E+00     0.0000000000000000E+00 
    0.0000000000000000E+00     1.0000000000000000E+00     0.0000000000000000E+00 
    2.5000000000000000E-01     2.5000000000000000E-01     0.0000000000000000E+00 
    7.5000000000000000E-01     2.5000000000000000E-01     0.0000000000000000E+00 
    7.5000000000000000E-01     7.5000000000000000E-01     0.0000000000000000E+00 
    2.5000000000000000E-01     7.5000000000000000E-01     0.0000000000000000E+00 
    3.1249999999942091E-02     0.0000000000000000E+00     0.0000000000000000E+00 
    6.2499999999873469E-02     0.0000000000000000E+00     0.0000000000000000E+00 
    9.3749999999826514E-02     0.0000000000000000E+00     0.0000000000000000E+00 
    1.2499999999977961E-01     0.0000000000000000E+00     0.0000000000000000E+00 
    1.5624999999968961E-01     0.0000000000000000E+00     0.0000000000000000E+00 
    1.8749999999959971E-01     0.0000000000000000E+00     0.0000000000000000E+00 
    2.1874999999950970E-01     0.0000000000000000E+00     0.0000000000000000E+00 
    2.4999999999941969E-01     0.0000000000000000E+00     0.0000000000000000E+00 
    2.8124999999932920E-01     0.0000000000000000E+00     0.0000000000000000E+00 
    3.1249999999923850E-01     0.0000000000000000E+00     0.0000000000000000E+00 
    3.4374999999914790E-01     0.0000000000000000E+00     0.0000000000000000E+00 
    3.7499999999905720E-01     0.0000000000000000E+00     0.0000000000000000E+00 
    4.0624999999896660E-01     0.0000000000000000E+00     0.0000000000000000E+00 
    4.3749999999887590E-01     0.0000000000000000E+00     0.0000000000000000E+00 
    4.6874999999878530E-01     0.0000000000000000E+00     0.0000000000000000E+00 
    4.9999999999869471E-01     0.0000000000000000E+00     0.0000000000000000E+00 
    5.3124999999877620E-01     0.0000000000000000E+00     0.0000000000000000E+00 
    5.6249999999885780E-01     0.0000000000000000E+00     0.0000000000000000E+00 
    5.9374999999893940E-01     0.0000000000000000E+00     0.0000000000000000E+00 
    6.2499999999902101E-01     0.0000000000000000E+00     0.0000000000000000E+00 
    6.5624999999910261E-01     0.0000000000000000E+00     0.0000000000000000E+00 
    6.8749999999918421E-01     0.0000000000000000E+00     0.0000000000000000E+00 
    7.1874999999926570E-01     0.0000000000000000E+00     0.0000000000000000E+00 
    7.4999999999934730E-01     0.0000000000000000E+00     0.0000000000000000E+00 
    7.8124999999942890E-01     0.0000000000000000E+00     0.0000000000000000E+00 
    8.1249999999951039E-01     0.0000000000000000E+00     0.0000000000000000E+00 
    8.4374999999959199E-01     0.0000000000000000E+00     0.0000000000000000E+00 
    8.7499999999967359E-01     0.0000000000000000E+00     0.0000000000000000E+00 
    9.0624999999975520E-01     0.0000000000000000E+00     0.0000000000000000E+00 
    9.3749999999983680E-01     0.0000000000000000E+00     0.0000000000000000E+00 
    9.6874999999991840E-01     0.0000000000000000E+00     0.0000000000000000E+00 
    1.0000000000000000E+00     3.1249999999942091E-02     0.0000000000000000E+00 
    1.0000000000000000E+00     6.2499999999873469E-02     0.0000000000000000E+00 
    1.0000000000000000E+00     9.3749999999826514E-02     0.0000000000000000E+00 
    1.0000000000000000E+00     1.2499999999977961E-01     0.0000000000000000E+00 
    1.0000000000000000E+00     1.5624999999968961E-01     0.0000000000000000E+00 
    1.0000000000000000E+00     1.8749999999959971E-01     0.0000000000000000E+00 
    1.0000000000000000E+00     2.1874999999950970E-01     0.0000000000000000E+00 
    1.0000000000000000E+00     2.4999999999941969E-01     0.0000000000000000E+00 
    1.0000000000000000E+00     2.8124999999932920E-01     0.0000000000000000E+00 
    1.0000000000000000E+00     3.1249999999923850E-01     0.0000000000000000E+00 
    1.0000000000000000E+00     3.4374999999914790E-01     0.0000000000000000E+00 
    1.0000000000000000E+00     3.7499999999905720E-01     0.0000000000000000E+00 
    1.0000000000000000E+00     4.0624999999896660E-01     0.0000000000000000E+00 
    1.0000000000000000E+00     4.3749999999887590E-01     0.0000000000000000E+00 
    1.0000000000000000E+00     4.6874999999878530E-01     0.0000000000000000E+00 
    1.0000000000000000E+00     4.9999999999869471E-01     0.0000000000000000E+00 
    1.0000000000000000E+00     5.3124999999877620E-01     0.0000000000000000E+00 
    1.0000000000000000E+00     5.6249999999885780E-01     0.0000000000000000E+00 
    1.0000000000000000E+00     5.9374999999893940E-01     0.0000000000000000E+00 
    1.0000000000000000E+00     6.2499999999902101E-01     0.0000000000000000E+00 
    1.0000000000000000E+00     6.5624999999910261E-01     0.0000000000000000E+00 
    1.0000000000000000E+00     6.8749999999918421E-01     0.0000000000000000E+00 
    1.0000000000000000E+00     7.1874999999926570E-01     0.0000000000000000E+00 
    1.0000000000000000E+00     7.4999999999934730E-01     0.0000000000000000E+00 
    1.0000000000000000E+00     7.8124999999942890E-01     0.0000000000000000E+00 
    1.0000000000000000E+00     8.1249999999951039E-01     0.0000000000000000E+00 
    1.0000000000000000E+00     8.4374999999959199E-01     0.0000000000000000E+00 
    1.0000000000000000E+00     8.7499999999967359E-01     0.0000000000000000E+00 
    1.0000000000000000E+00     9.0624999999975520E-01     0.0000000000000000E+00 
    1.0000000000000000E+00     9.3749999999983680E-01     0.0000000000000000E+00 
    1.0000000000000000E+00     9.6874999999991840E-01     0.0000000000000000E+00 
    9.6875000000003686E-01     1.0000000000000000E+00     0.0000000000000000E+00 
    9.3750000000011691E-01     1.0000000000000000E+00     0.0000000000000000E+00 
    9.0625000000015765E-01     1.0000000000000000E+00     0.0000000000000000E+00 
    8.7500000000017863E-01     1.0000000000000000E+00     0.0000000000000000E+00 
    8.4375000000028044E-01     1.0000000000000000E+00     0.0000000000000000E+00 
    8.1250000000040856E-01     1.0000000000000000E+00     0.0000000000000000E+00 
    7.8125000000054956E-01     1.0000000000000000E+00     0.0000000000000000E+00 
    7.5000000000066480E-01     1.0000000000000000E+00     0.0000000000000000E+00 
    7.1875000000086831E-01     1.0000000000000000E+00     0.0000000000000000E+00 
    6.8750000000102829E-01     1.0000000000000000E+00     0.0000000000000000E+00 
    6.5625000000114431E-01     1.0000000000000000E+00     0.0000000000000000E+00 
    6.2500000000129829E-01     1.0000000000000000E+00     0.0000000000000000E+00 
    5.9375000000147926E-01     1.0000000000000000E+00     0.0000000000000000E+00 
    5.6250000000168354E-01     1.0000000000000000E+00     0.0000000000000000E+00 
    5.3125000000188671E-01     1.0000000000000000E+00     0.0000000000000000E+00 
    5.0000000000205835E-01     1.0000000000000000E+00     0.0000000000000000E+00 
    4.6875000000192979E-01     1.0000000000000000E+00     0.0000000000000000E+00 
    4.3750000000180111E-01     1.0000000000000000E+00     0.0000000000000000E+00 
    4.0625000000167238E-01     1.0000000000000000E+00     0.0000000000000000E+00 
    3.7500000000154382E-01     1.0000000000000000E+00     0.0000000000000000E+00 
    3.4375000000141509E-01     1.0000000000000000E+00     0.0000000000000000E+00 
    3.1250000000128642E-01     1.0000000000000000E+00     0.0000000000000000E+00 
    2.8125000000115769E-01     1.0000000000000000E+00     0.0000000000000000E+00 
    2.5000000000102918E-01     1.0000000000000000E+00     0.0000000000000000E+00 
    2.1875000000090050E-01     1.0000000000000000E+00     0.0000000000000000E+00 
    1.8750000000077180E-01     1.0000000000000000E+00     0.0000000000000000E+00 
    1.5625000000064329E-01     1.0000000000000000E+00     0.0000000000000000E+00 
    1.2500000000051459E-01     1.0000000000000000E+00     0.0000000000000000E+00 
    9.3750000000385914E-02     1.0000000000000000E+00     0.0000000000000000E+00 
    6.2500000000257239E-02     1.0000000000000000E+00     0.0000000000000000E+00 
    3.1250000000128557E-02     1.0000000000000000E+00     0.0000000000000000E+00 
    0.0000000000000000E+00     9.6875000000003686E-01     0.0000000000000000E+00 
    0.0000000000000000E+00     9.3750000000011691E-01     0.0000000000000000E+00 
    0.0000000000000000E+00     9.0625000000015765E-01     0.0000000000000000E+00 
    0.0000000000000000E+00     8.7500000000017863E-01     0.0000000000000000E+00 
    0.0000000000000000E+00     8.4375000000028044E-01     0.0000000000000000E+00 
    0.0000000000000000E+00     8.1250000000040856E-01     0.0000000000000000E+00 
    0.0000000000000000E+00     7.8125000000054956E-01     0.0000000000000000E+00 
    0.0000000000000000E+00     7.5000000000066480E-01     0.0000000000000000E+00 
    0.0000000000000000E+00     7.1875000000086831E-01     0.0000000000000000E+00 
    0.0000000000000000E+00     6.8750000000102829E-01     0.0000000000000000E+00 
    0.0000000000000000E+00     6.5625000000114431E-01     0.0000000000000000E+00 
    0.0000000000000000E+00     6.2500000000129829E-01     0.0000000000000000E+00 
    0.0000000000000000E+00     5.9375000000147926E-01     0.0000000000000000E+00 
    0.0000000000000000E+00     5.6250000000168354E-01     0.0000000000000000E+00 
    0.0000000000000000E+00     5.3125000000188671E-01     0.0000000000000000E+00 
    0.0000000000000000E+00     5.0000000000205835E-01     0.0000000000000000E+00 
    0.0000000000000000E+00     4.6875000000192979E-01     0.0000000000000000E+00 
    0.0000000000000000E+00     4.3750000000180111E-01     0.0000000000000000E+00 
    0.0000000000000000E+00     4.0625000000167238E-01     0.0000000000000000E+00 
[...]
CELL_DATA 2795 
SCALARS Pressure double 1 
LOOKUP_TABLE default 

    8.4793219197533265E+00 
    1.8785782658363043E+01 
    1.3232891955332011E+01 
    1.2926104374851562E+01 
    1.0404765456939787E+01 
    1.8565063745908919E+01 
    1.9525011214651990E+01 
    7.5930896825084977E+00 
    1.3780077802967526E+01 
    1.0699970632865432E+01 
    9.1749410786816306E+00 
    1.8202618255938546E+01 
    1.8681810580510056E+01 
    1.8520343176449956E+01 
    1.2274609625954966E+01 
    7.4629965917146306E+00 
    1.1995535350239615E+01 
    9.7473174930322131E+00 
    1.7643689747388699E+01 
    1.3213203077714374E+01 
    1.3110965972533359E+01 
    1.8426339730398702E+01 
    1.2607332589471424E+01 
    5.2636469753931403E-01 
    1.8174510068124125E+01 
    1.8626441588820398E+01 
    1.9565531457244440E+01 
    8.8442439395294787E+00 
    1.8080189747404187E+01 
    1.9551465849065575E+01 
    1.3433359916038558E+01 
    1.3416251432379671E+01 
    9.5596568205074188E+00 
    1.3196436907634126E+01 
    4.3467434014521658E+00 
    1.1997222321231936E+01 
    1.3181517583273504E+01 
    1.9600145527479469E+01 
    1.9496669514475776E+01 
    1.8220174348059931E+01 
    1.0259623528871264E+01 
    1.8227303616102922E+01 
    1.0866752125492258E+00 
    1.3197315403100710E+01 
    1.9321990603175088E+01 
    1.8952253333716108E+01 
    1.8187900162177655E+01 
    1.4195477864654563E+01 
    1.8226340184259527E+01 
    1.2262572809478176E+01 
    1.1708204113599407E+01 
    1.3379661366099896E+01 
    1.3083931932800782E+01 
    1.2073002654427144E+01 
    1.3514232892958876E+01 
    1.7339209567364406E+01 
    1.5381379670236287E+01 
    1.0460035153079026E+01 
    1.8436690169966145E+01 
    1.8318965800483664E+01 
    1.2893364557777785E+01 
    1.2758700607747594E+01 
    1.2814460361476623E+01 
    1.9429579288269320E+01 
    1.9782376654527834E+01 
    1.2015996663274384E+01 
    1.3377921544777463E+01 
    1.7899679343969879E+01 
    1.5202424691446943E+01 
    1.2829124348933437E+01 
    1.9757962799960687E+01 
    1.8395501908092811E+01 
    1.1851550362870352E+01 
    1.9078603774169132E+01 
    1.3788322656366981E+01 
    1.8005757123338370E+01 
    1.9626504809129273E+01 
    1.3818240158770351E+01 
    8.5639829054741412E+00 
    1.3396839150986615E+01 
    1.9507103638892925E+01 
    1.9792344766878990E+01 
    1.2010339194747415E+01 
    1.3322988528781256E+01 
    1.9853670494173457E+01 
    1.3179441728471049E+01 
    1.2712000066217513E+01 
    1.5742312635639014E+01 
    8.2177803771375402E+00 
    1.1747090257355326E+01 
    1.3319903766231247E+01 
    1.3936391156488925E+01 
    2.1533409524210487E+01 
    1.0111743491310367E+01 
    1.3386079695606675E+01 
    1.8157993250969259E+01 
    1.8605880214831135E+01 
    8.9141422887272856E+00 
    1.3038869684464945E+01 
    1.3353868079136323E+01 
    1.8641334732743051E+01 
    1.3343141549483368E+01 
    1.8518829384741331E+01 
    5.4308611495566961E+00 
    8.9129772436980588E+00 
    1.3612950989618529E+01 
    1.8795626650041633E+01 
    1.1955892101957305E+01 
    1.2619277647339390E+01 
    1.3318504940127340E+01 
    1.2674932670068396E+01 
    1.4958423477715503E+01 
    1.2301705894275900E+01 
    1.1862745492176668E+01 
    9.2954826533690653E+00 
    1.5735519676940253E+01 
    1.3421103028948842E+01 
    1.9325855585741728E+01 
    1.1584865937096170E+01 
    1.2903548777539473E+01 
    1.8396733260558442E+01 
    1.0862730103190396E+01 
    1.9015506836249120E+01 
    1.3251953674650105E+01 
    1.2824576952829538E+01 
    1.8611017727292648E+01 
    1.3409695630956925E+01 
    1.9634241229875524E+01 
    1.5771421936523927E+01 
    1.7100120956383311E+01 
    1.9586716954459575E+01 
    1.0131520430566090E+01 
    1.3633572706762170E+01 
    1.8605514174793399E+01 
    4.0574383812590940E+00 
    1.3489116087925575E+01 
    1.9544112319475865E+01 
    1.2855112063777931E+01 
    1.4633696110480974E+01 
    8.7779570967703737E+00 
    1.8158973735315641E+01 
    2.2060680971406828E+01 
    1.6391551984484558E+01 
    1.2856879335305091E+01 
    1.1603447585094200E+01 
    1.4263517459796336E+01 
    1.3268982505015931E+01 
    9.3051851456279469E+00 
    1.9582487333520959E+01 
    1.8584213296272068E+01 
    1.8160448380996819E+01 
    1.3938398464787527E+01 
    1.1822343653393039E+01 
    1.3105590768751011E+01 
    1.9111491086059441E+01 
    1.2121911226591525E+01 
    1.3382343079448026E+01 
    1.2319844504963019E+01 
    1.5492034370095407E+01 
    2.2047944562711784E+01 
    1.8147322752047518E+01 
    1.1656032095724401E+01 
    1.8870042217164247E+01 
    1.8742890092310063E+01 
    1.8846308651372247E+01 
    2.0095067466479154E+01 
    2.0731523512372682E+01 
    1.8926204229851155E+01 
    1.3369284638207485E+01 
    1.4418289700019482E+01 
    1.8707679970513396E+01 
    1.9322857828308514E+01 
    9.7307292309636573E+00 
    1.8185783396288450E+01 
    1.9057216099790878E+01 
    9.4635146405793584E+00 
    2.0005058457357762E+01 
    1.9969956707463624E+01 
    1.7733024964456657E+01 
    1.3708548609753835E+01 
    3.5931652539523848E+00 
    1.9546975680163015E+01 
    1.3548258979168196E+01 
    1.9708360395919350E+01 
    1.2772752306007451E+01 
    1.9270976170930226E+01 
    1.3489162420774785E+00 
    1.7095807643113389E+01 
    1.2807793255470472E+01 
    1.1768192431529521E+01 
    1.1472103154547177E+01 
    1.3219288580852995E+01 
    1.4504560069332545E+01 
    1.3883523234061505E+01 
    9.4002967438207303E+00 
    1.9327508240093593E+01 
    1.8636747967901208E+01 
    1.5345463083072573E+01 
    1.3603277070525854E+01 
    2.0721283611246757E+00 
    1.0598015154209671E+01 
    7.3575374289987874E+00 
    1.9567296304282561E+01 
    1.4816835037219290E+01 
    1.8601880260339851E+01 
    1.8728445509842178E+01 
    1.2205194863729442E+01 
    1.5451231539036591E+01 
    1.8145304340333162E+01 
    1.9954059981380471E+01 
    8.7722906798244118E+00 
    1.6424900233352744E+01 
    1.3855402971487090E+01 
    7.8347727539991618E+00 
    1.2207797311791010E+01 
    1.6138335690881899E+01 
    1.8674015732983015E+01 
    1.3270592694030565E+01 
    1.8819770382171424E+01 
    1.8508333532127789E+01 
    1.8441327874179624E+01 
    1.3108611259896875E+01 
    1.1629136849534756E+01 
    1.8171248504089327E+01 
    1.1845419861534863E+01 
    1.3352405198952907E+01 
    1.1627345369866866E+01 
    1.3329098579902867E+01 
    1.8744951512081311E+01 
    8.3830523718307042E+00 
    1.2097133958006632E+01 
    1.9464101289587767E+01 
    1.3115756573076467E+01 
    1.4693865044085079E+01 
    8.6010087572127674E+00 
    1.1919175332335904E+01 
    1.8478590790009196E+01 
    1.8891685851353561E+01 
    7.0446144177931824E+00 
    1.3130774574891470E+01 
    1.1673198484370682E+01 
    2.0463572447870813E+01 
    1.9807277792464305E+01 
    2.0765473659945581E+01 
    1.3150972185893478E+01 
    1.8701984755135896E+01 
    1.8058795797224018E+01 
    1.3003119613524040E+01 
    1.8160473753468434E+01 
    1.3603579672808353E+01 
    7.9049591494605647E+00 
    1.3538690404948413E+01 
    1.9447245995921914E+01 
    1.8155733780523523E+01 
    9.1558490207619219E+00 
    1.8196731548843889E+01 
    1.4537192139513335E+01 
    1.3465250191158910E+01 
    1.2939684729284293E+01 
    1.7938456008134015E+01 
    1.4072568528399948E+01 
    1.8178300441099932E+01 
    1.3126572956299389E+01 
    8.1390933412149753E+00 
    1.3430824084058465E+01 
    1.1480808451097458E+01 
    1.6419711919075791E+01 
    1.9695750120993331E+01 
    1.8170029800753937E+01 
    1.9535735602353718E+01 
    1.3053394983606175E+01 
    8.9011903177597578E+00 
    9.0199050711932838E+00 
    1.3683479662597779E+01 
    1.3322649163544906E+01 
    2.0509596787862674E+00 
    1.7377403613754105E+01 
    2.0141801874006379E+01 
    1.2792056480741408E+01 
    8.2648016092954979E+00 
    1.5275716394020577E+01 
    1.8191604572570974E+01 
    9.8005281223811203E+00 
    6.6840469888201142E+00 
    1.3308210217294711E+01 
    1.8294431835164517E+01 
    1.9216625179890077E+01 
    1.8966709889119610E+01 
    1.8892752775253626E+01 
    9.5195118524684350E+00 
    1.3459099592763103E+01 
    1.7613868759699940E+01 
    1.0509635071684484E+01 
    1.8663285179907760E+01 
    1.5729731497923085E+01 
    9.1448991181005077E+00 
    1.8294765736159292E+01 
    1.9585042270329208E+01 
    1.8370918564133866E+01 
    9.4375474976314191E+00 
    1.3373817336502698E+01 
    1.0374784976779596E+01 
    1.2648362667446934E+01 
    1.8182549161512114E+01 
    1.8166451499881141E+01 
    9.4979180090964537E+00 
    1.9326711256975891E+01 
    1.3993263285079944E+01 
    1.8213064641705039E+01 
    1.9369881240221385E+01 
    1.8194608996896100E+01 
    1.6709463894161932E+01 
    2.0532361596959870E+01 
    1.2729050926037331E+01 
    1.9496576761637865E+01 
    1.8243748844352446E+01 
    1.9590196473979567E+01 
    1.9318624153831315E+01 
    1.2849864442156987E+01 
    1.3221683946405303E+01 
    1.2782216698906289E+01 
    1.6026147860577897E+01 
    5.4649388774306091E+00 
    1.3608470191449316E+01 
    2.0675370114634926E+01 
    1.3609484794796455E+01 
    1.3839168636788935E+01 
    1.9555968200996475E+01 
    1.9836445773039841E+01 
    1.2616858683983530E+01 
    1.8202233127072521E+01 
    1.8162096635160051E+01 
    1.3823655218734839E+01 
    1.9259965093853850E+01 
    9.6528251224273252E+00 
    6.1510933343593894E+00 
    1.4173173497305310E+01 
    1.3623533256929532E+01 
    1.8158677163547001E+01 
    8.8953823270280665E+00 
    1.8874334164638988E+01 
    6.2420321946026007E+00 
    1.3555268969477034E+01 
    1.2866016424142522E+01 
    1.3349917989292008E+01 
    2.2098786111889936E+01 
    5.2931519838516081E+00 
    1.3509788598122308E+01 
    1.6041399430876528E+01 
    1.2942974762581352E+01 
    1.0346674634171347E+01 
    1.9094415833440870E+01 
    2.1636498587252881E+01 
    1.9245078500311962E+01 
    1.3437466882096796E+01 
    7.8068608836343225E+00 
    2.1469875262112954E+01 
    1.8624300275505629E+01 
    9.8349183564893945E+00 
    1.3025215741964491E+01 
    2.0072888225452303E+01 
    4.5101113873719818E+00 
    1.3687396131606429E+01 
    1.9293231186841609E+01 
    1.3366167803341602E+01 
    1.1691482597573277E+01 
    1.3557300833739165E+01 
    1.7735626213253862E+01 
    1.3348179946454838E+01 
    6.9691862682841217E+00 
    1.3305650440650507E+00 
    1.0076007029838497E+01 
    2.0347798937679851E+01 
    1.2781831635235198E+01 
    1.5040714833447634E+01 
    1.4439955278948004E+01 
    1.6478174350537635E+01 
    1.3380022898972882E+01 
    1.8498088630373175E+01 
    2.2113578854154085E+01 
    1.5638657672823992E+01 
    1.9460702726628348E+01 
    7.9086847756647161E-01 
    1.8168464521431936E+01 
    7.6322278692397063E+00 
    2.0865683604343637E+01 
    1.3526068407925461E+01 
    1.1937785874462161E+01 
    1.0576757407772634E+01 
    7.3198354075115288E+00 
    1.4746403004560806E+01 
    1.0648669967494241E+01 
    1.6279428935420398E+01 
    3.0359640779122712E+00 
    1.4583566871884790E+01 
    1.8046649703788123E+01 
    8.1817657201226677E+00 
    1.8751370699485491E+01 
    2.0622746214996745E+01 
    1.8581274414877196E+01 
    1.3363056626447804E+01 
    1.3343351639550901E+01 
    1.3517382545076526E+01 
    7.9242574621763433E+00 
    1.2451609717187614E+01 
    1.2262354655346831E+01 
    1.3504251491637376E+01 
    1.2698786278580824E+01 
    1.0126468142518885E+00 
    8.7043121094467022E+00 
    1.3153481085121470E+01 
    1.3473954770176702E+01 
    1.6747601956191943E+01 
    2.9618282482257743E+00 
    1.3773885352547550E+01 
    1.3632193484271404E+01 
    5.1026407183261693E+00 
    1.8401959493929777E+01 
    1.1847922388574393E+01 
    1.3482725869300969E+01 
    1.8625646317017974E+01 
    7.3468025558420100E+00 
    1.8538036101728459E+01 
    1.2009792567047302E+01 
    1.3535472680342344E+00 
    1.2853310260111826E+01 
    1.9378365207271045E+01 
    1.8169857160830269E+01 
    1.8195176885694728E+01 
    1.3928264684201650E+01 
    1.3558254211199166E+01 
    1.1842730853722262E+01 
    9.4286136966292915E+00 
    1.8796724192936772E+01 
    1.3019872220754428E+01 
    9.1618533367136195E+00 
    1.8188826699233946E+01 
    1.9093295485018388E+01 
    1.3710653615295060E+01 
    1.3166175153646488E+01 
    2.1985408120307103E+01 
    1.3824851305053580E+01 
    1.8804738170962938E+01 
    1.1266389471422634E+01 
    2.2141597389247540E+01 
    8.9641489276067627E+00 
    1.2302612147398024E+01 
    1.0098256959474215E+01 
    1.4112249910481028E+01 
    1.1497103531135890E+01 
    2.2124707034740350E+01 
    1.3884481230601832E+01 
    1.7713997195853150E+01 
    9.2391112160297979E+00 
    1.3374252367019331E+01 
    1.8577039321008954E+01 
    1.1572027106680872E+01 
    9.8229768929234922E+00 
    1.4935066006169519E+01 
    1.8837735999252885E+01 
    9.8584433362969257E+00 
    1.2892598080685982E+01 
    1.3205358597345652E+01 
    1.8134549377087275E+01 
    1.2964331968437699E+01 
    1.8843077072717623E+01 
    1.9626779620477581E+01 
    1.1877432469240917E+01 
    1.1651551927331871E+01 
    1.0660944988520736E+01 
    1.8326689300771136E+01 
    1.3650139091757241E+01 
    2.1676000425694561E+01 
    1.6919813848799993E+01 
    1.8521584018195018E+01 
    2.1327487048154161E+01 
    2.0626051029814779E+01 
    1.3422607996086381E+01 
    1.3485993706411566E+01 
    1.7757441500890572E+01 
    1.8221792830238385E+01 
    1.9030154343646402E+01 
    1.8658487561152803E+01 
    2.2011884263317526E+01 
    1.3824250560368268E+01 
    1.2002463594714875E+01 
    1.3789836143756929E+01 
    1.9515119352982243E+01 
    1.3521147633656515E+01 
    8.0177947156652678E+00 
    1.3343597775613825E+01 
    2.0041339756327975E+01 
    1.3675298428071009E+01 
    1.2011849376368206E+01 
    1.3145597298543803E+01 
    2.0172451670834675E+01 
    1.8313861901035779E+01 
    1.1381535565752774E+01 
    2.0337274576652007E+01 
    1.3452068160517481E+01 
    1.8979846480210959E+01 
    2.0188755198061017E+01 
    1.4203072549856589E+01 
    7.3490653387439844E+00 
    1.4737869309040407E+01 
    7.5958590954640854E+00 
    1.3573044483424921E+01 
    1.3370787286526266E+01 
    1.5496394821498740E+01 
    8.0215396545308000E+00 
    1.6464262989040520E+01 
    1.3387536101908164E+01 
    1.8640907307148719E+01 
    1.4346173487137634E+01 
    1.1022805207426229E+01 
    1.2998230531279697E+01 
    1.4112107642578239E+01 
    1.3952817140456951E+01 
    1.9702923355982559E+01 
    1.1498685415879850E+01 
    1.1300847751910531E+01 
    8.4220891567817873E+00 
    1.9058293531480775E+01 
    1.3046838169392350E+01 
    1.8005663879812527E+01 
    1.3338978502077001E+01 
    9.1924280254418349E+00 
    1.8338836568972603E+01 
    1.3315532578574333E+01 
    1.0022374283959449E+01 
    1.0639569101715683E+01 
    1.1025223749134430E+01 
    1.8695450682731963E+01 
    1.3506635689919216E+01 
    1.9475553408569905E+01 
    1.3275823871179943E+01 
    1.3214131885888458E+01 
    1.2795503562424765E+01 
    1.8457318584482195E+01 
    1.3124827356437084E+01 
    1.1082639531926851E+01 
    2.0613557098105744E+01 
    1.8571866490668892E+01 
    9.4200906717038642E+00 
    3.7294162366859611E+00 
    1.3494156507903892E+01 
    1.2638548018919197E+01 
    1.1646660111557441E+01 
    1.2554449870140543E+01 
    1.8456812949115314E+01 
    1.3141842312963377E+01 
    1.2042284115197086E+01 
    1.8252769461939959E+01 
    9.3150796079178360E+00 
    1.7708865432454200E+01 
    1.2181859919124985E+01 
    1.0907824623426899E+01 
    1.1752657497209862E+01 
    1.9086662772831350E+01 
    1.3352409189830086E+01 
    1.3361294088045746E+01 
    8.1506576590930706E+00 
    8.8033705946134226E+00 
    1.6790380751590334E+01 
    1.3371566474911413E+01 
    1.3541740163127731E+01 
    2.0320846196644787E+01 
    1.1294990358361527E+01 
    1.3384308603537514E+01 
    9.6352480873050919E+00 
    9.9317411674030183E+00 
    1.8418505145879667E+01 
    1.2989221015921231E+01 
    9.6972345408304452E+00 
    1.3940384249985094E+01 
    1.3275583388129974E+01 
    1.8433518544758936E+01 
    2.0430415388424276E+01 
    1.4379584823782228E+00 
    1.3499995102375072E+01 
    1.3622261275698664E+01 
    1.8543088439470250E+01 
    1.2935985974964936E+01 
    1.3323317651495900E+01 
    1.9776091846540346E+01 
    1.1798104060445100E+01 
    9.7830748088425388E+00 
    1.5892340295764884E+01 
    1.8188512067905354E+01 
    1.9586660348111966E+01 
    1.9916647832744371E+01 
    1.3311808367578898E+01 
    1.3489737317788823E+01 
    1.4808157432267761E+01 
    8.9446489972514520E+00 
    1.8372721125625670E+01 
    1.0537458335119839E+01 
    9.3121423452879668E+00 
    1.6504849832908285E+01 
    1.5517909976300441E+01 
    9.1334772053271465E+00 
    1.8237585811752972E+01 
    1.9569544391922307E+01 
    1.3843841606865684E+01 
    2.0549949107012939E+01 
    1.8283661040269713E+01 
    1.3004362431998322E+01 
    1.9184062745261595E+01 
    9.9637760395475468E+00 
    1.8212957882961465E+01 
    1.3498686065647080E+01 
    1.3453477791740720E+01 
    2.0524897782252939E+01 
    1.3091930093948646E+01 
    1.6147492290961797E+01 
    1.1724989172070520E+01 
    1.9719212127512332E+01 
    1.8064195525730870E+01 
    1.2209243180455662E+01 
    1.8157373706104018E+01 
    1.2281212169316849E+01 
    1.3330026457578164E+01 
    1.9517881888364002E+01 
    1.8657832845769242E+01 
    1.9573245701253789E+01 
    1.8547529581722273E+01 
    1.2466479731960462E+01 
    1.2710640880675543E+01 
    1.9582968020995143E+01 
    1.2862792990291162E+01 
    1.7916464064993708E+01 
    1.3070446680822581E+01 
    5.4988141885383808E+00 
    9.3783781298312778E+00 
    8.6978525075293707E+00 
    1.9522320330713622E+01 
    2.0438947818914780E+01 
    1.8180285837069210E+01 
    1.5224735365044950E+01 
    1.8569964422753820E+01 
    1.8249780767644637E+01 
    1.9059078463911721E+01 
    7.8701791632694151E+00 
    5.1184788073479668E+00 
    1.4949065014181320E+01 
    1.3116557906825301E+01 
    1.8464389268245597E+01 
    1.8460672235188028E+01 
    1.3642868068216137E+01 
    1.8513934504105258E+01 
    1.3482932222342910E+01 
    1.3380911545363478E+01 
    7.1172593255412036E+00 
    5.0967737577590677E+00 
    2.0165692077824716E+01 
    1.0553865930165392E+01 
    1.2120460537519454E+01 
    1.3533809861354730E+01 
    2.1988551915515547E+01 
    1.3632924426959857E+01 
    1.3842074906771780E+01 
    5.7817779526898994E+00 
    1.3632741009148434E+01 
    1.3648145201574756E+01 
    1.8797387857388678E+01 
    1.1752716228788312E+01 
    1.2841492553725370E+01 
    2.0371099789813510E+01 
    1.3509876900280883E+01 
    1.8201575619832514E+01 
    1.8498159000084684E+01 
    1.6231086121606776E+01 
    1.1434646669940575E+01 
    1.8546011916861787E+01 
    1.3271809717549958E+01 
    1.8416134301851546E+01 
    1.8112594258033635E+01 
    1.9547063819498700E+01 
    1.8544810507160282E+01 
    1.7129735060411477E+01 
    1.3496376450085611E+01 
    9.0443360149918703E+00 
    2.1853277514025404E+01 
    1.0755204599480500E+01 
    1.9449913987792520E+01 
    1.3493332045497063E+01 
    1.1355619624611309E+01 
    6.7308001152240085E+00 
    1.3688384701256551E+01 
    1.8527420283425378E+01 
    1.8515721541261165E+01 
    1.3309011713051746E+01 
    1.3486496751121861E+01 
    2.0611194263887860E+01 
    1.9846665000865070E+01 
    1.3655039461308615E+01 
    4.7603554764955653E+00 
    1.7013908855711229E+01 
    2.2120979810988761E+01 
    1.3500269602396303E+01 
    1.5706358988502203E+01 
    1.2934677213827721E+01 
    2.1697498071323857E+01 
    1.9948712950521855E+01 
    1.9647992321681198E+01 
    1.3679877370973994E+01 
    6.2431192175449404E+00 
    1.2887124422420964E+01 
    1.2961886898438481E+01 
    1.3008826350715982E+01 
    5.1848222351442619E+00 