# vtk DataFile Version 2.0
Pressure Field Data 
ASCII 
DATASET UNSTRUCTURED_GRID 

POINTS 2860 double 

    0.0000000000000000E+00     0.0000000000000000E+00     0.0000000000000000E+00 
    1.0000000000000000E+00     0.0000000000000000E+00     0.0000000000000000E+00 
    1.0000000000000000E+00     1.0000000000000000E+00     0.0000000000000000E+00 
    0.0000000000000000E+00     1.0000000000000000E+00     0.0000000000000000E+00 
    2.5000000000000000E-01     2.5000000000000000E-01     0.0000000000000000E+00 
    7.5000000000000000E-01     2.5000000000000000E-01     0.0000000000000000E+00 
    7.5000000000000000E-01     7.5000000000000000E-01     0.0000000000000000E+00 
    2.5000000000000000E-01     7.5000000000000000E-01     0.0000000000000000E+00 
    3.1249999999942091E-02     0.0000000000000000E+00     0.0000000000000000E+00 
    6.2499999999873469E-02     0.0000000000000000E+00     0.0000000000000000E+00 
    9.3749999999826514E-02     0.0000000000000000E+00     0.0000000000000000E+00 
    1.2499999999977961E-01     0.0000000000000000E+00     0.0000000000000000E+00 
    1.5624999999968961E-01     0.0000000000000000E+00     0.0000000000000000E+00 
    1.8749999999959971E-01     0.0000000000000000E+00     0.0000000000000000E+00 
    2.1874999999950970E-01     0.0000000000000000E+00     0.0000000000000000E+00 
    2.4999999999941969E-01     0.0000000000000000E+00     0.0000000000000000E+00 
    2.8124999999932920E-01     0.0000000000000000E+00     0.0000000000000000E+00 
    3.1249999999923850E-01     0.0000000000000000E+00     0.0000000000000000E+00 
    3.4374999999914790E-01     0.0000000000000000E+00     0.0000000000000000E+00 
    3.7499999999905720E-01     0.0000000000000000E+00     0.0000000000000000E+00 
    4.0624999999896660E-01     0.0000000000000000E+00     0.0000000000000000E+00 
    4.3749999999887590E-01     0.0000000000000000E+00     0.0000000000000000E+00 
    4.6874999999878530E-01     0.0000000000000000E+00     0.0000000000000000E+00 
    4.9999999999869471E-01     0.0000000000000000E+00     0.0000000000000000E+00 
    5.3124999999877620E-01     0.0000000000000000E+00     0.0000000000000000E+00 
    5.6249999999885780E-01     0.0000000000000000E+00     0.0000000000000000E+00 
    5.9374999999893940E-01     0.0000000000000000E+00     0.0000000000000000E+00 
    6.2499999999902101E-01     0.0000000000000000E+00     0.0000000000000000E+00 
    6.5624999999910261E-01     0.0000000000000000E+00     0.0000000000000000E+00 
    6.8749999999918421E-01     0.0000000000000000E+00     0.0000000000000000E+00 
    7.1874999999926570E-01     0.0000000000000000E+00     0.0000000000000000E+00 
    7.4999999999934730E-01     0.0000000000000000E+00     0.0000000000000000E+00 
    7.8124999999942890E-01     0.0000000000000000E+00     0.0000000000000000E+00 
    8.1249999999951039E-01     0.0000000000000000E+00     0.0000000000000000E+00 
    8.4374999999959199E-01     0.0000000000000000E+00     0.0000000000000000E+00 
    8.7499999999967359E-01     0.0000000000000000E+00     0.0000000000000000E+00 
    9.0624999999975520E-01     0.0000000000000000E+00     0.0000000000000000E+00 
    9.3749999999983680E-01     0.0000000000000000E+00     0.0000000000000000E+00 
    9.6874999999991840E-01     0.0000000000000000E+00     0.0000000000000000E+00 
    1.0000000000000000E+00     3.1249999999942091E-02     0.0000000000000000E+00 
    1.0000000000000000E+00     6.2499999999873469E-02     0.0000000000000000E+00 
    1.0000000000000000E+00     9.3749999999826514E-02     0.0000000000000000E+00 
    1.0000000000000000E+00     1.2499999999977961E-01     0.0000000000000000E+00 
    1.0000000000000000E+00     1.5624999999968961E-01     0.0000000000000000E+00 
    1.0000000000000000E+00     1.8749999999959971E-01     0.0000000000000000E+00 
    1.0000000000000000E+00     2.1874999999950970E-01     0.0000000000000000E+00 
    1.0000000000000000E+00     2.4999999999941969E-01     0.0000000000000000E+00 
    1.0000000000000000E+00     2.8124999999932920E-01     0.0000000000000000E+00 
    1.0000000000000000E+00     3.1249999999923850E-01     0.0000000000000000E+00 
    1.0000000000000000E+00     3.4374999999914790E-01     0.0000000000000000E+00 
    1.0000000000000000E+00     3.7499999999905720E-01     0.0000000000000000E+00 
    1.0000000000000000E+00     4.0624999999896660E-01     0.0000000000000000E+00 
    1.0000000000000000E+00     4.3749999999887590E-01     0.0000000000000000E+00 
    1.0000000000000000E+00     4.6874999999878530E-01     0.0000000000000000E+00 
    1.0000000000000000E+00     4.9999999999869471E-01     0.0000000000000000E+00 
    1.0000000000000000E+00     5.3124999999877620E-01     0.0000000000000000E+00 
    1.0000000000000000E+00     5.6249999999885780E-01     0.0000000000000000E+00 
    1.0000000000000000E+00     5.9374999999893940E-01     0.0000000000000000E+00 
    1.0000000000000000E+00     6.2499999999902101E-01     0.0000000000000000E+00 
    1.0000000000000000E+00     6.5624999999910261E-01     0.0000000000000000E+00 
    1.0000000000000000E+00     6.8749999999918421E-01     0.0000000000000000E+00 
    1.0000000000000000E+00     7.1874999999926570E-01     0.0000000000000000E+00 
    1.0000000000000000E+00     7.4999999999934730E-01     0.0000000000000000E+00 
    1.0000000000000000E+00     7.8124999999942890E-01     0.0000000000000000E+00 
    1.0000000000000000E+00     8.1249999999951039E-01     0.0000000000000000E+00 
    1.0000000000000000E+00     8.4374999999959199E-01     0.0000000000000000E+00 
    1.0000000000000000E+00     8.7499999999967359E-01     0.0000000000000000E+00 
    1.0000000000000000E+00     9.0624999999975520E-01     0.0000000000000000E+00 
    1.0000000000000000E+00     9.3749999999983680E-01     0.0000000000000000E+00 
    1.0000000000000000E+00     9.6874999999991840E-01     0.0000000000000000E+00 
    9.6875000000003686E-01     1.0000000000000000E+00     0.0000000000000000E+00 
    9.3750000000011691E-01     1.0000000000000000E+00     0.0000000000000000E+00 
    9.0625000000015765E-01     1.0000000000000000E+00     0.0000000000000000E+00 
    8.7500000000017863E-01     1.0000000000000000E+00     0.0000000000000000E+00 
    8.4375000000028044E-01     1.0000000000000000E+00     0.0000000000000000E+00 
    8.1250000000040856E-01     1.0000000000000000E+00     0.0000000000000000E+00 
    7.8125000000054956E-01     1.0000000000000000E+00     0.0000000000000000E+00 
    7.5000000000066480E-01     1.0000000000000000E+00     0.0000000000000000E+00 
    7.1875000000086831E-01     1.0000000000000000E+00     0.0000000000000000E+00 
    6.8750000000102829E-01     1.0000000000000000E+00     0.0000000000000000E+00 
    6.5625000000114431E-01     1.0000000000000000E+00     0.0000000000000000E+00 
    6.2500000000129829E-01     1.0000000000000000E+00     0.0000000000000000E+00 
    5.9375000000147926E-01     1.0000000000000000E+00     0.0000000000000000E+00 
    5.6250000000168354E-01     1.0000000000000000E+00     0.0000000000000000E+00 
    5.3125000000188671E-01     1.0000000000000000E+00     0.0000000000000000E+00 
    5.0000000000205835E-01     1.0000000000000000E+00     0.0000000000000000E+00 
    4.6875000000192979E-01     1.0000000000000000E+00     0.0000000000000000E+00 
    4.3750000000180111E-01     1.0000000000000000E+00     0.0000000000000000E+00 
    4.0625000000167238E-01     1.0000000000000000E+00     0.0000000000000000E+00 
    3.7500000000154382E-01     1.0000000000000000E+00     0.0000000000000000E+00 
    3.4375000000141509E-01     1.0000000000000000E+00     0.0000000000000000E+00 
    3.1250000000128642E-01     1.0000000000000000E+00     0.0000000000000000E+00 
    2.8125000000115769E-01     1.0000000000000000E+00     0.0000000000000000E+00 
    2.5000000000102918E-01     1.0000000000000000E+00     0.0000000000000000E+00 
    2.1875000000090050E-01     1.0000000000000000E+00     0.0000000000000000E+00 
    1.8750000000077180E-01     1.0000000000000000E+00     0.0000000000000000E+00 
    1.5625000000064329E-01     1.0000000000000000E+00     0.0000000000000000E+00 
    1.2500000000051459E-01     1.0000000000000000E+00     0.0000000000000000E+00 
    9.3750000000385914E-02     1.0000000000000000E+00     0.0000000000000000E+00 
    6.2500000000257239E-02     1.0000000000000000E+00     0.0000000000000000E+00 
    3.1250000000128557E-02     1.0000000000000000E+00     0.0000000000000000E+00 
    0.0000000000000000E+00     9.6875000000003686E-01     0.0000000000000000E+00 
    0.0000000000000000E+00     9.3750000000011691E-01     0.0000000000000000E+00 
    0.0000000000000000E+00     9.0625000000015765E-01     0.0000000000000000E+00 
    0.0000000000000000E+00     8.7500000000017863E-01     0.0000000000000000E+00 
    0.0000000000000000E+00     8.4375000000028044E-01     0.0000000000000000E+00 
    0.0000000000000000E+00     8.1250000000040856E-01     0.0000000000000000E+00 
    0.0000000000000000E+00     7.8125000000054956E-01     0.0000000000000000E+00 
    0.0000000000000000E+00     7.5000000000066480E-01     0.0000000000000000E+00 
    0.0000000000000000E+00     7.1875000000086831E-01     0.0000000000000000E+00 
    0.0000000000000000E+00     6.8750000000102829E-01     0.0000000000000000E+00 
    0.0000000000000000E+00     6.5625000000114431E-01     0.0000000000000000E+00 
    0.0000000000000000E+00     6.2500000000129829E-01     0.0000000000000000E+00 
    0.0000000000000000E+00     5.9375000000147926E-01     0.0000000000000000E+00 
    0.0000000000000000E+00     5.6250000000168354E-01     0.0000000000000000E+00 
    0.0000000000000000E+00     5.3125000000188671E-01     0.0000000000000000E+00 
    0.0000000000000000E+00     5.0000000000205835E-01     0.0000000000000000E+00 
    0.0000000000000000E+00     4.6875000000192979E-01     0.0000000000000000E+00 
    0.0000000000000000E+00     4.3750000000180111E-01     0.0000000000000000E+00 
    0.0000000000000000E+00     4.0625000000167238E-01     0.0000000000000000E+00 
[...]
CELL_DATA 2795 
SCALARS Pressure double 1 
LOOKUP_TABLE default 

    7.1500924624395514E+00 
    1.5478033491374553E+01 
    1.0964324847376004E+01 
    1.0673919537363735E+01 
    8.6731300881561673E+00 
    1.5325556007551516E+01 
    1.6082893818559963E+01 
    6.4330021987399970E+00 
    1.1521671380005211E+01 
    8.8516789914958061E+00 
    7.5747610907785576E+00 
    1.5058212434361661E+01 
    1.5395618349803271E+01 
    1.5294058615845117E+01 
    1.0083770775294880E+01 
    6.3328853028775338E+00 
    9.9160940482362001E+00 
    8.0512082091738915E+00 
    1.4680547226086434E+01 
    1.0948066022721383E+01 
    1.0842481281150709E+01 
    1.5224700671144484E+01 
    1.0408531222921683E+01 
    4.2647503097587947E-01 
    1.5101979185995335E+01 
    1.5353657433799860E+01 
    1.6115527450683398E+01 
    7.3413966446601453E+00 
    1.4975826164989966E+01 
    1.6101007478799314E+01 
    1.1123837905526905E+01 
    1.1158517306825329E+01 
    8.0040345029259043E+00 
    1.0926831241546292E+01 
    3.6875196389465605E+00 
    9.9181603657997357E+00 
    1.0913417765642214E+01 
    1.6141004452048278E+01 
    1.6059379959201138E+01 
    1.5071613003674454E+01 
    8.6340300967250592E+00 
    1.5069534825448637E+01 
    8.9183955732057663E-01 
    1.0914654950157281E+01 
    1.5884197569931999E+01 
    1.5661645823938558E+01 
    1.5047106166813091E+01 
    1.1929927713988327E+01 
    1.5116531882520311E+01 
    1.0122143400023051E+01 
    9.6899581254419260E+00 
    1.1123008832150257E+01 
    1.0817259345074548E+01 
    9.9726488731777465E+00 
    1.1195752503723639E+01 
    1.4461921368255817E+01 
    1.2868426122183145E+01 
    8.7178493799352594E+00 
    1.5229782351672633E+01 
    1.5150000150348164E+01 
    1.0671577493594709E+01 
    1.0546978769929835E+01 
    1.0578500399386265E+01 
    1.6001764743903191E+01 
    1.6276500570023519E+01 
    9.9299365216080098E+00 
    1.1121688240603456E+01 
    1.4913411307518224E+01 
    1.2808188973616367E+01 
    1.0585012533545498E+01 
    1.6277347296861375E+01 
    1.5211427415323406E+01 
    9.8014102284589839E+00 
    1.5781678753388434E+01 
    1.1432422244544442E+01 
    1.4952891548046386E+01 
    1.6159358770291160E+01 
    1.1486458838855896E+01 
    7.3245900255233147E+00 
    1.1139871346326100E+01 
    1.6068287648897986E+01 
    1.6298845001105484E+01 
    9.9364425680446029E+00 
    1.1062529863642109E+01 
    1.6348762664567833E+01 
    1.0913371994532577E+01 
    1.0493516259533898E+01 
    1.3256485651524031E+01 
    6.9980602780566574E+00 
    9.7181787586007680E+00 
    1.1060502816294456E+01 
    1.1681708880669360E+01 
    1.7811088853780635E+01 
    8.4428091440875050E+00 
    1.1129566199481179E+01 
    1.5024314799600210E+01 
    1.5346069040989237E+01 
    7.4991488068647616E+00 
    1.0774954245663732E+01 
    1.1093374299874339E+01 
    1.5366929800870350E+01 
    1.1087594385444861E+01 
    1.5299264064658946E+01 
    4.6436215874559448E+00 
    7.3632901239437176E+00 
    1.1346964017157452E+01 
    1.5484917559438259E+01 
    9.8839052996526942E+00 
    1.0451772229805885E+01 
    1.1068617672112389E+01 
    1.0464202975693413E+01 
    1.2488443651108428E+01 
    1.0191780148536852E+01 
    9.8101162346566646E+00 
    7.9612769844624900E+00 
    1.3105635986089922E+01 
    1.1162913875261639E+01 
    1.5914683231623988E+01 
    9.6010233920895711E+00 
    1.0656881876561640E+01 
    1.5193631567182292E+01 
    9.0667724756384231E+00 
    1.5644374706681189E+01 
    1.0988471299250188E+01 
    1.0588044972724227E+01 
    1.5348487730027355E+01 
    1.1152220028679364E+01 
    1.6168757957813252E+01 
    1.3274328197767611E+01 
    1.4295589292742399E+01 
    1.6132831570129838E+01 
    8.4587131355780141E+00 
    1.1372845785452304E+01 
    1.5343905969551013E+01 
    3.4722118557267887E+00 
    1.1173744438496914E+01 
    1.6098221026122893E+01 
    1.0616779461129299E+01 
    1.2212444137609541E+01 
    7.5235275206113377E+00 
    1.5022108175371885E+01 
    1.8290440119581710E+01 
    1.3773098044538640E+01 
    1.0615311471581213E+01 
    9.6103541169769677E+00 
    1.1842826593196447E+01 
    1.1005587052851642E+01 
    7.6650358598372765E+00 
    1.6126855139698169E+01 
    1.5367816302533324E+01 
    1.5026063204794754E+01 
    1.1698838601339213E+01 
    9.7783576592915935E+00 
    1.0838932086967679E+01 
    1.5818192231485808E+01 
    1.0016493002287328E+01 
    1.1079917204897182E+01 
    1.0176290821028614E+01 
    1.2804514217245110E+01 
    1.8278702806009882E+01 
    1.5017341747680986E+01 
    9.7692055473309178E+00 
    1.5543501846079510E+01 
    1.5444521138341026E+01 
    1.5524710662001754E+01 
    1.6547961216797027E+01 
    1.7093373516935777E+01 
    1.5657748030050673E+01 
    1.1113443652357061E+01 
    1.2018278210906482E+01 
    1.5492139617062499E+01 
    1.5930859056857823E+01 
    7.9970186630313842E+00 
    1.5046719897279747E+01 
    1.5781865441480836E+01 
    7.7797530604608900E+00 
    1.6467782595650920E+01 
    1.6444734554142812E+01 
    1.4751732342461347E+01 
    1.1457370425741219E+01 
    3.0292312778322348E+00 
    1.6097670684462827E+01 
    1.1287936874871548E+01 
    1.6224507831787108E+01 
    1.0549833808629966E+01 
    1.5927647776840447E+01 
    1.1074517390389094E+00 
    1.4303924494899521E+01 
    1.0592923231829415E+01 
    9.7357385486575581E+00 
    9.5069179588110568E+00 
    1.0956817349965931E+01 
    1.2110095292030920E+01 
    1.1539303644687742E+01 
    8.0877001129729589E+00 
    1.5920502199842916E+01 
    1.5364774524878177E+01 
    1.2938110369020601E+01 
    1.1340777772385914E+01 
    1.7624450946981443E+00 
    8.8248762442961972E+00 
    6.2854626214023170E+00 
    1.6113024538928475E+01 
    1.2320680043667734E+01 
    1.5394894905280749E+01 
    1.5433531220309863E+01 
    1.0096549912806854E+01 
    1.2868600412932729E+01 
    1.5020961811425387E+01 
    1.6430205463587232E+01 
    7.4669512622072451E+00 
    1.3699630223795298E+01 
    1.1490867653620644E+01 
    6.6735274927907113E+00 
    1.0085803718394457E+01 
    1.3477037683832345E+01 
    1.5393827500619658E+01 
    1.1009788527909745E+01 
    1.5503681493093110E+01 
    1.5270157459227528E+01 
    1.5217011339976942E+01 
    1.0843970641475451E+01 
    9.6488370552520060E+00 
    1.5034409983198067E+01 
    9.7980419661638845E+00 
    1.1094433778149755E+01 
    9.6256265217252182E+00 
    1.1048123641660528E+01 
    1.5443578926529867E+01 
    6.9531166855249866E+00 
    9.9977260794563456E+00 
    1.6028938535754985E+01 
    1.0854484819913250E+01 
    1.2215136609766668E+01 
    7.1306620604807573E+00 
    9.8542128795679975E+00 
    1.5249300186992180E+01 
    1.5559494386259690E+01 
    5.8512232341327612E+00 
    1.0864143371118224E+01 
    9.6762513564266968E+00 
    1.6859783399077649E+01 
    1.6309676985582612E+01 
    1.7120627753860813E+01 
    1.0884761753732500E+01 
    1.5414981490137551E+01 
    1.4974015394539812E+01 
    1.0745191582711543E+01 
    1.5026439228721019E+01 
    1.1342512540142828E+01 
    6.7579459822765191E+00 
    1.1212421350569519E+01 
    1.6013573024160873E+01 
    1.5023129773337436E+01 
    7.5596015799898089E+00 
    1.5053952069458454E+01 
    1.2131852319458799E+01 
    1.1154431614991287E+01 
    1.0692150885506040E+01 
    1.4884547165306643E+01 
    1.1677960378081853E+01 
    1.5039854853781955E+01 
    1.0851494266985782E+01 
    6.9819855770904935E+00 
    1.1170732085362150E+01 
    9.5158355015681000E+00 
    1.3784464763443157E+01 
    1.6219909705868314E+01 
    1.5032419654373619E+01 
    1.6091236198437219E+01 
    1.0797906064577431E+01 
    7.3578365195420661E+00 
    7.4540268508635270E+00 
    1.1341743543413925E+01 
    1.1068214450771887E+01 
    1.7033906903422140E+00 
    1.4506397387053196E+01 
    1.6583100464150057E+01 
    1.0562728602066613E+01 
    7.0286907539674273E+00 
    1.2789725021767314E+01 
    1.5052462852954129E+01 
    8.2040073085736775E+00 
    5.6821194452911818E+00 
    1.1048923699360348E+01 
    1.5132318768301095E+01 
    1.5824758046249908E+01 
    1.5711262235760762E+01 
    1.5561404112676616E+01 
    8.0673006175634434E+00 
    1.1147199176728266E+01 
    1.4608805983316200E+01 
    8.6936260354086663E+00 
    1.5382317160188684E+01 
    1.3108961698165913E+01 
    7.5513124828973002E+00 
    1.5161638580519506E+01 
    1.6123014044704014E+01 
    1.5217662538005396E+01 
    7.9139819284757547E+00 
    1.1117833895282041E+01 
    8.6483358135049944E+00 
    1.0501059148435655E+01 
    1.5043509291845814E+01 
    1.5031190769072177E+01 
    7.9587390839930654E+00 
    1.5969722849005183E+01 
    1.1670754949057692E+01 
    1.5064271633569888E+01 
    1.5942551256514855E+01 
    1.5051678100938998E+01 
    1.4026352474201081E+01 
    1.6914217043482513E+01 
    1.0519684126509002E+01 
    1.6059308347045487E+01 
    1.5092089113064530E+01 
    1.6134651528770988E+01 
    1.5962147301535511E+01 
    1.0617997315110440E+01 
    1.0954210405608501E+01 
    1.0553366880569403E+01 
    1.3497135830932541E+01 
    4.6541272437755241E+00 
    1.1277127314176752E+01 
    1.7040677063127511E+01 
    1.1343128387832586E+01 
    1.1539878811170006E+01 
    1.6106593981652782E+01 
    1.6346464415578573E+01 
    1.0451000502217429E+01 
    1.5058558660370615E+01 
    1.5027257542476315E+01 
    1.1526740321912815E+01 
    1.5916206056262357E+01 
    7.9224303298238405E+00 
    5.1175633421472080E+00 
    1.1823754329341391E+01 
    1.1357122050143134E+01 
    1.5032929848222199E+01 
    7.4785872542002449E+00 
    1.5628315835462676E+01 
    5.2278109309961769E+00 
    1.1291995299853568E+01 
    1.0656597983417194E+01 
    1.1094679012414472E+01 
    1.8327889136968789E+01 
    4.5239109855846582E+00 
    1.1191967182238193E+01 
    1.3306750102552023E+01 
    1.0691005910791732E+01 
    8.7968384835227589E+00 
    1.5738527070573204E+01 
    1.7904091032477094E+01 
    1.5894906789489236E+01 
    1.1131296791643086E+01 
    6.6353983612350982E+00 
    1.7748739295507114E+01 
    1.5357945848298630E+01 
    8.4901182342253065E+00 
    1.0763852990930664E+01 
    1.6530308887185281E+01 
    3.8398608300286803E+00 
    1.1410543807220812E+01 
    1.5871999717394250E+01 
    1.1109086695835140E+01 
    9.6920100217830853E+00 
    1.1232931757991841E+01 
    1.4830594676473675E+01 
    1.1090802198574920E+01 
    5.9321622918085914E+00 
    1.0958597716511067E+00 
    8.3072676803890761E+00 
    1.6756133738111689E+01 
    1.0552061494219384E+01 
    1.2513577766331062E+01 
    1.1995045079416293E+01 
    1.3797112044045797E+01 
    1.1122664272776110E+01 
    1.5268255490367617E+01 
    1.8341880096660930E+01 
    1.3162891371239899E+01 
    1.6030358500266651E+01 
    6.3674966782212250E-01 
    1.5033273495060826E+01 
    6.5603517035090562E+00 
    1.7208719831062506E+01 
    1.1205999589504804E+01 
    9.8662378994615718E+00 
    8.8075164168839777E+00 
    6.2072740628949248E+00 
    1.2425959851044761E+01 
    8.7901223228544954E+00 
    1.3673495736527183E+01 
    2.5691949426078189E+00 
    1.2169688632108610E+01 
    1.4961581204215479E+01 
    6.7706757857990416E+00 
    1.5515069470887912E+01 
    1.7020794829540549E+01 
    1.5358843535231888E+01 
    1.1069260238282345E+01 
    1.1089010830923142E+01 
    1.1198492591374215E+01 
    6.7019328202766193E+00 
    1.0283179268059660E+01 
    1.0130329412040078E+01 
    1.1187215080268839E+01 
    1.0486747922737461E+01 
    8.1832313217756636E-01 
    7.4616183531747007E+00 
    1.0880462584003226E+01 
    1.1161762455081835E+01 
    1.4040285276415409E+01 
    2.5104501734565217E+00 
    1.1484326847500254E+01 
    1.1363148117238627E+01 
    4.3514394676328898E+00 
    1.5218792189120846E+01 
    9.8099614041160130E+00 
    1.1222418445054414E+01 
    1.5358475846217761E+01 
    6.2348020739575700E+00 
    1.5334004716178880E+01 
    9.9272050421889748E+00 
    1.1385326700896337E+00 
    1.0613239472872701E+01 
    1.5984327649527033E+01 
    1.5033219426550039E+01 
    1.5052913484507549E+01 
    1.1553250188613962E+01 
    1.1295273177205416E+01 
    9.7937129147247024E+00 
    8.1266872712489953E+00 
    1.5471013708273635E+01 
    1.0758075920112859E+01 
    7.8917857007942018E+00 
    1.5047917201753698E+01 
    1.5763362530408859E+01 
    1.1364829979323181E+01 
    1.0903111331660631E+01 
    1.8223291899433534E+01 
    1.1527706434212696E+01 
    1.5483867260759160E+01 
    9.3542495340112417E+00 
    1.8369782686418578E+01 
    7.4098629897912245E+00 
    1.0193823636764627E+01 
    8.2592329350818545E+00 
    1.1771196987615282E+01 
    9.4374852099143052E+00 
    1.8353573168450218E+01 
    1.1578292276550455E+01 
    1.4768043852749928E+01 
    7.6150947615428297E+00 
    1.1117920955237990E+01 
    1.5321579378213009E+01 
    9.4562626665110336E+00 
    8.4226759664251318E+00 
    1.2415079093012315E+01 
    1.5542973651210326E+01 
    8.1466928715932347E+00 
    1.0677341982568455E+01 
    1.0937847111584508E+01 
    1.5007683990210911E+01 
    1.0720054058876116E+01 
    1.5521768242637128E+01 
    1.6164541764138285E+01 
    9.8225685330531736E+00 
    9.6471699356791198E+00 
    8.8222842107726223E+00 
    1.5156223731774940E+01 
    1.1392053273111117E+01 
    1.7939904143171258E+01 
    1.4113483481887892E+01 
    1.5283802565430125E+01 
    1.7623561869364480E+01 
    1.7021976091324579E+01 
    1.1164701533793343E+01 
    1.1171802296369190E+01 
    1.4776954493192799E+01 
    1.5073041160114434E+01 
    1.5648444039279186E+01 
    1.5380534279950918E+01 
    1.8244984662320977E+01 
    1.1527207198487629E+01 
    9.9237329473425557E+00 
    1.1533940324436147E+01 
    1.6074466894808882E+01 
    1.1260439404178777E+01 
    6.6684080999635693E+00 
    1.1052950960940128E+01 
    1.6501456986341577E+01 
    1.1400435111237144E+01 
    9.9290115106992367E+00 
    1.0877773097958320E+01 
    1.6611782261777154E+01 
    1.5116957113244982E+01 
    9.4992013476990476E+00 
    1.6752378574702451E+01 
    1.1193346371319832E+01 
    1.5629595609542092E+01 
    1.6626842236990839E+01 
    1.1792167513187737E+01 
    6.2505450141559411E+00 
    1.2278507657239849E+01 
    6.4516403093973675E+00 
    1.1310545677951669E+01 
    1.1112593674506968E+01 
    1.2986615125902762E+01 
    6.8086148449191697E+00 
    1.3775996140314314E+01 
    1.1130402991651300E+01 
    1.5369577650295176E+01 
    1.1875782695064306E+01 
    9.3467623066517636E+00 
    1.0737597729384945E+01 
    1.1712184077568065E+01 
    1.1636791675240012E+01 
    1.6215568571190079E+01 
    9.5272310943315741E+00 
    9.3741859354494785E+00 
    7.1404722849618869E+00 
    1.5672475470969394E+01 
    1.0784890492191700E+01 
    1.4923795707887468E+01 
    1.1081810699329194E+01 
    7.7646250304406372E+00 
    1.5159390866353730E+01 
    1.1057851326960655E+01 
    8.4147586126874838E+00 
    8.8754956496596638E+00 
    9.1636800832203988E+00 
    1.5402458673249958E+01 
    1.1189244088797718E+01 
    1.6042458673601857E+01 
    1.1017393657713685E+01 
    1.0955755889616304E+01 
    1.0594852344014202E+01 
    1.5241067753284877E+01 
    1.0870384776296836E+01 
    9.2065854709526196E+00 
    1.7008965720385977E+01 
    1.5322783353372039E+01 
    7.7489625900219616E+00 
    3.1842310857159117E+00 
    1.1178401067002119E+01 
    1.0427929287297211E+01 
    9.6428528044747370E+00 
    1.0396199426403729E+01 
    1.5247067214525037E+01 
    1.0882970771793360E+01 
    9.9697445865702150E+00 
    1.5096154407769868E+01 
    7.6844932134847728E+00 
    1.4738068706922332E+01 
    1.0075722073258168E+01 
    9.1864160999027362E+00 
    9.7250289286971601E+00 
    1.5716331096954290E+01 
    1.1097419336760963E+01 
    1.1105674772328282E+01 
    6.8825600337841379E+00 
    7.4050521601926143E+00 
    1.4069389020093563E+01 
    1.1115500170892245E+01 
    1.1219387877269178E+01 
    1.6736058556478124E+01 
    9.3710768387711134E+00 
    1.1127758474565503E+01 
    7.9430264879545636E+00 
    8.1897734892930742E+00 
    1.5238202458510857E+01 
    1.0749566352526204E+01 
    8.1168019800783089E+00 
    1.1692471922694844E+01 
    1.1010872001153409E+01 
    1.5240701640830423E+01 
    1.6830099017725853E+01 
    1.2128584211763971E+00 
    1.1183380418759059E+01 
    1.1355492009545609E+01 
    1.5301082208432531E+01 
    1.0684377628756870E+01 
    1.1070512335265434E+01 
    1.6273443058383279E+01 
    9.7588645120750872E+00 
    8.1859278489126037E+00 
    1.3281053288970895E+01 
    1.5047645863063986E+01 
    1.6133956994273525E+01 
    1.6401437868154577E+01 
    1.1023437235063524E+01 
    1.1174881290681475E+01 
    1.2448418509310121E+01 
    7.3917181094115350E+00 
    1.5182353376678225E+01 
    8.7766946910510875E+00 
    7.6726291860441380E+00 
    1.3800671326534530E+01 
    1.3064170965693279E+01 
    7.5359209688277007E+00 
    1.5085307042042738E+01 
    1.6119036980311716E+01 
    1.1543835543852339E+01 
    1.6932536113196278E+01 
    1.5120465495096713E+01 
    1.0753721434620200E+01 
    1.5847606203849880E+01 
    8.1792880520844626E+00 
    1.5067223210571658E+01 
    1.1182370106132385E+01 
    1.1142564629490579E+01 
    1.6908213127085123E+01 
    1.0824389024405727E+01 
    1.3585216581449970E+01 
    9.7048837288724350E+00 
    1.6240114623046974E+01 
    1.4968944069280973E+01 
    1.0082627225459051E+01 
    1.5021949514953725E+01 
    1.0061308990366415E+01 
    1.1078772340457096E+01 
    1.6076677637669647E+01 
    1.5378435502755737E+01 
    1.6122395190687481E+01 
    1.5305271094906344E+01 
    1.0294011709397326E+01 
    1.0511011318990693E+01 
    1.6129482539472232E+01 
    1.0636121193245389E+01 
    1.4889291082065695E+01 
    1.0809130433818904E+01 
    4.6944540598224949E+00 
    7.7442305396756401E+00 
    7.1924355954873684E+00 
    1.6080276080726296E+01 
    1.6836308089642394E+01 
    1.5041050071955965E+01 
    1.2716833386962380E+01 
    1.5351847842045835E+01 
    1.5093405193851671E+01 
    1.5711266469946253E+01 
    6.6648018149199206E+00 
    4.3747478898782566E+00 
    1.2488493548927565E+01 
    1.0842534706247802E+01 
    1.5249288558820856E+01 
    1.5246730248752140E+01 
    1.1382542457101096E+01 
    1.5285898644051171E+01 
    1.1169135578092348E+01 
    1.1074113509329894E+01 
    6.0422744384307219E+00 
    4.3578871179640464E+00 
    1.6607078400177187E+01 
    8.6856759055147243E+00 
    1.0016227159819920E+01 
    1.1271655196772794E+01 
    1.8225039993754496E+01 
    1.1365079126154743E+01 
    1.1476651256917407E+01 
    4.9519301439880570E+00 
    1.1365967173676133E+01 
    1.1380678494506498E+01 
    1.5565899423044591E+01 
    9.7296771581280765E+00 
    1.0635903710229117E+01 
    1.6779845158032526E+01 
    1.1191813408385411E+01 
    1.5057875445831611E+01 
    1.5303494580305859E+01 
    1.3545244797614847E+01 
    9.4470486319146065E+00 
    1.5305748274416246E+01 
    1.0982511510441290E+01 
    1.5234290720478199E+01 
    1.4993425604788353E+01 
    1.6100457912445709E+01 
    1.5299594785840503E+01 
    1.4339088409735030E+01 
    1.1180443453252487E+01 
    7.4700676572116276E+00 
    1.8099634578722501E+01 
    8.9480468738437917E+00 
    1.6018265841697261E+01 
    1.1177803121718362E+01 
    9.4218218133954075E+00 
    5.7397462685894354E+00 
    1.1419680579441613E+01 
    1.5291296594915678E+01 
    1.5289832860030350E+01 
    1.1059149865875785E+01 
    1.1171863339944206E+01 
    1.6990891576194691E+01 
    1.6343581102532085E+01 
    1.1384359640200392E+01 
    4.0689795883711835E+00 
    1.4229324150731758E+01 
    1.8351237040613967E+01 
    1.1183825093619598E+01 
    1.3116894913575008E+01 
    1.0682221807879280E+01 
    1.7958043414901162E+01 
    1.6427349601678447E+01 
    1.6169847785189521E+01 
    1.1406576832779827E+01 
    5.2919033990221820E+00 
    1.0640848162494033E+01 
    1.0706647405888758E+01 
    1.0750427711024228E+01 
    4.4286521340849418E+00 