# vtk DataFile Version 2.0
Pressure Field Data 
ASCII 
DATASET UNSTRUCTURED_GRID 

POINTS 2860 double 

    0.0000000000000000E+00     0.0000000000000000E+00     0.0000000000000000E+00 
    1.0000000000000000E+00     0.0000000000000000E+00     0.0000000000000000E+00 
    1.0000000000000000E+00     1.0000000000000000E+00     0.0000000000000000E+00 
    0.0000000000000000E+00     1.0000000000000000E+00     0.0000000000000000E+00 
    2.5000000000000000E-01     2.5000000000000000E-01     0.0000000000000000E+00 
    7.5000000000000000E-01     2.5000000000000000E-01     0.0000000000000000E+00 
    7.5000000000000000E-01     7.5000000000000000E-01     0.0000000000000000E+00 
    2.5000000000000000E-01     7.5000000000000000E-01     0.0000000000000000E+00 
    3.1249999999942091E-02     0.0000000000000000E+00     0.0000000000000000E+00 
    6.2499999999873469E-02     0.0000000000000000E+00     0.0000000000000000E+00 
    9.3749999999826514E-02     0.0000000000000000E+00     0.0000000000000000E+00 
    1.2499999999977961E-01     0.0000000000000000E+00     0.0000000000000000E+00 
    1.5624999999968961E-01     0.0000000000000000E+00     0.0000000000000000E+00 
    1.8749999999959971E-01     0.0000000000000000E+00     0.0000000000000000E+00 
    2.1874999999950970E-01     0.0000000000000000E+00     0.0000000000000000E+00 
    2.4999999999941969E-01     0.0000000000000000E+00     0.0000000000000000E+00 
    2.8124999999932920E-01     0.0000000000000000E+00     0.0000000000000000E+00 
    3.1249999999923850E-01     0.0000000000000000E+00     0.0000000000000000E+00 
    3.4374999999914790E-01     0.0000000000000000E+00     0.0000000000000000E+00 
    3.7499999999905720E-01     0.0000000000000000E+00     0.0000000000000000E+00 
    4.0624999999896660E-01     0.0000000000000000E+00     0.0000000000000000E+00 
    4.3749999999887590E-01     0.0000000000000000E+00     0.0000000000000000E+00 
    4.6874999999878530E-01     0.0000000000000000E+00     0.0000000000000000E+00 
    4.9999999999869471E-01     0.0000000000000000E+00     0.0000000000000000E+00 
    5.3124999999877620E-01     0.0000000000000000E+00     0.0000000000000000E+00 
    5.6249999999885780E-01     0.0000000000000000E+00     0.0000000000000000E+00 
    5.9374999999893940E-01     0.0000000000000000E+00     0.0000000000000000E+00 
    6.2499999999902101E-01     0.0000000000000000E+00     0.0000000000000000E+00 
    6.5624999999910261E-01     0.0000000000000000E+00     0.0000000000000000E+00 
    6.8749999999918421E-01     0.0000000000000000E+00     0.0000000000000000E+00 
    7.1874999999926570E-01     0.0000000000000000E+00     0.0000000000000000E+00 
    7.4999999999934730E-01     0.0000000000000000E+00     0.0000000000000000E+00 
    7.8124999999942890E-01     0.0000000000000000E+00     0.0000000000000000E+00 
    8.1249999999951039E-01     0.0000000000000000E+00     0.0000000000000000E+00 
    8.4374999999959199E-01     0.0000000000000000E+00     0.0000000000000000E+00 
    8.7499999999967359E-01     0.0000000000000000E+00     0.0000000000000000E+00 
    9.0624999999975520E-01     0.0000000000000000E+00     0.0000000000000000E+00 
    9.3749999999983680E-01     0.0000000000000000E+00     0.0000000000000000E+00 
    9.6874999999991840E-01     0.0000000000000000E+00     0.0000000000000000E+00 
    1.0000000000000000E+00     3.1249999999942091E-02     0.0000000000000000E+00 
    1.0000000000000000E+00     6.2499999999873469E-02     0.0000000000000000E+00 
    1.0000000000000000E+00     9.3749999999826514E-02     0.0000000000000000E+00 
    1.0000000000000000E+00     1.2499999999977961E-01     0.0000000000000000E+00 
    1.0000000000000000E+00     1.5624999999968961E-01     0.0000000000000000E+00 
    1.0000000000000000E+00     1.8749999999959971E-01     0.0000000000000000E+00 
    1.0000000000000000E+00     2.1874999999950970E-01     0.0000000000000000E+00 
    1.0000000000000000E+00     2.4999999999941969E-01     0.0000000000000000E+00 
    1.0000000000000000E+00     2.8124999999932920E-01     0.0000000000000000E+00 
    1.0000000000000000E+00     3.1249999999923850E-01     0.0000000000000000E+00 
    1.0000000000000000E+00     3.4374999999914790E-01     0.0000000000000000E+00 
    1.0000000000000000E+00     3.7499999999905720E-01     0.0000000000000000E+00 
    1.0000000000000000E+00     4.0624999999896660E-01     0.0000000000000000E+00 
    1.0000000000000000E+00     4.3749999999887590E-01     0.0000000000000000E+00 
    1.0000000000000000E+00     4.6874999999878530E-01     0.0000000000000000E+00 
    1.0000000000000000E+00     4.9999999999869471E-01     0.0000000000000000E+00 
    1.0000000000000000E+00     5.3124999999877620E-01     0.0000000000000000E+00 
    1.0000000000000000E+00     5.6249999999885780E-01     0.0000000000000000E+00 
    1.0000000000000000E+00     5.9374999999893940E-01     0.0000000000000000E+00 
    1.0000000000000000E+00     6.2499999999902101E-01     0.0000000000000000E+00 
    1.0000000000000000E+00     6.5624999999910261E-01     0.0000000000000000E+00 
    1.0000000000000000E+00     6.8749999999918421E-01     0.0000000000000000E+00 
    1.0000000000000000E+00     7.1874999999926570E-01     0.0000000000000000E+00 
    1.0000000000000000E+00     7.4999999999934730E-01     0.0000000000000000E+00 
    1.0000000000000000E+00     7.8124999999942890E-01     0.0000000000000000E+00 
    1.0000000000000000E+00     8.1249999999951039E-01     0.0000000000000000E+00 
    1.0000000000000000E+00     8.4374999999959199E-01     0.0000000000000000E+00 
    1.0000000000000000E+00     8.7499999999967359E-01     0.0000000000000000E+00 
    1.0000000000000000E+00     9.0624999999975520E-01     0.0000000000000000E+00 
    1.0000000000000000E+00     9.3749999999983680E-01     0.0000000000000000E+00 
    1.0000000000000000E+00     9.6874999999991840E-01     0.0000000000000000E+00 
    9.6875000000003686E-01     1.0000000000000000E+00     0.0000000000000000E+00 
    9.3750000000011691E-01     1.0000000000000000E+00     0.0000000000000000E+00 
    9.0625000000015765E-01     1.0000000000000000E+00     0.0000000000000000E+00 
    8.7500000000017863E-01     1.0000000000000000E+00     0.0000000000000000E+00 
    8.4375000000028044E-01     1.0000000000000000E+00     0.0000000000000000E+00 
    8.1250000000040856E-01     1.0000000000000000E+00     0.0000000000000000E+00 
    7.8125000000054956E-01     1.0000000000000000E+00     0.0000000000000000E+00 
    7.5000000000066480E-01     1.0000000000000000E+00     0.0000000000000000E+00 
    7.1875000000086831E-01     1.0000000000000000E+00     0.0000000000000000E+00 
    6.8750000000102829E-01     1.0000000000000000E+00     0.0000000000000000E+00 
    6.5625000000114431E-01     1.0000000000000000E+00     0.0000000000000000E+00 
    6.2500000000129829E-01     1.0000000000000000E+00     0.0000000000000000E+00 
    5.9375000000147926E-01     1.0000000000000000E+00     0.0000000000000000E+00 
    5.6250000000168354E-01     1.0000000000000000E+00     0.0000000000000000E+00 
    5.3125000000188671E-01     1.0000000000000000E+00     0.0000000000000000E+00 
    5.0000000000205835E-01     1.0000000000000000E+00     0.0000000000000000E+00 
    4.6875000000192979E-01     1.0000000000000000E+00     0.0000000000000000E+00 
    4.3750000000180111E-01     1.0000000000000000E+00     0.0000000000000000E+00 
    4.0625000000167238E-01     1.0000000000000000E+00     0.0000000000000000E+00 
    3.7500000000154382E-01     1.0000000000000000E+00     0.0000000000000000E+00 
    3.4375000000141509E-01     1.0000000000000000E+00     0.0000000000000000E+00 
    3.1250000000128642E-01     1.0000000000000000E+00     0.0000000000000000E+00 
    2.8125000000115769E-01     1.0000000000000000E+00     0.0000000000000000E+00 
    2.5000000000102918E-01     1.0000000000000000E+00     0.0000000000000000E+00 
    2.1875000000090050E-01     1.0000000000000000E+00     0.0000000000000000E+00 
    1.8750000000077180E-01     1.0000000000000000E+00     0.0000000000000000E+00 
    1.5625000000064329E-01     1.0000000000000000E+00     0.0000000000000000E+00 
    1.2500000000051459E-01     1.0000000000000000E+00     0.0000000000000000E+00 
    9.3750000000385914E-02     1.0000000000000000E+00     0.0000000000000000E+00 
    6.2500000000257239E-02     1.0000000000000000E+00     0.0000000000000000E+00 
    3.1250000000128557E-02     1.0000000000000000E+00     0.0000000000000000E+00 
    0.0000000000000000E+00     9.6875000000003686E-01     0.0000000000000000E+00 
    0.0000000000000000E+00     9.3750000000011691E-01     0.0000000000000000E+00 
    0.0000000000000000E+00     9.0625000000015765E-01     0.0000000000000000E+00 
    0.0000000000000000E+00     8.7500000000017863E-01     0.0000000000000000E+00 
    0.0000000000000000E+00     8.4375000000028044E-01     0.0000000000000000E+00 
    0.0000000000000000E+00     8.1250000000040856E-01     0.0000000000000000E+00 
    0.0000000000000000E+00     7.8125000000054956E-01     0.0000000000000000E+00 
    0.0000000000000000E+00     7.5000000000066480E-01     0.0000000000000000E+00 
    0.0000000000000000E+00     7.1875000000086831E-01     0.0000000000000000E+00 
    0.0000000000000000E+00     6.8750000000102829E-01     0.0000000000000000E+00 
    0.0000000000000000E+00     6.5625000000114431E-01     0.0000000000000000E+00 
    0.0000000000000000E+00     6.2500000000129829E-01     0.0000000000000000E+00 
    0.0000000000000000E+00     5.9375000000147926E-01     0.0000000000000000E+00 
    0.0000000000000000E+00     5.6250000000168354E-01     0.0000000000000000E+00 
    0.0000000000000000E+00     5.3125000000188671E-01     0.0000000000000000E+00 
    0.0000000000000000E+00     5.0000000000205835E-01     0.0000000000000000E+00 
    0.0000000000000000E+00     4.6875000000192979E-01     0.0000000000000000E+00 
    0.0000000000000000E+00     4.3750000000180111E-01     0.0000000000000000E+00 
    0.0000000000000000E+00     4.0625000000167238E-01     0.0000000000000000E+00 
[...]
CELL_DATA 2795 
SCALARS Pressure double 1 
LOOKUP_TABLE default 

    5.0656813721669520E+00 
    1.1420135299064862E+01 
    8.0910346273479856E+00 
    7.7199536286776693E+00 
    6.1823028111891949E+00 
    1.1327722040360712E+01 
    1.1929058892852860E+01 
    4.5384676002042283E+00 
    8.5377927178620485E+00 
    6.5253248056763953E+00 
    5.5613789291853850E+00 
    1.1122086677781558E+01 
    1.1336802140717751E+01 
    1.1302423984152059E+01 
    7.4414815595389880E+00 
    4.4612763086913745E+00 
    7.1109415845371755E+00 
    5.9216159532033412E+00 
    1.0831746852781723E+01 
    8.0858461629690144E+00 
    7.9804930690267994E+00 
    1.1249691345295050E+01 
    7.5046499868474603E+00 
    3.0882226626670573E-01 
    1.1091234798260594E+01 
    1.1317378606747820E+01 
    1.1956703628173738E+01 
    5.3536208896857351E+00 
    1.1058138689088706E+01 
    1.1945153784299523E+01 
    8.1948154672466345E+00 
    8.2981978367731042E+00 
    5.7472525905019687E+00 
    8.0529760280826039E+00 
    2.6572893514972362E+00 
    7.1135176576667689E+00 
    8.0454625203336221E+00 
    1.1979226390379004E+01 
    1.1911134681988562E+01 
    1.1132543060909294E+01 
    6.1179292930314322E+00 
    1.1075580269459147E+01 
    6.4058613076870663E-01 
    7.9234018547040694E+00 
    1.1747230384389308E+01 
    1.1605518871365431E+01 
    1.1113511434347341E+01 
    8.8347944573314425E+00 
    1.1170168606357429E+01 
    7.2689535289680594E+00 
    6.9351037416763308E+00 
    8.2671476113474682E+00 
    7.8239176167926328E+00 
    7.1500049744066443E+00 
    8.2738941282871696E+00 
    1.0664041552153089E+01 
    9.6452397463201986E+00 
    6.2142349149600147E+00 
    1.1252817939770424E+01 
    1.1192132717210560E+01 
    7.7872062018978010E+00 
    7.7815293288263732E+00 
    7.6408935905783757E+00 
    1.1862472378677257E+01 
    1.2080239150972909E+01 
    7.1194443896829576E+00 
    8.2655498846100190E+00 
    1.1041369100111606E+01 
    9.4574657342978927E+00 
    7.7969748450843523E+00 
    1.2094360869532258E+01 
    1.1185062477677887E+01 
    7.0215026819890518E+00 
    1.1687410588744051E+01 
    8.5052197643025433E+00 
    1.0971313767972374E+01 
    1.1991386733372963E+01 
    8.3324974402444383E+00 
    5.0901786011112691E+00 
    8.2809234652944461E+00 
    1.1917339307653444E+01 
    1.2112757038036115E+01 
    7.1396418627212492E+00 
    8.2059574487148748E+00 
    1.2151914026857357E+01 
    8.0506279926016919E+00 
    7.5735749085368296E+00 
    9.7840388136851413E+00 
    4.9005801550072388E+00 
    6.9556274594269567E+00 
    8.2060010342031369E+00 
    8.6502125228520494E+00 
    1.3461946669430150E+01 
    6.0121962307864232E+00 
    8.2721805738961791E+00 
    1.1096258020931398E+01 
    1.1295895363854177E+01 
    5.3114193598474859E+00 
    7.9309447145025809E+00 
    8.2344656961122258E+00 
    1.1313394957003329E+01 
    8.2347967466001801E+00 
    1.1256459766026770E+01 
    3.2711193943992392E+00 
    5.4044265954783066E+00 
    8.4523636020452919E+00 
    1.1427834192044546E+01 
    7.0853867118063860E+00 
    7.6117967904608088E+00 
    8.2209782808782013E+00 
    7.5522356714278267E+00 
    9.3917367843094457E+00 
    7.3903489424815847E+00 
    7.0276606426802681E+00 
    5.5462052806521669E+00 
    9.5372664858285727E+00 
    8.2997051277685898E+00 
    1.1788650084075561E+01 
    7.0959083423699392E+00 
    7.7126419410752378E+00 
    1.1176300581040952E+01 
    6.4562952416244297E+00 
    1.1552907532557311E+01 
    8.1282391015156090E+00 
    7.6500168713730803E+00 
    1.1298089886412486E+01 
    8.2917093949500131E+00 
    1.2000003295497599E+01 
    9.7932361290629739E+00 
    1.0543536865974005E+01 
    1.1971027659509506E+01 
    6.0236715990031886E+00 
    8.4657881997507083E+00 
    1.1301950541155483E+01 
    2.4587922560507742E+00 
    8.2507900082491759E+00 
    1.1942872117893668E+01 
    7.6800031285947439E+00 
    8.8539771594499896E+00 
    5.2325636852879196E+00 
    1.1097353509438699E+01 
    1.3914802336882669E+01 
    1.0162997086245454E+01 
    7.6721517384875844E+00 
    6.8752503613343832E+00 
    8.8380401242679305E+00 
    8.1450473648188293E+00 
    5.6214567612198527E+00 
    1.1964907736753830E+01 
    1.1388420681251747E+01 
    1.1097776293962882E+01 
    8.6671029900158718E+00 
    7.0010894677462030E+00 
    7.9804826001806042E+00 
    1.1710612251039940E+01 
    7.1903378288196924E+00 
    8.0454112825244266E+00 
    7.3194614544587884E+00 
    9.3446555402946139E+00 
    1.3903850563859605E+01 
    1.1090447235961101E+01 
    6.9067913551109879E+00 
    1.1458523754075966E+01 
    1.1393049803884503E+01 
    1.1460895075658003E+01 
    1.2322808169066482E+01 
    1.2804933771400599E+01 
    1.1600419802227503E+01 
    8.2586157836126706E+00 
    8.7503419065489290E+00 
    1.1459915759047881E+01 
    1.1800538722143370E+01 
    5.8583516872210941E+00 
    1.1112938725655743E+01 
    1.1678847411723481E+01 
    5.7127458990498079E+00 
    1.2241016623258544E+01 
    1.2235560801286180E+01 
    1.0887441653043565E+01 
    8.5170213831940487E+00 
    2.1952628370671250E+00 
    1.1940454007355056E+01 
    8.4022373911650590E+00 
    1.2043617268517982E+01 
    7.6271560742255575E+00 
    1.1796245862782591E+01 
    7.7801534906017855E-01 
    1.0557784970243562E+01 
    7.8155500518535543E+00 
    6.9705289623549280E+00 
    6.7958330255184327E+00 
    8.0991254486909980E+00 
    9.0929985897714705E+00 
    8.3553157592081497E+00 
    5.5841044284368992E+00 
    1.1794855554365197E+01 
    1.1323301949922369E+01 
    9.5580206835460544E+00 
    8.4444681985018235E+00 
    1.2598420650842788E+00 
    6.2936290060642861E+00 
    4.3806987494039156E+00 
    1.1955424911480405E+01 
    9.1898989916575946E+00 
    1.1378907553577806E+01 
    1.1378733124596735E+01 
    7.2743461813025814E+00 
    9.5764909088667647E+00 
    1.1093157861829569E+01 
    1.2221227630691079E+01 
    5.2376990452449199E+00 
    9.9858650732441792E+00 
    8.3896225235548769E+00 
    4.6721599642992988E+00 
    7.2490593292242522E+00 
    9.9794502387404691E+00 
    1.1346760746559644E+01 
    8.1535365077820590E+00 
    1.1441271518957027E+01 
    1.1241587552524894E+01 
    1.1199801688493237E+01 
    7.9883750217494445E+00 
    6.9453738874872490E+00 
    1.1104975290059087E+01 
    7.0183429324424385E+00 
    8.2403509656800171E+00 
    6.8847851405466836E+00 
    7.9965240521868868E+00 
    1.1385928096253679E+01 
    5.0992255936519246E+00 
    7.1810538199729281E+00 
    1.1883677032956557E+01 
    8.0038834619642909E+00 
    9.0948132084083309E+00 
    5.2342733132362662E+00 
    7.0651182112697439E+00 
    1.1223380695169947E+01 
    1.1488847632658121E+01 
    4.2814891747143822E+00 
    8.0032379247107421E+00 
    6.9156313129807110E+00 
    1.2594216071853333E+01 
    1.2120277242508216E+01 
    1.2827105616161859E+01 
    8.0233174076109037E+00 
    1.1363872373176056E+01 
    1.1058390022891892E+01 
    7.9111556967153556E+00 
    1.1097690707230857E+01 
    8.4440585727253747E+00 
    4.6986087295241443E+00 
    8.1880022591155228E+00 
    1.1870724869654273E+01 
    1.1095029128030397E+01 
    5.5350805081611938E+00 
    1.1118606383914951E+01 
    9.0925540698224374E+00 
    8.2353296670049119E+00 
    7.7576442522319375E+00 
    1.0987516404312158E+01 
    8.6776544818697161E+00 
    1.1108619969504764E+01 
    7.8825626753191305E+00 
    4.8166951783036813E+00 
    8.2978004667723795E+00 
    6.8032862643932734E+00 
    1.0164832008325677E+01 
    1.2042996775378182E+01 
    1.1105022258166237E+01 
    1.1936404289618981E+01 
    7.9600050101522148E+00 
    5.3960741771518297E+00 
    5.4700624147290258E+00 
    8.4135947110733813E+00 
    8.2170223423124131E+00 
    1.2030833536618515E+00 
    1.0704274473011328E+01 
    1.2347091660312213E+01 
    7.6315722255438212E+00 
    4.9320860103341868E+00 
    9.2866118042404882E+00 
    1.1117293919132896E+01 
    5.8297892975146031E+00 
    4.0045519570556500E+00 
    8.1944346048928178E+00 
    1.1202970822145138E+01 
    1.1712938475071066E+01 
    1.1619127409575503E+01 
    1.1492618587639663E+01 
    5.6829546464088638E+00 
    8.2224149536861422E+00 
    1.0705019403391844E+01 
    6.4080027620695219E+00 
    1.1325911989231736E+01 
    9.7527866493124513E+00 
    5.5445373985529942E+00 
    1.1203817582180651E+01 
    1.1945126833123263E+01 
    1.1189492917584369E+01 
    5.6241094759978525E+00 
    8.2622338227787750E+00 
    6.1632756567744220E+00 
    7.7846527172641826E+00 
    1.1110590245775301E+01 
    1.1101221858667291E+01 
    5.6557338042927041E+00 
    1.1830857955868613E+01 
    8.7170495875834888E+00 
    1.1141007384191447E+01 
    1.1805457004537395E+01 
    1.1124725478273925E+01 
    1.0360452788868658E+01 
    1.2637731014175611E+01 
    7.6153653476773062E+00 
    1.1911164698863704E+01 
    1.1162902332814514E+01 
    1.1971918363375474E+01 
    1.1825704915357958E+01 
    7.6952423880541820E+00 
    8.0850656159762497E+00 
    7.6218521484403965E+00 
    9.9677793311892735E+00 
    3.2784036919122603E+00 
    8.3545253128138590E+00 
    1.2752876936579701E+01 
    8.4491372122667254E+00 
    8.6103746776653303E+00 
    1.1948331127388526E+01 
    1.2154722388226768E+01 
    7.6140680621799159E+00 
    1.1122009187548368E+01 
    1.1098939633639750E+01 
    8.5997087704353667E+00 
    1.1788033408011588E+01 
    5.8283323377669385E+00 
    3.7446044482493406E+00 
    8.8421238966790927E+00 
    8.4607301365769985E+00 
    1.1102453094429029E+01 
    5.2989964699562737E+00 
    1.1551323750315079E+01 
    3.8172637988841496E+00 
    8.4068472938825707E+00 
    7.7931884905522040E+00 
    8.2418008188251175E+00 
    1.3952670752895347E+01 
    3.1888555800022926E+00 
    8.2700504932887515E+00 
    9.7073177985679759E+00 
    7.8714976294375782E+00 
    6.1613177382600277E+00 
    1.1654577195549408E+01 
    1.3546745420069980E+01 
    1.1771027368068852E+01 
    8.2146512300632537E+00 
    4.6613815387812059E+00 
    1.3408277857615342E+01 
    1.1312945690820364E+01 
    5.7828828589867882E+00 
    7.7859796075425223E+00 
    1.2308529676986558E+01 
    2.7057702663265033E+00 
    8.5046785667710978E+00 
    1.1742038299639912E+01 
    8.2546798583439944E+00 
    7.1669543892069223E+00 
    8.3119925140104307E+00 
    1.0875478001259143E+01 
    8.2371830303055731E+00 
    4.1729391330650651E+00 
    7.6288169124254335E-01 
    6.1136753225418392E+00 
    1.2494623869689077E+01 
    7.6200370478426587E+00 
    9.3390073937461828E+00 
    8.9663705170240995E+00 
    1.0185603622000919E+01 
    8.2672972190601772E+00 
    1.1236300835177383E+01 
    1.3966118431054133E+01 
    9.7090397858406057E+00 
    1.1887827097442086E+01 
    4.5609200816734330E-01 
    1.1102687665146986E+01 
    4.5201268111443200E+00 
    1.2907338235216221E+01 
    8.2836924262085265E+00 
    7.2860819030898289E+00 
    6.2804277277484353E+00 
    4.3811627301002840E+00 
    9.1844241177485912E+00 
    6.4817233136953289E+00 
    1.0079165856131198E+01 
    1.8657838915728966E+00 
    9.1200683439723651E+00 
    1.1047962754545303E+01 
    4.9657790636249270E+00 
    1.1495124075893482E+01 
    1.2745712537328208E+01 
    1.1377886337250425E+01 
    8.1589981897177690E+00 
    8.2370767356197412E+00 
    8.2764785979128490E+00 
    4.7333220312848105E+00 
    7.4033432422479670E+00 
    7.2809512399407668E+00 
    8.2654497040293489E+00 
    7.5711721393613649E+00 
    5.7442988475773271E-01 
    5.1517195284349722E+00 
    7.8800692123972800E+00 
    8.2421043648196104E+00 
    1.0355756549441159E+01 
    1.7698091644569045E+00 
    8.5650386342523888E+00 
    8.4657188244877393E+00 
    3.0684216588763458E+00 
    1.1273830111002844E+01 
    7.0441248482191954E+00 
    8.3494125751376522E+00 
    1.1309533929638009E+01 
    4.3937325503504328E+00 
    1.1361794625362089E+01 
    7.1197082354098686E+00 
    8.0646867956669011E-01 
    7.6723741432261576E+00 
    1.1842925152813255E+01 
    1.1103267820879685E+01 
    1.1122145886334089E+01 
    8.6156850861757501E+00 
    8.4095311747068795E+00 
    7.0169417570968564E+00 
    5.5839072966332912E+00 
    1.1401032089583977E+01 
    7.7863365653252821E+00 
    5.4039037845009936E+00 
    1.1115456692524262E+01 
    1.1678691589734013E+01 
    8.4262446078123450E+00 
    8.0466559127800927E+00 
    1.3854678140664111E+01 
    8.6004492907520333E+00 
    1.1418742028958944E+01 
    6.6785808128708899E+00 
    1.3994137061944988E+01 
    5.4372946061692131E+00 
    7.3951187705633323E+00 
    6.0814459299282593E+00 
    8.7980130965217835E+00 
    6.9662931501252787E+00 
    1.3978400710875290E+01 
    8.6415769174635972E+00 
    1.0825042607513401E+01 
    5.5904915755000060E+00 
    8.2626094408007589E+00 
    1.1284566010378638E+01 
    6.9875245280595424E+00 
    5.8449739274778709E+00 
    9.0194462938036395E+00 
    1.1495124471374258E+01 
    5.9944387715470278E+00 
    7.8083114004341718E+00 
    8.0696018812410575E+00 
    1.1083016377894101E+01 
    7.9027374184414478E+00 
    1.1459657722546982E+01 
    1.1996924270881971E+01 
    7.0377896687413601E+00 
    6.9017100295529996E+00 
    6.5063131634348856E+00 
    1.1198144753506044E+01 
    8.4597332202185278E+00 
    1.3581840623959412E+01 
    1.0567354052271725E+01 
    1.1249772413754249E+01 
    1.3292371951263926E+01 
    1.2748496367547235E+01 
    8.3036537935211872E+00 
    8.2511189808459857E+00 
    1.0911995237339736E+01 
    1.1133060855919954E+01 
    1.1548292080985751E+01 
    1.1330361284473396E+01 
    1.3871582877649384E+01 
    8.6000525504534888E+00 
    7.1208028049396406E+00 
    8.5613085188385067E+00 
    1.1922885423581404E+01 
    8.3816418238940678E+00 
    4.8677558850991636E+00 
    8.1441453052779131E+00 
    1.2280186549851990E+01 
    8.4965636126132722E+00 
    7.1226032260110408E+00 
    8.0130888260328170E+00 
    1.2376676697762635E+01 
    1.1121441451729316E+01 
    6.7628293502754433E+00 
    1.2499339391121277E+01 
    8.3273116426114537E+00 
    1.1547937858629842E+01 
    1.2389870640207612E+01 
    8.6618572640120259E+00 
    4.3885182688928595E+00 
    8.9926899632816326E+00 
    4.5357945877805665E+00 
    8.4218236069466741E+00 
    8.2573263478932457E+00 
    9.4578251239559368E+00 
    4.7903730931377533E+00 
    1.0042936746617446E+01 
    8.2740373942556982E+00 
    1.1322015375636827E+01 
    8.6277606164499243E+00 
    6.5283339265756259E+00 
    7.9042458117509771E+00 
    8.7193759913462721E+00 
    8.6898693809287675E+00 
    1.2031940766393177E+01 
    6.8104251881324380E+00 
    6.6955717498948770E+00 
    5.0301362927371267E+00 
    1.1572530264676281E+01 
    7.9404645354748400E+00 
    1.0951951499336216E+01 
    8.2283698888059931E+00 
    5.4879511447301184E+00 
    1.1145322644571483E+01 
    8.2042466170526680E+00 
    5.9732349848291584E+00 
    6.3209954325458160E+00 
    6.5389708405318450E+00 
    1.1347625155010778E+01 
    8.2673942873956854E+00 
    1.1896505035657707E+01 
    8.1637377794895745E+00 
    8.1046167983702357E+00 
    7.7306358829730133E+00 
    1.1213160973026246E+01 
    8.0293491863857742E+00 
    6.5716953977898447E+00 
    1.2735409126461589E+01 
    1.1279575461743624E+01 
    5.6944009941782063E+00 
    2.2528489779880463E+00 
    8.2564359935395775E+00 
    7.6825731795444776E+00 
    6.8993719823388693E+00 
    7.5584612495614021E+00 
    1.1266890360547846E+01 
    7.9872210254529685E+00 
    7.1807266078497074E+00 
    1.1150858283050706E+01 
    5.6435706879065251E+00 
    1.0879762646663306E+01 
    7.4319859459640831E+00 
    6.4937235470689592E+00 
    6.9625998089611372E+00 
    1.1620587048301909E+01 
    8.2445505157188386E+00 
    8.2517001355396040E+00 
    4.8656701665670177E+00 
    5.2477129268018423E+00 
    1.0310373056346737E+01 
    8.2604336812174388E+00 
    8.2992914600964856E+00 
    1.2483752520884618E+01 
    6.6949082665431217E+00 
    8.2708501672543218E+00 
    5.8399032780252966E+00 
    6.0252215133806111E+00 
    1.1205354594495169E+01 
    7.9336565332746005E+00 
    5.7695816689512336E+00 
    8.6674683043714023E+00 
    8.1463163445487101E+00 
    1.1208778552774364E+01 
    1.2567059034699492E+01 
    8.8178877010910872E-01 
    8.2612101496875603E+00 
    8.4595437725775202E+00 
    1.1263033529752761E+01 
    7.7363962796598758E+00 
    8.2206755350021314E+00 
    1.2076723268697426E+01 
    6.9876942189183007E+00 
    5.8184835166726421E+00 
    9.9806222328932890E+00 
    1.1114211086098914E+01 
    1.1972992303779264E+01 
    1.2199487219925171E+01 
    8.1098130652897069E+00 
    8.2537662056151007E+00 
    9.2395394463243736E+00 
    5.4140887291993431E+00 
    1.1216711359743714E+01 
    6.2588028152826922E+00 
    5.6351888727024049E+00 
    1.0309007345613420E+01 
    9.6837032705435515E+00 
    5.5274112998211349E+00 
    1.1143631536041040E+01 
    1.1959820823182287E+01 
    8.6135833684560463E+00 
    1.2657535453821897E+01 
    1.1169528080210357E+01 
    7.8331214804967892E+00 
    1.1732843273896551E+01 
    6.0248794975702351E+00 
    1.1128564055032177E+01 
    8.2605623295361408E+00 
    8.2186911903378519E+00 
    1.2632964217052768E+01 
    7.9671130015545026E+00 
    1.0060492246866666E+01 
    6.9471679816617815E+00 
    1.2060312011474442E+01 
    1.1053037094109143E+01 
    7.2405479899708363E+00 
    1.1096486209213925E+01 
    7.4249033705821637E+00 
    8.2297173786599789E+00 
    1.1925268167842484E+01 
    1.1323183844124483E+01 
    1.1962906141442616E+01 
    1.1265749413249395E+01 
    7.4151476668776830E+00 
    7.6238428056014103E+00 
    1.1968025462114738E+01 
    7.7301851302425728E+00 
    1.0997595274926942E+01 
    7.9620114500639518E+00 
    3.3022376595118033E+00 
    5.6898754739651114E+00 
    5.2763504646163248E+00 
    1.1927813284588604E+01 
    1.2571514218395281E+01 
    1.1111243874263776E+01 
    9.5785851216656805E+00 
    1.1342639143517127E+01 
    1.1148563302605746E+01 
    1.1633247185249195E+01 
    4.7010337153083146E+00 
    3.0844610083457260E+00 
    9.3955226853830034E+00 
    7.8837475532500774E+00 
    1.1268407589066827E+01 
    1.1266323708165482E+01 
    8.4728922222565721E+00 
    1.1296746252534343E+01 
    8.2484155559966421E+00 
    8.0990661968114459E+00 
    4.2594354735329238E+00 
    3.0742508233708916E+00 
    1.2373704130842654E+01 
    6.3947179387045914E+00 
    7.1907929206318357E+00 
    8.3899198477706953E+00 
    1.3854800058887532E+01 
    8.4678333429077721E+00 
    8.4394295067055562E+00 
    3.4791853099439920E+00 
    8.4681218567212557E+00 
    8.4792359251430991E+00 
    1.1522182451764156E+01 
    6.9713475129116862E+00 
    7.8547108048444665E+00 
    1.2523122219366956E+01 
    8.2697464258586990E+00 
    1.1123916120946268E+01 
    1.1327992904909934E+01 
    1.0216379342109684E+01 
    6.9459368346075330E+00 
    1.1265216439193130E+01 
    8.0515102928026749E+00 
    1.1282541737737313E+01 
    1.1071805616005113E+01 
    1.1944348402983408E+01 
    1.1263955621209512E+01 
    1.0595815130691047E+01 
    8.2588301983316867E+00 
    5.4829137482201036E+00 
    1.3735331765836101E+01 
    6.3849606052868326E+00 
    1.1876761326064058E+01 
    8.2561736253567855E+00 
    6.7454339231451579E+00 
    4.0751788920611034E+00 
    8.5071458693307438E+00 
    1.1254373431616392E+01 
    1.1250608019481270E+01 
    8.2118048814979314E+00 
    8.2501587782145922E+00 
    1.2711564048588608E+01 
    1.2149676053359052E+01 
    8.4838533414957382E+00 
    2.8727581010198127E+00 
    1.0578622207253476E+01 
    1.3977243782516767E+01 
    8.2622267773401852E+00 
    9.8889495739452578E+00 
    7.7303527916281451E+00 
    1.3603489914916711E+01 
    1.2219582305902023E+01 
    1.1987642035439038E+01 
    8.5021361331037024E+00 
    3.8175301566084041E+00 
    7.6933098185712030E+00 
    7.7562993168079064E+00 
    7.8095649607560151E+00 
    3.1238203981928017E+00 