# vtk DataFile Version 2.0
Pressure Field Data 
ASCII 
DATASET UNSTRUCTURED_GRID 

POINTS 2860 double 

    0.0000000000000000E+00     0.0000000000000000E+00     0.0000000000000000E+00 
    1.0000000000000000E+00     0.0000000000000000E+00     0.0000000000000000E+00 
    1.0000000000000000E+00     1.0000000000000000E+00     0.0000000000000000E+00 
    0.0000000000000000E+00     1.0000000000000000E+00     0.0000000000000000E+00 
    2.5000000000000000E-01     2.5000000000000000E-01     0.0000000000000000E+00 
    7.5000000000000000E-01     2.5000000000000000E-01     0.0000000000000000E+00 
    7.5000000000000000E-01     7.5000000000000000E-01     0.0000000000000000E+00 
    2.5000000000000000E-01     7.5000000000000000E-01     0.0000000000000000E+00 
    3.1249999999942091E-02     0.0000000000000000E+00     0.0000000000000000E+00 
    6.2499999999873469E-02     0.0000000000000000E+00     0.0000000000000000E+00 
    9.3749999999826514E-02     0.0000000000000000E+00     0.0000000000000000E+00 
    1.2499999999977961E-01     0.0000000000000000E+00     0.0000000000000000E+00 
    1.5624999999968961E-01     0.0000000000000000E+00     0.0000000000000000E+00 
    1.8749999999959971E-01     0.0000000000000000E+00     0.0000000000000000E+00 
    2.1874999999950970E-01     0.0000000000000000E+00     0.0000000000000000E+00 
    2.4999999999941969E-01     0.0000000000000000E+00     0.0000000000000000E+00 
    2.8124999999932920E-01     0.0000000000000000E+00     0.0000000000000000E+00 
    3.1249999999923850E-01     0.0000000000000000E+00     0.0000000000000000E+00 
    3.4374999999914790E-01     0.0000000000000000E+00     0.0000000000000000E+00 
    3.7499999999905720E-01     0.0000000000000000E+00     0.0000000000000000E+00 
    4.0624999999896660E-01     0.0000000000000000E+00     0.0000000000000000E+00 
    4.3749999999887590E-01     0.0000000000000000E+00     0.0000000000000000E+00 
    4.6874999999878530E-01     0.0000000000000000E+00     0.0000000000000000E+00 
    4.9999999999869471E-01     0.0000000000000000E+00     0.0000000000000000E+00 
    5.3124999999877620E-01     0.0000000000000000E+00     0.0000000000000000E+00 
    5.6249999999885780E-01     0.0000000000000000E+00     0.0000000000000000E+00 
    5.9374999999893940E-01     0.0000000000000000E+00     0.0000000000000000E+00 
    6.2499999999902101E-01     0.0000000000000000E+00     0.0000000000000000E+00 
    6.5624999999910261E-01     0.0000000000000000E+00     0.0000000000000000E+00 
    6.8749999999918421E-01     0.0000000000000000E+00     0.0000000000000000E+00 
    7.1874999999926570E-01     0.0000000000000000E+00     0.0000000000000000E+00 
    7.4999999999934730E-01     0.0000000000000000E+00     0.0000000000000000E+00 
    7.8124999999942890E-01     0.0000000000000000E+00     0.0000000000000000E+00 
    8.1249999999951039E-01     0.0000000000000000E+00     0.0000000000000000E+00 
    8.4374999999959199E-01     0.0000000000000000E+00     0.0000000000000000E+00 
    8.7499999999967359E-01     0.0000000000000000E+00     0.0000000000000000E+00 
    9.0624999999975520E-01     0.0000000000000000E+00     0.0000000000000000E+00 
    9.3749999999983680E-01     0.0000000000000000E+00     0.0000000000000000E+00 
    9.6874999999991840E-01     0.0000000000000000E+00     0.0000000000000000E+00 
    1.0000000000000000E+00     3.1249999999942091E-02     0.0000000000000000E+00 
    1.0000000000000000E+00     6.2499999999873469E-02     0.0000000000000000E+00 
    1.0000000000000000E+00     9.3749999999826514E-02     0.0000000000000000E+00 
    1.0000000000000000E+00     1.2499999999977961E-01     0.0000000000000000E+00 
    1.0000000000000000E+00     1.5624999999968961E-01     0.0000000000000000E+00 
    1.0000000000000000E+00     1.8749999999959971E-01     0.0000000000000000E+00 
    1.0000000000000000E+00     2.1874999999950970E-01     0.0000000000000000E+00 
    1.0000000000000000E+00     2.4999999999941969E-01     0.0000000000000000E+00 
    1.0000000000000000E+00     2.8124999999932920E-01     0.0000000000000000E+00 
    1.0000000000000000E+00     3.1249999999923850E-01     0.0000000000000000E+00 
    1.0000000000000000E+00     3.4374999999914790E-01     0.0000000000000000E+00 
    1.0000000000000000E+00     3.7499999999905720E-01     0.0000000000000000E+00 
    1.0000000000000000E+00     4.0624999999896660E-01     0.0000000000000000E+00 
    1.0000000000000000E+00     4.3749999999887590E-01     0.0000000000000000E+00 
    1.0000000000000000E+00     4.6874999999878530E-01     0.0000000000000000E+00 
    1.0000000000000000E+00     4.9999999999869471E-01     0.0000000000000000E+00 
    1.0000000000000000E+00     5.3124999999877620E-01     0.0000000000000000E+00 
    1.0000000000000000E+00     5.6249999999885780E-01     0.0000000000000000E+00 
    1.0000000000000000E+00     5.9374999999893940E-01     0.0000000000000000E+00 
    1.0000000000000000E+00     6.2499999999902101E-01     0.0000000000000000E+00 
    1.0000000000000000E+00     6.5624999999910261E-01     0.0000000000000000E+00 
    1.0000000000000000E+00     6.8749999999918421E-01     0.0000000000000000E+00 
    1.0000000000000000E+00     7.1874999999926570E-01     0.0000000000000000E+00 
    1.0000000000000000E+00     7.4999999999934730E-01     0.0000000000000000E+00 
    1.0000000000000000E+00     7.8124999999942890E-01     0.0000000000000000E+00 
    1.0000000000000000E+00     8.1249999999951039E-01     0.0000000000000000E+00 
    1.0000000000000000E+00     8.4374999999959199E-01     0.0000000000000000E+00 
    1.0000000000000000E+00     8.7499999999967359E-01     0.0000000000000000E+00 
    1.0000000000000000E+00     9.0624999999975520E-01     0.0000000000000000E+00 
    1.0000000000000000E+00     9.3749999999983680E-01     0.0000000000000000E+00 
    1.0000000000000000E+00     9.6874999999991840E-01     0.0000000000000000E+00 
    9.6875000000003686E-01     1.0000000000000000E+00     0.0000000000000000E+00 
    9.3750000000011691E-01     1.0000000000000000E+00     0.0000000000000000E+00 
    9.0625000000015765E-01     1.0000000000000000E+00     0.0000000000000000E+00 
    8.7500000000017863E-01     1.0000000000000000E+00     0.0000000000000000E+00 
    8.4375000000028044E-01     1.0000000000000000E+00     0.0000000000000000E+00 
    8.1250000000040856E-01     1.0000000000000000E+00     0.0000000000000000E+00 
    7.8125000000054956E-01     1.0000000000000000E+00     0.0000000000000000E+00 
    7.5000000000066480E-01     1.0000000000000000E+00     0.0000000000000000E+00 
    7.1875000000086831E-01     1.0000000000000000E+00     0.0000000000000000E+00 
    6.8750000000102829E-01     1.0000000000000000E+00     0.0000000000000000E+00 
    6.5625000000114431E-01     1.0000000000000000E+00     0.0000000000000000E+00 
    6.2500000000129829E-01     1.0000000000000000E+00     0.0000000000000000E+00 
    5.9375000000147926E-01     1.0000000000000000E+00     0.0000000000000000E+00 
    5.6250000000168354E-01     1.0000000000000000E+00     0.0000000000000000E+00 
    5.3125000000188671E-01     1.0000000000000000E+00     0.0000000000000000E+00 
    5.0000000000205835E-01     1.0000000000000000E+00     0.0000000000000000E+00 
    4.6875000000192979E-01     1.0000000000000000E+00     0.0000000000000000E+00 
    4.3750000000180111E-01     1.0000000000000000E+00     0.0000000000000000E+00 
    4.0625000000167238E-01     1.0000000000000000E+00     0.0000000000000000E+00 
    3.7500000000154382E-01     1.0000000000000000E+00     0.0000000000000000E+00 
    3.4375000000141509E-01     1.0000000000000000E+00     0.0000000000000000E+00 
    3.1250000000128642E-01     1.0000000000000000E+00     0.0000000000000000E+00 
    2.8125000000115769E-01     1.0000000000000000E+00     0.0000000000000000E+00 
    2.5000000000102918E-01     1.0000000000000000E+00     0.0000000000000000E+00 
    2.1875000000090050E-01     1.0000000000000000E+00     0.0000000000000000E+00 
    1.8750000000077180E-01     1.0000000000000000E+00     0.0000000000000000E+00 
    1.5625000000064329E-01     1.0000000000000000E+00     0.0000000000000000E+00 
    1.2500000000051459E-01     1.0000000000000000E+00     0.0000000000000000E+00 
    9.3750000000385914E-02     1.0000000000000000E+00     0.0000000000000000E+00 
    6.2500000000257239E-02     1.0000000000000000E+00     0.0000000000000000E+00 
    3.1250000000128557E-02     1.0000000000000000E+00     0.0000000000000000E+00 
    0.0000000000000000E+00     9.6875000000003686E-01     0.0000000000000000E+00 
    0.0000000000000000E+00     9.3750000000011691E-01     0.0000000000000000E+00 
    0.0000000000000000E+00     9.0625000000015765E-01     0.0000000000000000E+00 
    0.0000000000000000E+00     8.7500000000017863E-01     0.0000000000000000E+00 
    0.0000000000000000E+00     8.4375000000028044E-01     0.0000000000000000E+00 
    0.0000000000000000E+00     8.1250000000040856E-01     0.0000000000000000E+00 
    0.0000000000000000E+00     7.8125000000054956E-01     0.0000000000000000E+00 
    0.0000000000000000E+00     7.5000000000066480E-01     0.0000000000000000E+00 
    0.0000000000000000E+00     7.1875000000086831E-01     0.0000000000000000E+00 
    0.0000000000000000E+00     6.8750000000102829E-01     0.0000000000000000E+00 
    0.0000000000000000E+00     6.5625000000114431E-01     0.0000000000000000E+00 
    0.0000000000000000E+00     6.2500000000129829E-01     0.0000000000000000E+00 
    0.0000000000000000E+00     5.9375000000147926E-01     0.0000000000000000E+00 
    0.0000000000000000E+00     5.6250000000168354E-01     0.0000000000000000E+00 
    0.0000000000000000E+00     5.3125000000188671E-01     0.0000000000000000E+00 
    0.0000000000000000E+00     5.0000000000205835E-01     0.0000000000000000E+00 
    0.0000000000000000E+00     4.6875000000192979E-01     0.0000000000000000E+00 
    0.0000000000000000E+00     4.3750000000180111E-01     0.0000000000000000E+00 
    0.0000000000000000E+00     4.0625000000167238E-01     0.0000000000000000E+00 
[...]
CELL_DATA 2795 
SCALARS Pressure double 1 
LOOKUP_TABLE default 

    7.7829373147319050E+00 
    2.0581750058648872E+01 
    1.3024427547451367E+01 
    1.2591342859549711E+01 
    9.6927001568501119E+00 
    2.0005050689796221E+01 
    2.1528965470270510E+01 
    6.8923858276325145E+00 
    1.3760407106333076E+01 
    1.0319766164189030E+01 
    8.6864620610781316E+00 
    1.9569578816372932E+01 
    2.0275707315961039E+01 
    1.9951412496365315E+01 
    1.1905479689475788E+01 
    6.7691373467481917E+00 
    1.1385940198479879E+01 
    9.2925376378006916E+00 
    1.8851751331368355E+01 
    1.3004308700107604E+01 
    1.2859535547817522E+01 
    1.9813808385484659E+01 
    1.2170145782738425E+01 
    4.4726477180492519E-01 
    1.9633550376657293E+01 
    2.0359903176121836E+01 
    2.1609101054727212E+01 
    8.3295612162320545E+00 
    1.9411431587790737E+01 
    2.1681913484300821E+01 
    1.3290902699018023E+01 
    1.3293392170170412E+01 
    9.0228015991437722E+00 
    1.2973079608755514E+01 
    4.0224201772791002E+00 
    1.1392658860656747E+01 
    1.2955583161764544E+01 
    2.1751628463479904E+01 
    2.1491389116646054E+01 
    1.9591171145549716E+01 
    9.6032992805393960E+00 
    1.9730645327373011E+01 
    9.2830390440420951E-01 
    1.2959355067344010E+01 
    2.1142977446366256E+01 
    2.0756393954637200E+01 
    1.9552004259466230E+01 
    1.4318374008995427E+01 
    1.9559049149275669E+01 
    1.1682499895337347E+01 
    1.1055372846017447E+01 
    1.3247294831752974E+01 
    1.2806728196194410E+01 
    1.1461247685306411E+01 
    1.3403259719139326E+01 
    1.8452102034410384E+01 
    1.5870436330893121E+01 
    9.7480434112275116E+00 
    1.9839185533494465E+01 
    1.9682081804105067E+01 
    1.2597065583141246E+01 
    1.2481603096369312E+01 
    1.2440887758310565E+01 
    2.1504520332644073E+01 
    2.1940646746033707E+01 
    1.1401339431542661E+01 
    1.3245797536724982E+01 
    1.9146438869043209E+01 
    1.5641376748067989E+01 
    1.2533486038527323E+01 
    2.1890403552185166E+01 
    1.9952142695453908E+01 
    1.1218833358891544E+01 
    2.0921589944657267E+01 
    1.3769794349885117E+01 
    1.9428822170877641E+01 
    2.1805255492914380E+01 
    1.3802516941308538E+01 
    7.9216953395972824E+00 
    1.3270474936155393E+01 
    2.1496171353462078E+01 
    2.2022474357393083E+01 
    1.1447047198489981E+01 
    1.3162087793134681E+01 
    2.2089871688085299E+01 
    1.2956616089606920E+01 
    1.2306803217448650E+01 
    1.6350445760824034E+01 
    7.5447995027624239E+00 
    1.1089452199979425E+01 
    1.3160291046598655E+01 
    1.3968771852102419E+01 
    2.4272746533387650E+01 
    9.4034185326131414E+00 
    1.3256518751490832E+01 
    1.9521491143065195E+01 
    2.0172437790724363E+01 
    8.2024479078711146E+00 
    1.2773108271141027E+01 
    1.3202793596698166E+01 
    2.0224201531622111E+01 
    1.3199369537287824E+01 
    2.0075864323182497E+01 
    4.8621416598398337E+00 
    8.4350390121880565E+00 
    1.3553395058019758E+01 
    2.0609871359808629E+01 
    1.1336144233153037E+01 
    1.2267572455170665E+01 
    1.3175933292888095E+01 
    1.2263504473894169E+01 
    1.5314504912161370E+01 
    1.1874158599329350E+01 
    1.1227432137194571E+01 
    8.6506628730399875E+00 
    1.6359640041017773E+01 
    1.3297213631104780E+01 
    2.1373427415916019E+01 
    1.1285567758746087E+01 
    1.2564603312214446E+01 
    1.9966810512948886E+01 
    1.0195098400653876E+01 
    2.0803017375544496E+01 
    1.3060152164196912E+01 
    1.2456184713957702E+01 
    2.0187391064436667E+01 
    1.3287192028629203E+01 
    2.1757558401317986E+01 
    1.6389605392866574E+01 
    1.8138496762093510E+01 
    2.1644756679176275E+01 
    9.4216103443380401E+00 
    1.3580309636239054E+01 
    2.0275553773718709E+01 
    3.6137082709550197E+00 
    1.3369032612793909E+01 
    2.1574535245044284E+01 
    1.2502223673830246E+01 
    1.4897510474071279E+01 
    8.1242867833860437E+00 
    1.9564992692696670E+01 
    2.4945601471951125E+01 
    1.7203498777209600E+01 
    1.2499000947011869E+01 
    1.0947800414903041E+01 
    1.4405542754020543E+01 
    1.3083370205583142E+01 
    8.7774393129426880E+00 
    2.1651996671287161E+01 
    2.0201491466540308E+01 
    1.9527504514865949E+01 
    1.3979279023917744E+01 
    1.1181100778401440E+01 
    1.2855628071627120E+01 
    2.0950265827326209E+01 
    1.1539117120432433E+01 
    1.3210368955157904E+01 
    1.1802785012245343E+01 
    1.6041684438301012E+01 
    2.4930515729438138E+01 
    1.9498803448974318E+01 
    1.1107729220974571E+01 
    2.0584099260673600E+01 
    2.0526540263970066E+01 
    2.0681503821717264E+01 
    2.2445522000617260E+01 
    2.3291707244081490E+01 
    2.0688673099873739E+01 
    1.3234655419216402E+01 
    1.4612291153786463E+01 
    2.0312257013113847E+01 
    2.1323257507209281E+01 
    9.1774990389677296E+00 
    1.9541998563676891E+01 
    2.0850907781420023E+01 
    8.9287040785154606E+00 
    2.2348940829281375E+01 
    2.2271135680625274E+01 
    1.8973037958002305E+01 
    1.3678718905735419E+01 
    3.3193906289394302E+00 
    2.1587237837380766E+01 
    1.3468125426766772E+01 
    2.1921741651500881E+01 
    1.2398355594292736E+01 
    2.1201920234220132E+01 
    1.1622893774528322E+00 
    1.8127803150811143E+01 
    1.2542350188270929E+01 
    1.1121033952811333E+01 
    1.0798347501316655E+01 
    1.3017603142490794E+01 
    1.4720992435707018E+01 
    1.3885384268960236E+01 
    8.7828511586068654E+00 
    2.1348252529222069E+01 
    2.0351939161102663E+01 
    1.5827992029100354E+01 
    1.3540626277155344E+01 
    1.8152880732558230E+00 
    9.8879213432935007E+00 
    6.7019226401614569E+00 
    2.1710922619737499E+01 
    1.5146056118407548E+01 
    2.0125522639452328E+01 
    2.0457944489044358E+01 
    1.1700292663640040E+01 
    1.5995304152492421E+01 
    1.9488949405021767E+01 
    2.2254757474690251E+01 
    8.0967997484694170E+00 
    1.7294051907760952E+01 
    1.3849699666182463E+01 
    7.1570292044655455E+00 
    1.1665322366524444E+01 
    1.6915114584485032E+01 
    2.0398969566402350E+01 
    1.3090613465671526E+01 
    2.0625030853735517E+01 
    2.0145977060415454E+01 
    2.0065544506257321E+01 
    1.2863224870192548E+01 
    1.1067315872110314E+01 
    1.9547360616652355E+01 
    1.1212898939557638E+01 
    1.3207111071037591E+01 
    1.0958727931925138E+01 
    1.3140975095297497E+01 
    2.0459945025908361E+01 
    7.9401585927069043E+00 
    1.1532793940170599E+01 
    2.1507051423351953E+01 
    1.2878915814784490E+01 
    1.4981254589423697E+01 
    8.1454886857425262E+00 
    1.1310467462467756E+01 
    2.0097282873012933E+01 
    2.0732048238011018E+01 
    6.6458243218225705E+00 
    1.2889511006070229E+01 
    1.1028207999127247E+01 
    2.2941503300974137E+01 
    2.2048086393449633E+01 
    2.3345338625465605E+01 
    1.2917667885983693E+01 
    2.0432764133245708E+01 
    1.9381878238358997E+01 
    1.2735371415913855E+01 
    1.9520331799338067E+01 
    1.3540842984624955E+01 
    7.2539227411994522E+00 
    1.3421412601469067E+01 
    2.1547826501965091E+01 
    1.9512052037329184E+01 
    8.6335698765214115E+00 
    1.9559212445535081E+01 
    1.4763165332712431E+01 
    1.3339830585786057E+01 
    1.2620559505456209E+01 
    1.9238317537594728E+01 
    1.4148984762822302E+01 
    1.9549487906075218E+01 
    1.2863865994797074E+01 
    7.5207822848746391E+00 
    1.3304356466179431E+01 
    1.0817494308659873E+01 
    1.7242671456530772E+01 
    2.1839725832627252E+01 
    1.9557572254349974E+01 
    2.1551802571977177E+01 
    1.2804730214202221E+01 
    8.4102781204776900E+00 
    8.5342001765914119E+00 
    1.3628954721773859E+01 
    1.3173377712897127E+01 
    1.8248341851985905E+00 
    1.8503870726665426E+01 
    2.2520653727051322E+01 
    1.2417036349694520E+01 
    7.5811841983518056E+00 
    1.5763984140919041E+01 
    1.9545793605093802E+01 
    9.0921159572530463E+00 
    6.0399451955622316E+00 
    1.3144688596751866E+01 
    1.9761497435168735E+01 
    2.1220354026072968E+01 
    2.0694285909784433E+01 
    2.0755333511735355E+01 
    8.8556289354651678E+00 
    1.3327668418612991E+01 
    1.8890731881139939E+01 
    1.0118371016379193E+01 
    2.0251217471055011E+01 
    1.6367730371948458E+01 
    8.6614584814852549E+00 
    1.9642334284855977E+01 
    2.1740747242781591E+01 
    1.9875068138025188E+01 
    8.7390923503049187E+00 
    1.3240627031359780E+01 
    9.6615751578682989E+00 
    1.2444787592319203E+01 
    1.9541765435267735E+01 
    1.9524685857359572E+01 
    8.7910497961856411E+00 
    2.1262414082121364E+01 
    1.4051227931913635E+01 
    1.9660416818415545E+01 
    2.1412551442366826E+01 
    1.9599565520076755E+01 
    1.7617088735415024E+01 
    2.3046028722961939E+01 
    1.2354626687038182E+01 
    2.1491227098033399E+01 
    1.9664529850278022E+01 
    2.1651095233174519E+01 
    2.1234926859332951E+01 
    1.2506152924324699E+01 
    1.3011365845607912E+01 
    1.2401844982289239E+01 
    1.6721254280559005E+01 
    4.8856734308441769E+00 
    1.3529317277427621E+01 
    2.3231189486963427E+01 
    1.3548848752218362E+01 
    1.3849524530124839E+01 
    2.1588875606274648E+01 
    2.2025089037903950E+01 
    1.2267776625204601E+01 
    1.9562527975609662E+01 
    1.9533061784827979E+01 
    1.3829220305215529E+01 
    2.1129223441634732E+01 
    9.1233026406211817E+00 
    5.7826909590911724E+00 
    1.4286744940117700E+01 
    1.3567270204097426E+01 
    1.9503889122125479E+01 
    8.1815070544435553E+00 
    2.0529021934725701E+01 
    5.8973202053984144E+00 
    1.3477851039707431E+01 
    1.2580274475849414E+01 
    1.3209205173767034E+01 
    2.4991444740812760E+01 
    4.7380141883294575E+00 
    1.3397434738285066E+01 
    1.6746277559169560E+01 
    1.2666886988552946E+01 
    9.7384100114636709E+00 
    2.0802290705868163E+01 
    2.4393463332740367E+01 
    2.1188198730983061E+01 
    1.3304490433130439E+01 
    7.1160227172562136E+00 
    2.4235200569515580E+01 
    2.0293922542624461E+01 
    9.2747266177088719E+00 
    1.2726593368524503E+01 
    2.2412754477085215E+01 
    4.0162737376990139E+00 
    1.3650852912217564E+01 
    2.1219737353309046E+01 
    1.3227772600224883E+01 
    1.1403317279750814E+01 
    1.3460828792439482E+01 
    1.9047014948702746E+01 
    1.3202739078008314E+01 
    6.2978676916087615E+00 
    1.1474348106600036E+00 
    9.6102160659867195E+00 
    2.2800508165170633E+01 
    1.2399684459062712E+01 
    1.5445691423424863E+01 
    1.4641740291716824E+01 
    1.7368836027138162E+01 
    1.3245759250356263E+01 
    2.0102344787784549E+01 
    2.5008281366599810E+01 
    1.6215279601372409E+01 
    2.1426626496179029E+01 
    6.6951809348232283E-01 
    1.9523499129088368E+01 
    7.0127210432200640E+00 
    2.3475040283069397E+01 
    1.3419152669539512E+01 
    1.1608855276067411E+01 
    9.8678420069664696E+00 
    6.6352922976004187E+00 
    1.5041744673927083E+01 
    1.0226031408161390E+01 
    1.7058022480747624E+01 
    2.7848815338223325E+00 
    1.4823713016823477E+01 
    1.9367745066108203E+01 
    7.7329478036417116E+00 
    2.0423916262535268E+01 
    2.3069554011895796E+01 
    2.0220566095891371E+01 
    1.3209677601722102E+01 
    1.3201856763661702E+01 
    1.3407518369863991E+01 
    7.2170429119893793E+00 
    1.1967603434993189E+01 
    1.1720954841066282E+01 
    1.3390092731009400E+01 
    1.2298388992454004E+01 
    8.5845352812814790E-01 
    8.0859251370137333E+00 
    1.2900823841539989E+01 
    1.3351079389619613E+01 
    1.7673784233923314E+01 
    2.6232603560331258E+00 
    1.3764070280261228E+01 
    1.3578584626213798E+01 
    4.5538104382809479E+00 
    1.9932207843451831E+01 
    1.1263049017686940E+01 
    1.3382894433429893E+01 
    2.0249450831894539E+01 
    6.6550974735869444E+00 
    2.0110717530648611E+01 
    1.1404086963163742E+01 
    1.1805498389014422E+00 
    1.2496012453621985E+01 
    2.1370796451703409E+01 
    1.9537927903128928E+01 
    1.9582308990256156E+01 
    1.3957103058276910E+01 
    1.3481706824316536E+01 
    1.1220924522448852E+01 
    8.8260618526620842E+00 
    2.0415457668585635E+01 
    1.2718777313481146E+01 
    8.5813461167784677E+00 
    1.9563698532633730E+01 
    2.0978315527813127E+01 
    1.3664098264627841E+01 
    1.2944171191804257E+01 
    2.4858973831445450E+01 
    1.3830783811019483E+01 
    2.0519380320722846E+01 
    1.0592037709927947E+01 
    2.5038190808497223E+01 
    8.4841532573907443E+00 
    1.1879322450397350E+01 
    9.5500241425788843E+00 
    1.4206927042696346E+01 
    1.1073235021422091E+01 
    2.5019644928055186E+01 
    1.3908830833635255E+01 
    1.9032057926582965E+01 
    8.7280896550647977E+00 
    1.3240528441718347E+01 
    2.0246148261742320E+01 
    1.1112369245664667E+01 
    9.2098120093538451E+00 
    1.5279768089660800E+01 
    2.0406206013826253E+01 
    9.4175631774721698E+00 
    1.2610737292845940E+01 
    1.2989140559099271E+01 
    1.9484059201629091E+01 
    1.2703908135249316E+01 
    2.0684928877747026E+01 
    2.1717371152817087E+01 
    1.1248229685980903E+01 
    1.0998108055212773E+01 
    1.0284845090388417E+01 
    1.9725015625325035E+01 
    1.3593753848448095E+01 
    2.4445961458748936E+01 
    1.7877013269506680E+01 
    2.0141013279091155E+01 
    2.4052671905804015E+01 
    2.3059619371055405E+01 
    1.3302820451928635E+01 
    1.3366425446114558E+01 
    1.8989787801539475E+01 
    1.9584765948969302E+01 
    2.0714620058794718E+01 
    2.0316485817556792E+01 
    2.4886979032612945E+01 
    1.3829997903629877E+01 
    1.1419326275948627E+01 
    1.3779392765940326E+01 
    2.1515296089654935E+01 
    1.3432778807324652E+01 
    7.5438178306699868E+00 
    1.3184690144940561E+01 
    2.2379213652459917E+01 
    1.3635021372817850E+01 
    1.1416271751406359E+01 
    1.2907295650417119E+01 
    2.2553470882526256E+01 
    1.9896651581089930E+01 
    1.0761941197405390E+01 
    2.2769437729166963E+01 
    1.3341939439894105E+01 
    2.0863702211701639E+01 
    2.2565906928274927E+01 
    1.4318388106564310E+01 
    6.6677791980927363E+00 
    1.5039985325958131E+01 
    6.9060156885506654E+00 
    1.3500991363539038E+01 
    1.3230982724870511E+01 
    1.6061009567743231E+01 
    7.3234717029374083E+00 
    1.7359845488860739E+01 
    1.3256816355029619E+01 
    2.0306778607350054E+01 
    1.4496384175124117E+01 
    1.0463911689293148E+01 
    1.2726000096255602E+01 
    1.4202635890923572E+01 
    1.3998309697598089E+01 
    2.1886794533128217E+01 
    1.0822267505914963E+01 
    1.0612546631788694E+01 
    7.7266965232819809E+00 
    2.0805570208971933E+01 
    1.2785882023117285E+01 
    1.9429668259180247E+01 
    1.3190648531670730E+01 
    8.5056034823465154E+00 
    1.9879654502499147E+01 
    1.3157720890826571E+01 
    9.3434564961596021E+00 
    9.9519876551821813E+00 
    1.0338931223552972E+01 
    2.0341895603449206E+01 
    1.3393216969775334E+01 
    2.1439403729631305E+01 
    1.3102160123659340E+01 
    1.3018095104187916E+01 
    1.2483108131823890E+01 
    2.0041312735497300E+01 
    1.2903469708256175E+01 
    1.0391131746660324E+01 
    2.3050803909307586E+01 
    2.0184115169524407E+01 
    8.8988647123221423E+00 
    3.3125524696462088E+00 
    1.3376398007308657E+01 
    1.2331232354333771E+01 
    1.0988687914412782E+01 
    1.2180569825962680E+01 
    1.9850047850249858E+01 
    1.2923547696765571E+01 
    1.1515267302059579E+01 
    1.9626074174916045E+01 
    8.8189050142563783E+00 
    1.8930563977295371E+01 
    1.1881017328246877E+01 
    1.0300824428995801E+01 
    1.1116818704028837E+01 
    2.1025811875017887E+01 
    1.3213075409145818E+01 
    1.3224094139361464E+01 
    7.4429256309254885E+00 
    8.0931105457616521E+00 
    1.7792687929825775E+01 
    1.3237359340134354E+01 
    1.3439743439983749E+01 
    2.2756653954158491E+01 
    1.0617918865520860E+01 
    1.3253972706999637E+01 
    9.1450197035570699E+00 
    9.4582634264566749E+00 
    1.9967968105141733E+01 
    1.2745267122724291E+01 
    8.9856747761497253E+00 
    1.3980480833072690E+01 
    1.3089492216027011E+01 
    1.9998577861492183E+01 
    2.2902139603942125E+01 
    1.2474707023890232E+00 
    1.3384066985126996E+01 
    1.3565596665362792E+01 
    2.0160933925015133E+01 
    1.2607347557935197E+01 
    1.3177237859358558E+01 
    2.1931918933458537E+01 
    1.1151340069789079E+01 
    9.0709591236499580E+00 
    1.6537586773872338E+01 
    1.9556796019661594E+01 
    2.1646700586937204E+01 
    2.2194985874922786E+01 
    1.3137715250268700E+01 
    1.3371107281166671E+01 
    1.5121671389492636E+01 
    8.4350755096467243E+00 
    1.9759097588605634E+01 
    9.8282476151231037E+00 
    8.8019722240920313E+00 
    1.7340494372090337E+01 
    1.6052605510715424E+01 
    8.6234313421742961E+00 
    1.9614331816366199E+01 
    2.1616158746085411E+01 
    1.3855640380859693E+01 
    2.3062774803203368E+01 
    1.9665096473168088E+01 
    1.2718039377163652E+01 
    2.0986683787346912E+01 
    9.4575902341892473E+00 
    1.9572522667699207E+01 
    1.3382570229706387E+01 
    1.3320623610993751E+01 
    2.3035506276428940E+01 
    1.2836177481333147E+01 
    1.6877780869427646E+01 
    1.1081463127788883E+01 
    2.1864124932851148E+01 
    1.9390006591928582E+01 
    1.1627436940071542E+01 
    1.9549976775930229E+01 
    1.1881262472058925E+01 
    1.3189225929163038E+01 
    2.1529052875669645E+01 
    2.0251253270950134E+01 
    2.1621764508994890E+01 
    2.0160225448237178E+01 
    1.1996824052888435E+01 
    1.2344764402210565E+01 
    2.1637341764524027E+01 
    1.2537159932099122E+01 
    1.9197387482550610E+01 
    1.2817813743662327E+01 
    4.9344969613883976E+00 
    8.9031746727534724E+00 
    8.2291771359499268E+00 
    2.1532444285813401E+01 
    2.2916568472376724E+01 
    1.9561310712682918E+01 
    1.5663441765384084E+01 
    2.0044534626033741E+01 
    1.9616319329380179E+01 
    2.0749587382192463E+01 
    7.1659179654428140E+00 
    4.5833562762925046E+00 
    1.5303090805066107E+01 
    1.2851270507895958E+01 
    1.9869045739434384E+01 
    1.9866961132659107E+01 
    1.3592606414804237E+01 
    1.9928016617584937E+01 
    1.3362282997964041E+01 
    1.3209368752531528E+01 
    6.4363497960945404E+00 
    4.5570925636161776E+00 
    2.2541759729992425E+01 
    1.0097897223316211E+01 
    1.1545742898222775E+01 
    1.3449715449807597E+01 
    2.4862557513067422E+01 
    1.3579569181106232E+01 
    1.3832468209488507E+01 
    5.2493354981441920E+00 
    1.3579347845877848E+01 
    1.3599557841069490E+01 
    2.0468758020527545E+01 
    1.1129612778817275E+01 
    1.2604107334647312E+01 
    2.2821294467145151E+01 
    1.3397048562062011E+01 
    1.9580433256170167E+01 
    2.0011553430848284E+01 
    1.6977592047746025E+01 
    1.1065481959944812E+01 
    2.0151403002842194E+01 
    1.3071685265074544E+01 
    1.9922154298153629E+01 
    1.9453708365525259E+01 
    2.1578088260177342E+01 
    2.0181919803443570E+01 
    1.8165524336121628E+01 
    1.3379624860179916E+01 
    8.5596125016372024E+00 
    2.4697877470571118E+01 
    1.0051810530502214E+01 
    2.1539629271649119E+01 
    1.3375532349502684E+01 
    1.0703902270485742E+01 
    6.2216741142477119E+00 
    1.3652363194783449E+01 
    2.0136055320746387E+01 
    2.0105758390075977E+01 
    1.3162990570348560E+01 
    1.3366321889799808E+01 
    2.3118940980257833E+01 
    2.2094281738035829E+01 
    1.3608538967571711E+01 
    4.2649163219866706E+00 
    1.8006302381827826E+01 
    2.5013861884357638E+01 
    1.3384870906156308E+01 
    1.6293079516760276E+01 
    1.2603920054958451E+01 
    2.4510145495575081E+01 
    2.2232659564777332E+01 
    2.1757763558772957E+01 
    1.3641095336273125E+01 
    5.8306911924657046E+00 
    1.2539308465391146E+01 
    1.2641857957358017E+01 
    1.2710604108949161E+01 
    4.6774358058365921E+00 