# vtk DataFile Version 2.0
Pressure Field Data 
ASCII 
DATASET UNSTRUCTURED_GRID 

POINTS 2860 double 

    0.0000000000000000E+00     0.0000000000000000E+00     0.0000000000000000E+00 
    1.0000000000000000E+00     0.0000000000000000E+00     0.0000000000000000E+00 
    1.0000000000000000E+00     1.0000000000000000E+00     0.0000000000000000E+00 
    0.0000000000000000E+00     1.0000000000000000E+00     0.0000000000000000E+00 
    2.5000000000000000E-01     2.5000000000000000E-01     0.0000000000000000E+00 
    7.5000000000000000E-01     2.5000000000000000E-01     0.0000000000000000E+00 
    7.5000000000000000E-01     7.5000000000000000E-01     0.0000000000000000E+00 
    2.5000000000000000E-01     7.5000000000000000E-01     0.0000000000000000E+00 
    3.1249999999942091E-02     0.0000000000000000E+00     0.0000000000000000E+00 
    6.2499999999873469E-02     0.0000000000000000E+00     0.0000000000000000E+00 
    9.3749999999826514E-02     0.0000000000000000E+00     0.0000000000000000E+00 
    1.2499999999977961E-01     0.0000000000000000E+00     0.0000000000000000E+00 
    1.5624999999968961E-01     0.0000000000000000E+00     0.0000000000000000E+00 
    1.8749999999959971E-01     0.0000000000000000E+00     0.0000000000000000E+00 
    2.1874999999950970E-01     0.0000000000000000E+00     0.0000000000000000E+00 
    2.4999999999941969E-01     0.0000000000000000E+00     0.0000000000000000E+00 
    2.8124999999932920E-01     0.0000000000000000E+00     0.0000000000000000E+00 
    3.1249999999923850E-01     0.0000000000000000E+00     0.0000000000000000E+00 
    3.4374999999914790E-01     0.0000000000000000E+00     0.0000000000000000E+00 
    3.7499999999905720E-01     0.0000000000000000E+00     0.0000000000000000E+00 
    4.0624999999896660E-01     0.0000000000000000E+00     0.0000000000000000E+00 
    4.3749999999887590E-01     0.0000000000000000E+00     0.0000000000000000E+00 
    4.6874999999878530E-01     0.0000000000000000E+00     0.0000000000000000E+00 
    4.9999999999869471E-01     0.0000000000000000E+00     0.0000000000000000E+00 
    5.3124999999877620E-01     0.0000000000000000E+00     0.0000000000000000E+00 
    5.6249999999885780E-01     0.0000000000000000E+00     0.0000000000000000E+00 
    5.9374999999893940E-01     0.0000000000000000E+00     0.0000000000000000E+00 
    6.2499999999902101E-01     0.0000000000000000E+00     0.0000000000000000E+00 
    6.5624999999910261E-01     0.0000000000000000E+00     0.0000000000000000E+00 
    6.8749999999918421E-01     0.0000000000000000E+00     0.0000000000000000E+00 
    7.1874999999926570E-01     0.0000000000000000E+00     0.0000000000000000E+00 
    7.4999999999934730E-01     0.0000000000000000E+00     0.0000000000000000E+00 
    7.8124999999942890E-01     0.0000000000000000E+00     0.0000000000000000E+00 
    8.1249999999951039E-01     0.0000000000000000E+00     0.0000000000000000E+00 
    8.4374999999959199E-01     0.0000000000000000E+00     0.0000000000000000E+00 
    8.7499999999967359E-01     0.0000000000000000E+00     0.0000000000000000E+00 
    9.0624999999975520E-01     0.0000000000000000E+00     0.0000000000000000E+00 
    9.3749999999983680E-01     0.0000000000000000E+00     0.0000000000000000E+00 
    9.6874999999991840E-01     0.0000000000000000E+00     0.0000000000000000E+00 
    1.0000000000000000E+00     3.1249999999942091E-02     0.0000000000000000E+00 
    1.0000000000000000E+00     6.2499999999873469E-02     0.0000000000000000E+00 
    1.0000000000000000E+00     9.3749999999826514E-02     0.0000000000000000E+00 
    1.0000000000000000E+00     1.2499999999977961E-01     0.0000000000000000E+00 
    1.0000000000000000E+00     1.5624999999968961E-01     0.0000000000000000E+00 
    1.0000000000000000E+00     1.8749999999959971E-01     0.0000000000000000E+00 
    1.0000000000000000E+00     2.1874999999950970E-01     0.0000000000000000E+00 
    1.0000000000000000E+00     2.4999999999941969E-01     0.0000000000000000E+00 
    1.0000000000000000E+00     2.8124999999932920E-01     0.0000000000000000E+00 
    1.0000000000000000E+00     3.1249999999923850E-01     0.0000000000000000E+00 
    1.0000000000000000E+00     3.4374999999914790E-01     0.0000000000000000E+00 
    1.0000000000000000E+00     3.7499999999905720E-01     0.0000000000000000E+00 
    1.0000000000000000E+00     4.0624999999896660E-01     0.0000000000000000E+00 
    1.0000000000000000E+00     4.3749999999887590E-01     0.0000000000000000E+00 
    1.0000000000000000E+00     4.6874999999878530E-01     0.0000000000000000E+00 
    1.0000000000000000E+00     4.9999999999869471E-01     0.0000000000000000E+00 
    1.0000000000000000E+00     5.3124999999877620E-01     0.0000000000000000E+00 
    1.0000000000000000E+00     5.6249999999885780E-01     0.0000000000000000E+00 
    1.0000000000000000E+00     5.9374999999893940E-01     0.0000000000000000E+00 
    1.0000000000000000E+00     6.2499999999902101E-01     0.0000000000000000E+00 
    1.0000000000000000E+00     6.5624999999910261E-01     0.0000000000000000E+00 
    1.0000000000000000E+00     6.8749999999918421E-01     0.0000000000000000E+00 
    1.0000000000000000E+00     7.1874999999926570E-01     0.0000000000000000E+00 
    1.0000000000000000E+00     7.4999999999934730E-01     0.0000000000000000E+00 
    1.0000000000000000E+00     7.8124999999942890E-01     0.0000000000000000E+00 
    1.0000000000000000E+00     8.1249999999951039E-01     0.0000000000000000E+00 
    1.0000000000000000E+00     8.4374999999959199E-01     0.0000000000000000E+00 
    1.0000000000000000E+00     8.7499999999967359E-01     0.0000000000000000E+00 
    1.0000000000000000E+00     9.0624999999975520E-01     0.0000000000000000E+00 
    1.0000000000000000E+00     9.3749999999983680E-01     0.0000000000000000E+00 
    1.0000000000000000E+00     9.6874999999991840E-01     0.0000000000000000E+00 
    9.6875000000003686E-01     1.0000000000000000E+00     0.0000000000000000E+00 
    9.3750000000011691E-01     1.0000000000000000E+00     0.0000000000000000E+00 
    9.0625000000015765E-01     1.0000000000000000E+00     0.0000000000000000E+00 
    8.7500000000017863E-01     1.0000000000000000E+00     0.0000000000000000E+00 
    8.4375000000028044E-01     1.0000000000000000E+00     0.0000000000000000E+00 
    8.1250000000040856E-01     1.0000000000000000E+00     0.0000000000000000E+00 
    7.8125000000054956E-01     1.0000000000000000E+00     0.0000000000000000E+00 
    7.5000000000066480E-01     1.0000000000000000E+00     0.0000000000000000E+00 
    7.1875000000086831E-01     1.0000000000000000E+00     0.0000000000000000E+00 
    6.8750000000102829E-01     1.0000000000000000E+00     0.0000000000000000E+00 
    6.5625000000114431E-01     1.0000000000000000E+00     0.0000000000000000E+00 
    6.2500000000129829E-01     1.0000000000000000E+00     0.0000000000000000E+00 
    5.9375000000147926E-01     1.0000000000000000E+00     0.0000000000000000E+00 
    5.6250000000168354E-01     1.0000000000000000E+00     0.0000000000000000E+00 
    5.3125000000188671E-01     1.0000000000000000E+00     0.0000000000000000E+00 
    5.0000000000205835E-01     1.0000000000000000E+00     0.0000000000000000E+00 
    4.6875000000192979E-01     1.0000000000000000E+00     0.0000000000000000E+00 
    4.3750000000180111E-01     1.0000000000000000E+00     0.0000000000000000E+00 
    4.0625000000167238E-01     1.0000000000000000E+00     0.0000000000000000E+00 
    3.7500000000154382E-01     1.0000000000000000E+00     0.0000000000000000E+00 
    3.4375000000141509E-01     1.0000000000000000E+00     0.0000000000000000E+00 
    3.1250000000128642E-01     1.0000000000000000E+00     0.0000000000000000E+00 
    2.8125000000115769E-01     1.0000000000000000E+00     0.0000000000000000E+00 
    2.5000000000102918E-01     1.0000000000000000E+00     0.0000000000000000E+00 
    2.1875000000090050E-01     1.0000000000000000E+00     0.0000000000000000E+00 
    1.8750000000077180E-01     1.0000000000000000E+00     0.0000000000000000E+00 
    1.5625000000064329E-01     1.0000000000000000E+00     0.0000000000000000E+00 
    1.2500000000051459E-01     1.0000000000000000E+00     0.0000000000000000E+00 
    9.3750000000385914E-02     1.0000000000000000E+00     0.0000000000000000E+00 
    6.2500000000257239E-02     1.0000000000000000E+00     0.0000000000000000E+00 
    3.1250000000128557E-02     1.0000000000000000E+00     0.0000000000000000E+00 
    0.0000000000000000E+00     9.6875000000003686E-01     0.0000000000000000E+00 
    0.0000000000000000E+00     9.3750000000011691E-01     0.0000000000000000E+00 
    0.0000000000000000E+00     9.0625000000015765E-01     0.0000000000000000E+00 
    0.0000000000000000E+00     8.7500000000017863E-01     0.0000000000000000E+00 
    0.0000000000000000E+00     8.4375000000028044E-01     0.0000000000000000E+00 
    0.0000000000000000E+00     8.1250000000040856E-01     0.0000000000000000E+00 
    0.0000000000000000E+00     7.8125000000054956E-01     0.0000000000000000E+00 
    0.0000000000000000E+00     7.5000000000066480E-01     0.0000000000000000E+00 
    0.0000000000000000E+00     7.1875000000086831E-01     0.0000000000000000E+00 
    0.0000000000000000E+00     6.8750000000102829E-01     0.0000000000000000E+00 
    0.0000000000000000E+00     6.5625000000114431E-01     0.0000000000000000E+00 
    0.0000000000000000E+00     6.2500000000129829E-01     0.0000000000000000E+00 
    0.0000000000000000E+00     5.9375000000147926E-01     0.0000000000000000E+00 
    0.0000000000000000E+00     5.6250000000168354E-01     0.0000000000000000E+00 
    0.0000000000000000E+00     5.3125000000188671E-01     0.0000000000000000E+00 
    0.0000000000000000E+00     5.0000000000205835E-01     0.0000000000000000E+00 
    0.0000000000000000E+00     4.6875000000192979E-01     0.0000000000000000E+00 
    0.0000000000000000E+00     4.3750000000180111E-01     0.0000000000000000E+00 
    0.0000000000000000E+00     4.0625000000167238E-01     0.0000000000000000E+00 
[...]
CELL_DATA 2795 
SCALARS Pressure double 1 
LOOKUP_TABLE default 

    5.2109164325150727E+00 
    1.1749393815515132E+01 
    8.3123524361002428E+00 
    7.9470087591760663E+00 
    6.3630286625919616E+00 
    1.1651934268197856E+01 
    1.2268819151842752E+01 
    4.6668855006004444E+00 
    8.7803831300823401E+00 
    6.6883138457208151E+00 
    5.6887346491073130E+00 
    1.1440306649433225E+01 
    1.1665541954471676E+01 
    1.1625945544570380E+01 
    7.6344071750569613E+00 
    4.5874013863673140E+00 
    7.3221713415767855E+00 
    6.0615669406947044E+00 
    1.1141576020869937E+01 
    8.3075607823431614E+00 
    8.1995111245801375E+00 
    1.1571802327368639E+01 
    7.7260746544855738E+00 
    3.1639117569874226E-01 
    1.1415128153846991E+01 
    1.1644492263486486E+01 
    1.2296935357486559E+01 
    5.4748854004685139E+00 
    1.1374452985606114E+01 
    1.2284365005617049E+01 
    8.4134288089274687E+00 
    8.5305574891845026E+00 
    5.8806996388646766E+00 
    8.2741672494214775E+00 
    2.7115056708456957E+00 
    7.3243756709748187E+00 
    8.2662077982449276E+00 
    1.2318939958466949E+01 
    1.2250327547216649E+01 
    1.1451167397985882E+01 
    6.3044783133891427E+00 
    1.1397439918720099E+01 
    6.5599005264339461E-01 
    8.1579205749104808E+00 
    1.2084365443357074E+01 
    1.1941469774516165E+01 
    1.1431416625138851E+01 
    9.0824226346610359E+00 
    1.1490414647264958E+01 
    7.4861789084866395E+00 
    7.1408371105432256E+00 
    8.4960754411070845E+00 
    8.0545143688077943E+00 
    7.3645602027492236E+00 
    8.4898040906812611E+00 
    1.0969007237796596E+01 
    9.9162496141522691E+00 
    6.3961483329687967E+00 
    1.1574971415278682E+01 
    1.1512598660010328E+01 
    8.0033438058679707E+00 
    7.9754927917176035E+00 
    7.8661908884735876E+00 
    1.2200093144526372E+01 
    1.2423304318825819E+01 
    7.3317041533087526E+00 
    8.4942264137999430E+00 
    1.1358931909213519E+01 
    9.7261283174077757E+00 
    8.0059717051314738E+00 
    1.2436910236680221E+01 
    1.1510023439344300E+01 
    7.2294757082567314E+00 
    1.2024149521891349E+01 
    8.7303039709422610E+00 
    1.1291609764255739E+01 
    1.2331599210752540E+01 
    8.5788316355474095E+00 
    5.2557470935269208E+00 
    8.5101478214496353E+00 
    1.2256818136341591E+01 
    1.2454672101815312E+01 
    7.3493985629978082E+00 
    8.4288025646281621E+00 
    1.2495317213614223E+01 
    8.2715690641877551E+00 
    7.7969380325840651E+00 
    1.0063151643075280E+01 
    5.0500645863384079E+00 
    7.1618893428729145E+00 
    8.4300851080130776E+00 
    8.8961651072056576E+00 
    1.3819541618691114E+01 
    6.1875634932906625E+00 
    8.5010810838133182E+00 
    1.1413520038716731E+01 
    1.1623804852552405E+01 
    5.4653219461306186E+00 
    8.1477844428423136E+00 
    8.4593613050093950E+00 
    1.1641585589965942E+01 
    8.4622861996234278E+00 
    1.1583466672482048E+01 
    3.3564670169210471E+00 
    5.5280371297955426E+00 
    8.6866961289819464E+00 
    1.1757100118383780E+01 
    7.2954326257375932E+00 
    7.8235720250152969E+00 
    8.4483711749462724E+00 
    7.7749003093936224E+00 
    9.6348125427173219E+00 
    7.5991234365204923E+00 
    7.2361090553997212E+00 
    5.7254984949770176E+00 
    9.8177287836382572E+00 
    8.5326397682487674E+00 
    1.2124836210094450E+01 
    7.2817194803816898E+00 
    7.9383282233329568E+00 
    1.1500714475939008E+01 
    6.6498022373208574E+00 
    1.1885519288382660E+01 
    8.3506574296776890E+00 
    7.8753242934503662E+00 
    1.1625948060731988E+01 
    8.5213870478276466E+00 
    1.2340868683365384E+01 
    1.0072823691583114E+01 
    1.0845037403820150E+01 
    1.2311538332130558E+01 
    6.1993555652171670E+00 
    8.7013442932750973E+00 
    1.1629187025496689E+01 
    2.5212286760471327E+00 
    8.4674091941526157E+00 
    1.2282781434822814E+01 
    7.9049055015957688E+00 
    9.1153599134014893E+00 
    5.3997005398006159E+00 
    1.1413887220122859E+01 
    1.4274691482579824E+01 
    1.0453738266600125E+01 
    7.8980118488317279E+00 
    7.0792238287679758E+00 
    9.1103043729131858E+00 
    8.3673031095290860E+00 
    5.7513155783479393E+00 
    1.2305258437713888E+01 
    1.1723269695039811E+01 
    1.1415075065847979E+01 
    8.9107163580376696E+00 
    7.2100037575918909E+00 
    8.1993308598432435E+00 
    1.2047576161004033E+01 
    7.4031981672027358E+00 
    8.2834605485452801E+00 
    7.5357312885289920E+00 
    9.6186413015494736E+00 
    1.4263661635230653E+01 
    1.1407616238452377E+01 
    7.1501612871126641E+00 
    1.1789984752274256E+01 
    1.1721691827566943E+01 
    1.1790840975256730E+01 
    1.2668485142900451E+01 
    1.3156637501788637E+01 
    1.1936405303182060E+01 
    8.4869693565379514E+00 
    9.0098425193336347E+00 
    1.1790854177846608E+01 
    1.2137347341326389E+01 
    5.9934661702034369E+00 
    1.1430855307432843E+01 
    1.2014772314464244E+01 
    5.8454422495592153E+00 
    1.2586951928341026E+01 
    1.2579682004419759E+01 
    1.1198891362165520E+01 
    8.7543440251637943E+00 
    2.2472548527436373E+00 
    1.2280360784267017E+01 
    8.6363560656005127E+00 
    1.2385126036895407E+01 
    7.8505050866628014E+00 
    1.2134173695408663E+01 
    7.9720243748657238E-01 
    1.0860042519566942E+01 
    8.0116545678169082E+00 
    7.1770072925562216E+00 
    6.9972646207584264E+00 
    8.3217061236975383E+00 
    9.3323394576974401E+00 
    8.6017741180300717E+00 
    5.7748485791583963E+00 
    1.2131201052882869E+01 
    1.1650748219187427E+01 
    9.8293210725280264E+00 
    8.6791425526159642E+00 
    1.2904781918330193E+00 
    6.4780583970440606E+00 
    4.5104362733290451E+00 
    1.2294595853203983E+01 
    9.4753967734490061E+00 
    1.1706050580235518E+01 
    1.1707446111782994E+01 
    7.4866715770514984E+00 
    9.8701064763846738E+00 
    1.1410521329736769E+01 
    1.2565359412677930E+01 
    5.3972141047473379E+00 
    1.0279284674064122E+01 
    8.6392767787181892E+00 
    4.8115248607619252E+00 
    7.4633099523714757E+00 
    1.0281517046714834E+01 
    1.1674736238433836E+01 
    8.3774906517010201E+00 
    1.1770988449397423E+01 
    1.1567470320046592E+01 
    1.1524638115372946E+01 
    8.2071545630515299E+00 
    7.1455158261876752E+00 
    1.1422494473224900E+01 
    7.2269710094566042E+00 
    8.4662335592096358E+00 
    7.0889732925102855E+00 
    8.2324734663302479E+00 
    1.1714878897231456E+01 
    5.2128014257923843E+00 
    7.3932843220728737E+00 
    1.2222129461576348E+01 
    8.2220264416565403E+00 
    9.3736727317830137E+00 
    5.3492191395354638E+00 
    7.2741205717646249E+00 
    1.1548890621900599E+01 
    1.1819460527475977E+01 
    4.3793377412993353E+00 
    8.2227517120278062E+00 
    7.1247927319898210E+00 
    1.2943808598704972E+01 
    1.2462493261163974E+01 
    1.3179206549890393E+01 
    8.2434750184218650E+00 
    1.1692234484580371E+01 
    1.1374849552753545E+01 
    8.1269953650778657E+00 
    1.1415038443808118E+01 
    8.6791102069240260E+00 
    4.8452777219697580E+00 
    8.4325930145156942E+00 
    1.2208516537442298E+01 
    1.1412312958857822E+01 
    5.6620113015047684E+00 
    1.1436687162391907E+01 
    9.3382435632676533E+00 
    8.4514221629678019E+00 
    7.9814275644011810E+00 
    1.1301840568715061E+01 
    8.9389471019413005E+00 
    1.1426380480398409E+01 
    8.1146087614055826E+00 
    4.9682163543808953E+00 
    8.5307223036991147E+00 
    7.0052857250251632E+00 
    1.0455495882861594E+01 
    1.2384753622468377E+01 
    1.1422018693672328E+01 
    1.2276248496328984E+01 
    8.1738604567701554E+00 
    5.5169639530226808E+00 
    5.5935181046013787E+00 
    8.6426417036815604E+00 
    8.4439588906850602E+00 
    1.2315979361724991E+00 
    1.1010528828760917E+01 
    1.2693929165828091E+01 
    7.8560700054132377E+00 
    5.0797089274818932E+00 
    9.5611457452882647E+00 
    1.1435380977928913E+01 
    6.0001065913556415E+00 
    4.1152122431101841E+00 
    8.4191564987219021E+00 
    1.1525394376774193E+01 
    1.2047745640268824E+01 
    1.1953013961194852E+01 
    1.1823112927256622E+01 
    5.8578637538283926E+00 
    8.4397354808760170E+00 
    1.1017310656688302E+01 
    6.5667711903637898E+00 
    1.1654407277087152E+01 
    1.0051494402808681E+01 
    5.6717763489845314E+00 
    1.1525022832806499E+01 
    1.2286171662406224E+01 
    1.1515398394601206E+01 
    5.7871533197126777E+00 
    8.4907661022679797E+00 
    6.3435375597580803E+00 
    7.9962369114869700E+00 
    1.1428404249433445E+01 
    1.1418711410262153E+01 
    5.8197706571958481E+00 
    1.2169426994321320E+01 
    8.9559416642665504E+00 
    1.1457206091771788E+01 
    1.2142751319814556E+01 
    1.1441219977783968E+01 
    1.0657054981471637E+01 
    1.2988323583593743E+01 
    7.8361969369195954E+00 
    1.2250355196953079E+01 
    1.1483262613754048E+01 
    1.2312471050401530E+01 
    1.2164038760611069E+01 
    7.9179415695888080E+00 
    8.3066729653624733E+00 
    7.8464433202108941E+00 
    1.0252332870205084E+01 
    3.3650754006018131E+00 
    8.5678742074374750E+00 
    1.3104392209367294E+01 
    8.6833694171546902E+00 
    8.8473992988384875E+00 
    1.2288452903464403E+01 
    1.2498182842921269E+01 
    7.8254027447833137E+00 
    1.1440213169600284E+01 
    1.1416248296276063E+01 
    8.8365318665010371E+00 
    1.2125308629498670E+01 
    5.9651964627463707E+00 
    3.8304748990328816E+00 
    9.0830537168419827E+00 
    8.6952519706014062E+00 
    1.1420135920294722E+01 
    5.4521089095005406E+00 
    1.1882552239433062E+01 
    3.9015438437100260E+00 
    8.6399757035960061E+00 
    8.0062904045405183E+00 
    8.4695229778364833E+00 
    1.4312490564875290E+01 
    3.2713743061005385E+00 
    8.4861140702458382E+00 
    9.9919999088208620E+00 
    8.0856823635188508E+00 
    6.3689627520293159E+00 
    1.1987288953080828E+01 
    1.3905210678869272E+01 
    1.2108097536643459E+01 
    8.4306243545203987E+00 
    4.7969056311892180E+00 
    1.3764994123736484E+01 
    1.1640453591492705E+01 
    5.9803406860406696E+00 
    8.0154284091310029E+00 
    1.2653909004538663E+01 
    2.7759064148756090E+00 
    8.7398575770102749E+00 
    1.2078611111741754E+01 
    8.4825529308288132E+00 
    7.3552148794539542E+00 
    8.5258799931158649E+00 
    1.1195534232083398E+01 
    8.4638738713127886E+00 
    4.2891624683816474E+00 
    7.8229038317964672E-01 
    6.2581331932672795E+00 
    1.2843706290891834E+01 
    7.8447111735413229E+00 
    9.6306042286732314E+00 
    9.2461126257492641E+00 
    1.0492678897905671E+01 
    8.4963873780083254E+00 
    1.1562219994927551E+01 
    1.4325988654415386E+01 
    9.9861502444689130E+00 
    1.2226458470714364E+01 
    4.6737196975980061E-01 
    1.1420256041140938E+01 
    4.6560779528200555E+00 
    1.3260059587163109E+01 
    8.4996204296018938E+00 
    7.4487271908516961E+00 
    6.4643915450921394E+00 
    4.5041518653149737E+00 
    9.4435723529457594E+00 
    6.6213360516206903E+00 
    1.0367317638665902E+01 
    1.9101201816609263E+00 
    9.3676056334532340E+00 
    1.1364052953610503E+01 
    5.0790306068697610E+00 
    1.1829950346642404E+01 
    1.3096913771573538E+01 
    1.1712612422326794E+01 
    8.3746872900595761E+00 
    8.4645843007762807E+00 
    8.4924317037291654E+00 
    4.8681749306386672E+00 
    7.6219698277108909E+00 
    7.4962542083565413E+00 
    8.4815579871936109E+00 
    7.7939700837182553E+00 
    5.8894066027190572E-01 
    5.3230303425912009E+00 
    8.1126137211021927E+00 
    8.4581946116858777E+00 
    1.0652023294907520E+01 
    1.8147769993218974E+00 
    8.8012659803980462E+00 
    8.7002320282304684E+00 
    3.1486036881604815E+00 
    1.1604493403002948E+01 
    7.2507243528876879E+00 
    8.5807464239317568E+00 
    1.1637237837519510E+01 
    4.5173770694641151E+00 
    1.1695183571636557E+01 
    7.3305926020206673E+00 
    8.2585037517140347E-01 
    7.8979432768582889E+00 
    1.2181013188634795E+01 
    1.1420783023900395E+01 
    1.1439890325788076E+01 
    8.8473611928867051E+00 
    8.6428849544920663E+00 
    7.2246444447063789E+00 
    5.7796657552287432E+00 
    1.1730984234600170E+01 
    8.0158396792636513E+00 
    5.5724990325676318E+00 
    1.1433548699264005E+01 
    1.2014531880098804E+01 
    8.6612022960320445E+00 
    8.2674336748552264E+00 
    1.4213893636774918E+01 
    8.8372981877083134E+00 
    1.1748467036138740E+01 
    6.8773365962362654E+00 
    1.4353990946674241E+01 
    5.5606046642237601E+00 
    7.6034917657368126E+00 
    6.2229872079095516E+00 
    9.0387185393224421E+00 
    7.1430400086404848E+00 
    1.4338210495800718E+01 
    8.8791951006165490E+00 
    1.1142864171513878E+01 
    5.7189116184302966E+00 
    8.4912509582881412E+00 
    1.1611368932815280E+01 
    7.1611368811566720E+00 
    6.0444386100513148E+00 
    9.2848414365383682E+00 
    1.1823821846240826E+01 
    6.1376532555189049E+00 
    8.0220382988465921E+00 
    8.2908670515042306E+00 
    1.1399940630004501E+01 
    8.1112942512439634E+00 
    1.1789478531762253E+01 
    1.2337926987717459E+01 
    7.2466141865136233E+00 
    7.1072024384305035E+00 
    6.6690574253614336E+00 
    1.1519329532268269E+01 
    8.7000394894743067E+00 
    1.3940294146882168E+01 
    1.0871969494089583E+01 
    1.1575985116340064E+01 
    1.3648040035723913E+01 
    1.3099388229723946E+01 
    8.5355341213594169E+00 
    8.4672538994069058E+00 
    1.1224388490085293E+01 
    1.1451610074956413E+01 
    1.1881467625529918E+01 
    1.1658332403704533E+01 
    1.4231259406066972E+01 
    8.8368920513835185E+00 
    7.3314884499966579E+00 
    8.8039996615283638E+00 
    1.2262411222466101E+01 
    8.6148094037687351E+00 
    4.9734109948024390E+00 
    8.3597954582816456E+00 
    1.2625538348478493E+01 
    8.7315937130861645E+00 
    7.3333688309889240E+00 
    8.2330066130893975E+00 
    1.2723330840785605E+01 
    1.1444256585458168E+01 
    6.9739310193148594E+00 
    1.2847810049975779E+01 
    8.5594434757095641E+00 
    1.1879709643721947E+01 
    1.2736870457727186E+01 
    8.9212691346599264E+00 
    4.5132403899690221E+00 
    9.2606869325303727E+00 
    4.6656934950659892E+00 
    8.6557913112730898E+00 
    8.4847698574246255E+00 
    9.7386055128444173E+00 
    4.9292672957352117E+00 
    1.0339242721679708E+01 
    8.5037814182408891E+00 
    1.1649752584021625E+01 
    8.8816791464586355E+00 
    6.7686730019198755E+00 
    8.1197610785112229E+00 
    8.9834361766571842E+00 
    8.9280533255359966E+00 
    1.2373778833467794E+01 
    7.0121904788372582E+00 
    6.8937367461207586E+00 
    5.1773606915588148E+00 
    1.1905946066064807E+01 
    8.1575211352154273E+00 
    1.1270964404982672E+01 
    8.4551017931398427E+00 
    5.6507826948900410E+00 
    1.1469058562955418E+01 
    8.4303557319811979E+00 
    6.1507325914867144E+00 
    6.5082500510846852E+00 
    6.7325769548412611E+00 
    1.1676059484644270E+01 
    8.4834859865981613E+00 
    1.2235476561072190E+01 
    8.3887785960057055E+00 
    8.3277718774675442E+00 
    7.9445255439840929E+00 
    1.1538548383715737E+01 
    8.2459159287942594E+00 
    6.7658612389136037E+00 
    1.3086301493159947E+01 
    1.1606620801344503E+01 
    5.8264724869162903E+00 
    2.3100394374892077E+00 
    8.4727325604434434E+00 
    7.8860158142788439E+00 
    7.1036735572618408E+00 
    7.7704745723339732E+00 
    1.1589505245729299E+01 
    8.2027684664842688E+00 
    7.3894774815414994E+00 
    1.1470033582065517E+01 
    5.7727687994080217E+00 
    1.1191073475393754E+01 
    7.6166779007746639E+00 
    6.7056515851462928E+00 
    7.1687972299229621E+00 
    1.1953791290881128E+01 
    8.4723629216586200E+00 
    8.4798159783547842E+00 
    5.0047233772259290E+00 
    5.3989525267387046E+00 
    1.0617328287128297E+01 
    8.4889109972071726E+00 
    8.5140751256552321E+00 
    1.2832093570635822E+01 
    6.8932061141243652E+00 
    8.4997805519223473E+00 
    5.9740655343508431E+00 
    6.1654940433678194E+00 
    1.1531123252368403E+01 
    8.1387517250345685E+00 
    5.9374109691161978E+00 
    8.9120064604512663E+00 
    8.3677170728228347E+00 
    1.1534398427364208E+01 
    1.2916403949201968E+01 
    9.0264009905814047E-01 
    8.4774911710049405E+00 
    8.6939781771127045E+00 
    1.1589599455356167E+01 
    7.9624127547934389E+00 
    8.4476566789391434E+00 
    1.2419773101109888E+01 
    7.1949416441049037E+00 
    5.9880978274655137E+00 
    1.0260277370652879E+01 
    1.1432171479269504E+01 
    1.2313463302374377E+01 
    1.2542960234020196E+01 
    8.3265748106247859E+00 
    8.4699374411928545E+00 
    9.4992908037816655E+00 
    5.5370018964895689E+00 
    1.1537801390230902E+01 
    6.4419095141888416E+00 
    5.7649721272463346E+00 
    1.0602455523857051E+01 
    9.9582945829029903E+00 
    5.6536566838078581E+00 
    1.1462810006030843E+01 
    1.2300099305284085E+01 
    8.8506708881180280E+00 
    1.3007967223727324E+01 
    1.1489412880051512E+01 
    8.0540316354829518E+00 
    1.2068384734919695E+01 
    6.1709887132033767E+00 
    1.1446990409537657E+01 
    8.4767607883983658E+00 
    8.4358291117267914E+00 
    1.2983451849765720E+01 
    8.1855873526052179E+00 
    1.0347367351267559E+01 
    7.1534921729760423E+00 
    1.2402420296052005E+01 
    1.1369241634269313E+01 
    7.4557620988431088E+00 
    1.1413196183581551E+01 
    7.6180903174608137E+00 
    8.4572327902880780E+00 
    1.2264788038757731E+01 
    1.1651531621151955E+01 
    1.2303219207825954E+01 
    1.1592420014460556E+01 
    7.6341664659161799E+00 
    7.8421212519764705E+00 
    1.2308491744946874E+01 
    7.9500603605738513E+00 
    1.1312497696160190E+01 
    8.1794339054705265E+00 
    3.3880169953258163E+00 
    5.8218571849245508E+00 
    5.3962978693813284E+00 
    1.2267425015476164E+01 
    1.2921054097825040E+01 
    1.1428827108157581E+01 
    9.8314490338980569E+00 
    1.1667544685542232E+01 
    1.1467591739120719E+01 
    1.1965420256072044E+01 
    4.8352691836709081E+00 
    3.1635413327852961E+00 
    9.6467333422958959E+00 
    8.1127600802498137E+00 
    1.1590985314697784E+01 
    1.1588840397365072E+01 
    8.7084498200893989E+00 
    1.1620141431179755E+01 
    8.4645955933381920E+00 
    8.3377534877136270E+00 
    4.3784115797475600E+00 
    3.1538001849054362E+00 
    1.2720203819770827E+01 
    6.5558019895301607E+00 
    7.4035671609540561E+00 
    8.6226499051234970E+00 
    1.4214150309449620E+01 
    8.7024480374986695E+00 
    8.6932752355897041E+00 
    3.5624609131631235E+00 
    8.7028846863627933E+00 
    8.7144901047693555E+00 
    1.1855878687542251E+01 
    7.1774015156159674E+00 
    8.0567655512450411E+00 
    1.2871878194306957E+01 
    8.4855828212309543E+00 
    1.1442411200377586E+01 
    1.1656998926693323E+01 
    1.0488751484815209E+01 
    7.1252109105552828E+00 
    1.1591935311350452E+01 
    8.2716617566253028E+00 
    1.1613275211280733E+01 
    1.1388448075599339E+01 
    1.2284321417458033E+01 
    1.1590436733614498E+01 
    1.0899364475858823E+01 
    8.4750155867668280E+00 
    5.6081909016867639E+00 
    1.4094134805860984E+01 
    6.5723160419136546E+00 
    1.2214507356386861E+01 
    8.4724028787736945E+00 
    6.9435071243942614E+00 
    4.1649708709982738E+00 
    8.7435008219957648E+00 
    1.1580762724637456E+01 
    1.1577088499445260E+01 
    8.4386310775656046E+00 
    8.4664885313177649E+00 
    1.3062601207267475E+01 
    1.2492484198716616E+01 
    8.7188230020707707E+00 
    2.9452151336943673E+00 
    1.0881819139652061E+01 
    1.4336943325705876E+01 
    8.4783551807235860E+00 
    1.0152933525335417E+01 
    7.9569986111705076E+00 
    1.3961366527314990E+01 
    1.2563815027402807E+01 
    1.2329152454900028E+01 
    8.7374639794489219E+00 
    3.8971938288659587E+00 
    7.9196502624072282E+00 
    7.9825009787730732E+00 
    8.0337833955667435E+00 
    3.1997493036838129E+00 