# vtk DataFile Version 2.0
Pressure Field Data 
ASCII 
DATASET UNSTRUCTURED_GRID 

POINTS 2860 double 

    0.0000000000000000E+00     0.0000000000000000E+00     0.0000000000000000E+00 
    1.0000000000000000E+00     0.0000000000000000E+00     0.0000000000000000E+00 
    1.0000000000000000E+00     1.0000000000000000E+00     0.0000000000000000E+00 
    0.0000000000000000E+00     1.0000000000000000E+00     0.0000000000000000E+00 
    2.5000000000000000E-01     2.5000000000000000E-01     0.0000000000000000E+00 
    7.5000000000000000E-01     2.5000000000000000E-01     0.0000000000000000E+00 
    7.5000000000000000E-01     7.5000000000000000E-01     0.0000000000000000E+00 
    2.5000000000000000E-01     7.5000000000000000E-01     0.0000000000000000E+00 
    3.1249999999942091E-02     0.0000000000000000E+00     0.0000000000000000E+00 
    6.2499999999873469E-02     0.0000000000000000E+00     0.0000000000000000E+00 
    9.3749999999826514E-02     0.0000000000000000E+00     0.0000000000000000E+00 
    1.2499999999977961E-01     0.0000000000000000E+00     0.0000000000000000E+00 
    1.5624999999968961E-01     0.0000000000000000E+00     0.0000000000000000E+00 
    1.8749999999959971E-01     0.0000000000000000E+00     0.0000000000000000E+00 
    2.1874999999950970E-01     0.0000000000000000E+00     0.0000000000000000E+00 
    2.4999999999941969E-01     0.0000000000000000E+00     0.0000000000000000E+00 
    2.8124999999932920E-01     0.0000000000000000E+00     0.0000000000000000E+00 
    3.1249999999923850E-01     0.0000000000000000E+00     0.0000000000000000E+00 
    3.4374999999914790E-01     0.0000000000000000E+00     0.0000000000000000E+00 
    3.7499999999905720E-01     0.0000000000000000E+00     0.0000000000000000E+00 
    4.0624999999896660E-01     0.0000000000000000E+00     0.0000000000000000E+00 
    4.3749999999887590E-01     0.0000000000000000E+00     0.0000000000000000E+00 
    4.6874999999878530E-01     0.0000000000000000E+00     0.0000000000000000E+00 
    4.9999999999869471E-01     0.0000000000000000E+00     0.0000000000000000E+00 
    5.3124999999877620E-01     0.0000000000000000E+00     0.0000000000000000E+00 
    5.6249999999885780E-01     0.0000000000000000E+00     0.0000000000000000E+00 
    5.9374999999893940E-01     0.0000000000000000E+00     0.0000000000000000E+00 
    6.2499999999902101E-01     0.0000000000000000E+00     0.0000000000000000E+00 
    6.5624999999910261E-01     0.0000000000000000E+00     0.0000000000000000E+00 
    6.8749999999918421E-01     0.0000000000000000E+00     0.0000000000000000E+00 
    7.1874999999926570E-01     0.0000000000000000E+00     0.0000000000000000E+00 
    7.4999999999934730E-01     0.0000000000000000E+00     0.0000000000000000E+00 
    7.8124999999942890E-01     0.0000000000000000E+00     0.0000000000000000E+00 
    8.1249999999951039E-01     0.0000000000000000E+00     0.0000000000000000E+00 
    8.4374999999959199E-01     0.0000000000000000E+00     0.0000000000000000E+00 
    8.7499999999967359E-01     0.0000000000000000E+00     0.0000000000000000E+00 
    9.0624999999975520E-01     0.0000000000000000E+00     0.0000000000000000E+00 
    9.3749999999983680E-01     0.0000000000000000E+00     0.0000000000000000E+00 
    9.6874999999991840E-01     0.0000000000000000E+00     0.0000000000000000E+00 
    1.0000000000000000E+00     3.1249999999942091E-02     0.0000000000000000E+00 
    1.0000000000000000E+00     6.2499999999873469E-02     0.0000000000000000E+00 
    1.0000000000000000E+00     9.3749999999826514E-02     0.0000000000000000E+00 
    1.0000000000000000E+00     1.2499999999977961E-01     0.0000000000000000E+00 
    1.0000000000000000E+00     1.5624999999968961E-01     0.0000000000000000E+00 
    1.0000000000000000E+00     1.8749999999959971E-01     0.0000000000000000E+00 
    1.0000000000000000E+00     2.1874999999950970E-01     0.0000000000000000E+00 
    1.0000000000000000E+00     2.4999999999941969E-01     0.0000000000000000E+00 
    1.0000000000000000E+00     2.8124999999932920E-01     0.0000000000000000E+00 
    1.0000000000000000E+00     3.1249999999923850E-01     0.0000000000000000E+00 
    1.0000000000000000E+00     3.4374999999914790E-01     0.0000000000000000E+00 
    1.0000000000000000E+00     3.7499999999905720E-01     0.0000000000000000E+00 
    1.0000000000000000E+00     4.0624999999896660E-01     0.0000000000000000E+00 
    1.0000000000000000E+00     4.3749999999887590E-01     0.0000000000000000E+00 
    1.0000000000000000E+00     4.6874999999878530E-01     0.0000000000000000E+00 
    1.0000000000000000E+00     4.9999999999869471E-01     0.0000000000000000E+00 
    1.0000000000000000E+00     5.3124999999877620E-01     0.0000000000000000E+00 
    1.0000000000000000E+00     5.6249999999885780E-01     0.0000000000000000E+00 
    1.0000000000000000E+00     5.9374999999893940E-01     0.0000000000000000E+00 
    1.0000000000000000E+00     6.2499999999902101E-01     0.0000000000000000E+00 
    1.0000000000000000E+00     6.5624999999910261E-01     0.0000000000000000E+00 
    1.0000000000000000E+00     6.8749999999918421E-01     0.0000000000000000E+00 
    1.0000000000000000E+00     7.1874999999926570E-01     0.0000000000000000E+00 
    1.0000000000000000E+00     7.4999999999934730E-01     0.0000000000000000E+00 
    1.0000000000000000E+00     7.8124999999942890E-01     0.0000000000000000E+00 
    1.0000000000000000E+00     8.1249999999951039E-01     0.0000000000000000E+00 
    1.0000000000000000E+00     8.4374999999959199E-01     0.0000000000000000E+00 
    1.0000000000000000E+00     8.7499999999967359E-01     0.0000000000000000E+00 
    1.0000000000000000E+00     9.0624999999975520E-01     0.0000000000000000E+00 
    1.0000000000000000E+00     9.3749999999983680E-01     0.0000000000000000E+00 
    1.0000000000000000E+00     9.6874999999991840E-01     0.0000000000000000E+00 
    9.6875000000003686E-01     1.0000000000000000E+00     0.0000000000000000E+00 
    9.3750000000011691E-01     1.0000000000000000E+00     0.0000000000000000E+00 
    9.0625000000015765E-01     1.0000000000000000E+00     0.0000000000000000E+00 
    8.7500000000017863E-01     1.0000000000000000E+00     0.0000000000000000E+00 
    8.4375000000028044E-01     1.0000000000000000E+00     0.0000000000000000E+00 
    8.1250000000040856E-01     1.0000000000000000E+00     0.0000000000000000E+00 
    7.8125000000054956E-01     1.0000000000000000E+00     0.0000000000000000E+00 
    7.5000000000066480E-01     1.0000000000000000E+00     0.0000000000000000E+00 
    7.1875000000086831E-01     1.0000000000000000E+00     0.0000000000000000E+00 
    6.8750000000102829E-01     1.0000000000000000E+00     0.0000000000000000E+00 
    6.5625000000114431E-01     1.0000000000000000E+00     0.0000000000000000E+00 
    6.2500000000129829E-01     1.0000000000000000E+00     0.0000000000000000E+00 
    5.9375000000147926E-01     1.0000000000000000E+00     0.0000000000000000E+00 
    5.6250000000168354E-01     1.0000000000000000E+00     0.0000000000000000E+00 
    5.3125000000188671E-01     1.0000000000000000E+00     0.0000000000000000E+00 
    5.0000000000205835E-01     1.0000000000000000E+00     0.0000000000000000E+00 
    4.6875000000192979E-01     1.0000000000000000E+00     0.0000000000000000E+00 
    4.3750000000180111E-01     1.0000000000000000E+00     0.0000000000000000E+00 
    4.0625000000167238E-01     1.0000000000000000E+00     0.0000000000000000E+00 
    3.7500000000154382E-01     1.0000000000000000E+00     0.0000000000000000E+00 
    3.4375000000141509E-01     1.0000000000000000E+00     0.0000000000000000E+00 
    3.1250000000128642E-01     1.0000000000000000E+00     0.0000000000000000E+00 
    2.8125000000115769E-01     1.0000000000000000E+00     0.0000000000000000E+00 
    2.5000000000102918E-01     1.0000000000000000E+00     0.0000000000000000E+00 
    2.1875000000090050E-01     1.0000000000000000E+00     0.0000000000000000E+00 
    1.8750000000077180E-01     1.0000000000000000E+00     0.0000000000000000E+00 
    1.5625000000064329E-01     1.0000000000000000E+00     0.0000000000000000E+00 
    1.2500000000051459E-01     1.0000000000000000E+00     0.0000000000000000E+00 
    9.3750000000385914E-02     1.0000000000000000E+00     0.0000000000000000E+00 
    6.2500000000257239E-02     1.0000000000000000E+00     0.0000000000000000E+00 
    3.1250000000128557E-02     1.0000000000000000E+00     0.0000000000000000E+00 
    0.0000000000000000E+00     9.6875000000003686E-01     0.0000000000000000E+00 
    0.0000000000000000E+00     9.3750000000011691E-01     0.0000000000000000E+00 
    0.0000000000000000E+00     9.0625000000015765E-01     0.0000000000000000E+00 
    0.0000000000000000E+00     8.7500000000017863E-01     0.0000000000000000E+00 
    0.0000000000000000E+00     8.4375000000028044E-01     0.0000000000000000E+00 
    0.0000000000000000E+00     8.1250000000040856E-01     0.0000000000000000E+00 
    0.0000000000000000E+00     7.8125000000054956E-01     0.0000000000000000E+00 
    0.0000000000000000E+00     7.5000000000066480E-01     0.0000000000000000E+00 
    0.0000000000000000E+00     7.1875000000086831E-01     0.0000000000000000E+00 
    0.0000000000000000E+00     6.8750000000102829E-01     0.0000000000000000E+00 
    0.0000000000000000E+00     6.5625000000114431E-01     0.0000000000000000E+00 
    0.0000000000000000E+00     6.2500000000129829E-01     0.0000000000000000E+00 
    0.0000000000000000E+00     5.9375000000147926E-01     0.0000000000000000E+00 
    0.0000000000000000E+00     5.6250000000168354E-01     0.0000000000000000E+00 
    0.0000000000000000E+00     5.3125000000188671E-01     0.0000000000000000E+00 
    0.0000000000000000E+00     5.0000000000205835E-01     0.0000000000000000E+00 
    0.0000000000000000E+00     4.6875000000192979E-01     0.0000000000000000E+00 
    0.0000000000000000E+00     4.3750000000180111E-01     0.0000000000000000E+00 
    0.0000000000000000E+00     4.0625000000167238E-01     0.0000000000000000E+00 
[...]
CELL_DATA 2795 
SCALARS Pressure double 1 
LOOKUP_TABLE default 

    5.1326396004272707E+00 
    1.1577891636762619E+01 
    8.1989628413647573E+00 
    7.8281699811166607E+00 
    6.2672510516606739E+00 
    1.1483204576306079E+01 
    1.2091976632858332E+01 
    4.5969877994968025E+00 
    8.6552442401900169E+00 
    6.6023369475517208E+00 
    5.6213172132385081E+00 
    1.1274711283379803E+01 
    1.1494278089322730E+01 
    1.1457573182251508E+01 
    7.5385262585314381E+00 
    4.5186367648993988E+00 
    7.2116568416600026E+00 
    5.9874067023564086E+00 
    1.0980475083591077E+01 
    8.1937372682902243E+00 
    8.0870555051834359E+00 
    1.1404161762339799E+01 
    7.6102038400368723E+00 
    3.1216818906024485E-01 
    1.1246256867676646E+01 
    1.1474089505401443E+01 
    1.2119854854669381E+01 
    5.4108590524940325E+00 
    1.1209863313544751E+01 
    1.2107743489136842E+01 
    8.2991776819490575E+00 
    8.4113633631288476E+00 
    5.8098464528232112E+00 
    8.1606517908352085E+00 
    2.6735605063701100E+00 
    7.2140012299004406E+00 
    8.1528843483015780E+00 
    1.2142054669292536E+01 
    1.2073785841186535E+01 
    1.1285367950941552E+01 
    6.2063438928317796E+00 
    1.1229717395199671E+01 
    6.4730124714354664E-01 
    8.0351790254523134E+00 
    1.1908792567007168E+01 
    1.1766134670340616E+01 
    1.1265976820285276E+01 
    8.9547921779159534E+00 
    1.1323670981407222E+01 
    7.3728676745484600E+00 
    7.0330671466422929E+00 
    8.3785491262594238E+00 
    7.9338640711913087E+00 
    7.2526898140443601E+00 
    8.3773254328157485E+00 
    1.0810525557427310E+01 
    9.7753965390972208E+00 
    6.2998087665859757E+00 
    1.1407311882076126E+01 
    1.1345811323327256E+01 
    7.8904251257311468E+00 
    7.8787165790001588E+00 
    7.7482983327100534E+00 
    1.2024292647258957E+01 
    1.2244676231863920E+01 
    7.2207609631166454E+00 
    8.3768152875373048E+00 
    1.1193351533540893E+01 
    9.5871841353062486E+00 
    7.9002698133532627E+00 
    1.2258623230225723E+01 
    1.1340690450095895E+01 
    7.1206109906638773E+00 
    1.1848555154434971E+01 
    8.6140877654234913E+00 
    1.1124617106139487E+01 
    1.2154445348982257E+01 
    8.4500324789899235E+00 
    5.1686484375668247E+00 
    8.3924100457005331E+00 
    1.2080124152391585E+01 
    1.2276645612968640E+01 
    7.2396019801162748E+00 
    8.3137552425626815E+00 
    1.2316548481709310E+01 
    8.1581215785714232E+00 
    7.6800756739891805E+00 
    9.9184932988199215E+00 
    4.9702619959072019E+00 
    7.0538535168051713E+00 
    8.3145879731244730E+00 
    8.7692540993072026E+00 
    1.3633396806569174E+01 
    6.0943980219250626E+00 
    8.3835317529220514E+00 
    1.1248424945405528E+01 
    1.1452959146898081E+01 
    5.3828567241459950E+00 
    8.0367429297374944E+00 
    8.3436109654019930E+00 
    1.1470599692982301E+01 
    8.3454503564321154E+00 
    1.1413073375836783E+01 
    3.3080507666066108E+00 
    5.4625190056373789E+00 
    8.5662073158242649E+00 
    1.1585597126345762E+01 
    7.1854719288888997E+00 
    7.7128416504512609E+00 
    8.3315562086594408E+00 
    7.6584217424607592E+00 
    9.5100265951106913E+00 
    7.4898226356629900E+00 
    7.1269736460402973E+00 
    5.6313187580472892E+00 
    9.6713473565538113E+00 
    8.4132871840591754E+00 
    1.1949764487294978E+01 
    7.1849305319010766E+00 
    7.8202457738524798E+00 
    1.1331681278822282E+01 
    6.5480728690406895E+00 
    1.1712287550035722E+01 
    8.2364013240537410E+00 
    7.7574645081485745E+00 
    1.1455134310689397E+01 
    8.4033730453723408E+00 
    1.2163426453836577E+01 
    9.9278993641760724E+00 
    1.0688336402047867E+01 
    1.2134311478958582E+01 
    6.1060438687635115E+00 
    8.5801656029585693E+00 
    1.1458709987143857E+01 
    2.4853186367850486E+00 
    8.3545166055432212E+00 
    1.2105871593790026E+01 
    7.7872462424454616E+00 
    8.9788298638811312E+00 
    5.3113278071829804E+00 
    1.1249166968800393E+01 
    1.4087344936794414E+01 
    1.0302759263969081E+01 
    7.7798476027759058E+00 
    6.9723228883684039E+00 
    8.9671309905589158E+00 
    8.2531137788495244E+00 
    5.6820765323113669E+00 
    1.2128095038094697E+01 
    1.1548344819375615E+01 
    1.1249959825149089E+01 
    8.7851788908581607E+00 
    7.1007546894162861E+00 
    8.0869778464305426E+00 
    1.1871927768250865E+01 
    7.2917574840592891E+00 
    8.1588851189757374E+00 
    7.4225473376715501E+00 
    9.4756342690797748E+00 
    1.4076355519111130E+01 
    1.1242566948391369E+01 
    7.0261513472726325E+00 
    1.1617326955314281E+01 
    1.1550506654207618E+01 
    1.1618989041904829E+01 
    1.2488514136072730E+01 
    1.2973539464830489E+01 
    1.1761060548528659E+01 
    8.3697326355663062E+00 
    8.8742248305854083E+00 
    1.1618276037820204E+01 
    1.1961963739461945E+01 
    5.9209092008664452E+00 
    1.1265406520606387E+01 
    1.1839693750967829E+01 
    5.7740723102167273E+00 
    1.2406837688415242E+01 
    1.2400515206004719E+01 
    1.1036898617287372E+01 
    8.6322211399557265E+00 
    2.2177137821651698E+00 
    1.2103426497342516E+01 
    8.5159231427982949E+00 
    1.2207304411684106E+01 
    7.7336654102246980E+00 
    1.1958137075121337E+01 
    7.8611860351996987E-01 
    1.0702868720417207E+01 
    7.9120901205635699E+00 
    7.0688880197746498E+00 
    6.8915754594725724E+00 
    8.2074013897139828E+00 
    9.2104717873601700E+00 
    8.4729423166595783E+00 
    5.6751243315380453E+00 
    1.1956058107955451E+01 
    1.1480169950270655E+01 
    9.6888749577836819E+00 
    8.5584365880897124E+00 
    1.2727672539967978E+00 
    6.3805010204738712E+00 
    4.4398328470991189E+00 
    1.2117980519234756E+01 
    9.3248216632117611E+00 
    1.1535609166445186E+01 
    1.1536217283786195E+01 
    7.3755383789270850E+00 
    9.7157804611620193E+00 
    1.1245374070577085E+01 
    1.2386183554220628E+01 
    5.3123602672353609E+00 
    1.0126196522417684E+01 
    8.5086253021681966E+00 
    4.7366039508778295E+00 
    7.3512611359262356E+00 
    1.0123226011733877E+01 
    1.1503886029051101E+01 
    8.2624170151315983E+00 
    1.1599251063111574E+01 
    1.1397687939294578E+01 
    1.1355395541909633E+01 
    8.0948669698319886E+00 
    7.0403988505233839E+00 
    1.1257231615020116E+01 
    7.1177927458484360E+00 
    8.3501880237151198E+00 
    6.9819515965467360E+00 
    8.1090460312078445E+00 
    1.1543526603687901E+01 
    5.1508118999109760E+00 
    7.2823045670536883E+00 
    1.2045918151873444E+01 
    8.1101257555734119E+00 
    9.2268365020845415E+00 
    5.2857876525157561E+00 
    7.1647737804842198E+00 
    1.1379297906924675E+01 
    1.1647264688859297E+01 
    4.3262967574935089E+00 
    8.1100222849082382E+00 
    7.0155501302366030E+00 
    1.2761807716166699E+01 
    1.2284305748434598E+01 
    1.2995900636911323E+01 
    8.1304077466323310E+00 
    1.1521185785969159E+01 
    1.1210168671878487E+01 
    8.0165369376077802E+00 
    1.1249894004745158E+01 
    8.5581952679233755E+00 
    4.7666373737327241E+00 
    8.3045982145499604E+00 
    1.2032613891869952E+01 
    1.1247202311998365E+01 
    5.5948812893524327E+00 
    1.1271157165246038E+01 
    9.2125674752029987E+00 
    8.3388502124773023E+00 
    7.8643917102760845E+00 
    1.1138322805154532E+01 
    8.8023791805625269E+00 
    1.1260988196647888E+01 
    7.9932841148745126E+00 
    4.8857138058435385E+00 
    8.4111913128802644E+00 
    6.8993619900771863E+00 
    1.0304548749259309E+01 
    1.2206860199379491E+01 
    1.1257038460288966E+01 
    1.2099367029302369E+01 
    8.0648812847467841E+00 
    5.4522743513263103E+00 
    5.5278324486495212E+00 
    8.5277345110812472E+00 
    8.3274035599153127E+00 
    1.2142835196298842E+00 
    1.0851262525227325E+01 
    1.2513354872318029E+01 
    7.7386303046185381E+00 
    5.0006274426437534E+00 
    9.4178231239457144E+00 
    1.1269844570447850E+01 
    5.9095264389079007E+00 
    4.0542284903585859E+00 
    8.3035445709959692E+00 
    1.1357878491343600E+01 
    1.1873388871631759E+01 
    1.1779039689104044E+01 
    1.1650981023356746E+01 
    5.7655263017137370E+00 
    8.3264051170909283E+00 
    1.0854503419367671E+01 
    6.4832311083611307E+00 
    1.1483270228058862E+01 
    9.8945538244468683E+00 
    5.6043887973326783E+00 
    1.1357785916879692E+01 
    1.2108581249464351E+01 
    1.1345530277202338E+01 
    5.7000520356897608E+00 
    8.3734265425251344E+00 
    6.2479763436106666E+00 
    7.8871107551200375E+00 
    1.1263010085858102E+01 
    1.1253492202820421E+01 
    5.7321853221199053E+00 
    1.1993099503118742E+01 
    8.8334292059020605E+00 
    1.1292927216905774E+01 
    1.1967106777687809E+01 
    1.1276705548169353E+01 
    1.0502875937776327E+01 
    1.2805801461702618E+01 
    7.7206856511322677E+00 
    1.2073817403676610E+01 
    1.1316929664407809E+01 
    1.2135216314284195E+01 
    1.1987851790969987E+01 
    7.8014657598511326E+00 
    8.1930759888491078E+00 
    7.7289593826259662E+00 
    1.0104698660790072E+01 
    3.3162181263597672E+00 
    8.4565950816677269E+00 
    1.2921390347595471E+01 
    8.5629363189978296E+00 
    8.7257100662248757E+00 
    1.2111419206302580E+01 
    1.2319426219893204E+01 
    7.7149039192364901E+00 
    1.1274616194599973E+01 
    1.1251133014275775E+01 
    8.7149376083682721E+00 
    1.1949686320221065E+01 
    5.8913535479709074E+00 
    3.7839979992294013E+00 
    8.9597353649998333E+00 
    8.5746800056909098E+00 
    1.1254818183025336E+01 
    5.3699849338384418E+00 
    1.1710042938942621E+01 
    3.8526086356106353E+00 
    8.5201048537023247E+00 
    7.8949835819899290E+00 
    8.3525765227160402E+00 
    1.4125178466189361E+01 
    3.2242736802043428E+00 
    8.3736245343105171E+00 
    9.8434570825944547E+00 
    7.9763615063122897E+00 
    6.2615211054493987E+00 
    1.1814147989953678E+01 
    1.3718618823300252E+01 
    1.1932507730583966E+01 
    8.3181012000455983E+00 
    4.7236579637981650E+00 
    1.3579290556582142E+01 
    1.1469836732200793E+01 
    5.8734420077547709E+00 
    7.8953667867537760E+00 
    1.2474093149506974E+01 
    2.7360039083870080E+00 
    8.6190005023601053E+00 
    1.1903335902571177E+01 
    8.3656900584332661E+00 
    7.2573417106850133E+00 
    8.4147917981767151E+00 
    1.1028484632343037E+01 
    8.3474629382241599E+00 
    4.2253294941307384E+00 
    7.7107384194857398E-01 
    6.1845498240980055E+00 
    1.2661956984042511E+01 
    7.7271723364191560E+00 
    9.4768418136091253E+00 
    9.0992440853360286E+00 
    1.0331847764184841E+01 
    8.3790140339960697E+00 
    1.1392412781524289E+01 
    1.4138650382597493E+01 
    9.8425639074126909E+00 
    1.2050211946113148E+01 
    4.6106528047731588E-01 
    1.1254996528217772E+01 
    4.5811647787692529E+00 
    1.3076433007266097E+01 
    8.3872844922884173E+00 
    7.3629206953089419E+00 
    6.3670376754336706E+00 
    4.4369805258233423E+00 
    9.3097367997273039E+00 
    6.5522895890807451E+00 
    1.0217719943096533E+01 
    1.8852846128602672E+00 
    9.2405969555922116E+00 
    1.1199577940854214E+01 
    5.0186343109112874E+00 
    1.1655089439729460E+01 
    1.2914123288186232E+01 
    1.1537630474585420E+01 
    8.2622726272300842E+00 
    8.3477362902187142E+00 
    8.3800300907416432E+00 
    4.7950797977488540E+00 
    7.5075546663385753E+00 
    7.3835386048264047E+00 
    8.3690224453342221E+00 
    7.6774117754114810E+00 
    5.8073909372345678E-01 
    5.2334812195156628E+00 
    7.9909213230442804E+00 
    8.3456324876358927E+00 
    1.0498069708614869E+01 
    1.7890205266913937E+00 
    8.6799377629067820E+00 
    8.5796718806575232E+00 
    3.1031587754913006E+00 
    1.1432264536784603E+01 
    7.1425128640537743E+00 
    8.4618273393231380E+00 
    1.1466514066692660E+01 
    4.4498546727656283E+00 
    1.1521041980476035E+01 
    7.2201906300420049E+00 
    8.1464997861418076E-01 
    7.7799318445765318E+00 
    1.2004975425221346E+01 
    1.1255529502763224E+01 
    1.1274687428126871E+01 
    8.7259521804282514E+00 
    8.5228586813581924E+00 
    7.1159312321829722E+00 
    5.6774588196923252E+00 
    1.1559102734679012E+01 
    7.8957375819405318E+00 
    5.4831673705110902E+00 
    1.1268034824043765E+01 
    1.1839444620297424E+01 
    8.5429392880789337E+00 
    8.1540313670573461E+00 
    1.4026893980505273E+01 
    8.7156887478229521E+00 
    1.1576716956505226E+01 
    6.7729957705088193E+00 
    1.4166660802134622E+01 
    5.4950875444164717E+00 
    7.4943987632717652E+00 
    6.1474959291702476E+00 
    8.9152354976359423E+00 
    7.0531610637676225E+00 
    1.4150903220110822E+01 
    8.7572228946561861E+00 
    1.0977045876863610E+01 
    5.6508793477773036E+00 
    8.3738734381207536E+00 
    1.1441115663125828E+01 
    7.0746004668994269E+00 
    5.9407540835872927E+00 
    9.1462380219937618E+00 
    1.1652720101368818E+01 
    6.0620310478626758E+00 
    7.9104119470477015E+00 
    8.1773623342810478E+00 
    1.1235020148796753E+01 
    8.0063484037463191E+00 
    1.1617692676696853E+01 
    1.2160437430623166E+01 
    7.1373018916826743E+00 
    6.9996191294105659E+00 
    6.5836734033428224E+00 
    1.1352138608141376E+01 
    8.5760895542781430E+00 
    1.3753705159967517E+01 
    1.0712657364063196E+01 
    1.1406028705809112E+01 
    1.3462882527376587E+01 
    1.2916751515005327E+01 
    8.4164500561423701E+00 
    8.3546748612341073E+00 
    1.1061822940939150E+01 
    1.1285843759018196E+01 
    1.1707927113170138E+01 
    1.1487476538759937E+01 
    1.4044023370547620E+01 
    8.7152875374849366E+00 
    7.2212343363392577E+00 
    8.6788604354842622E+00 
    1.2085695940758967E+01 
    8.4949020990313482E+00 
    4.9115313911528569E+00 
    8.2473893964965033E+00 
    1.2445732151922110E+01 
    8.6108057537824063E+00 
    7.2230828242032592E+00 
    8.1200560098876160E+00 
    1.2542854004956967E+01 
    1.1276056282712476E+01 
    6.8641256302541889E+00 
    1.2666394276810804E+01 
    8.4401009828072908E+00 
    1.1706918480930739E+01 
    1.2556221251918782E+01 
    8.7855476787337778E+00 
    4.4451381863240007E+00 
    9.1206423509522594E+00 
    4.5951190224724607E+00 
    8.5354698427980260E+00 
    8.3682477921965113E+00 
    9.5920431829443711E+00 
    4.8542917893471103E+00 
    1.0184624708586574E+01 
    8.3859081168337326E+00 
    1.1479017550282339E+01 
    8.7489966237440591E+00 
    6.6467628437746198E+00 
    8.0096420724957849E+00 
    8.8448185730717892E+00 
    8.8059160271842885E+00 
    1.2195787109344263E+01 
    6.9063474556344513E+00 
    6.7896090826989584E+00 
    5.0983071384031895E+00 
    1.1732294982229206E+01 
    8.0462469499817786E+00 
    1.1104682484658877E+01 
    8.3386376428762148E+00 
    5.5641013343144836E+00 
    1.1300365085983481E+01 
    8.3142153424582741E+00 
    6.0567926997354560E+00 
    6.4094569850058498E+00 
    6.6306796851042478E+00 
    1.1504965176575103E+01 
    8.3709642723766606E+00 
    1.2059049067836687E+01 
    8.2732068181148364E+00 
    8.2131490059341647E+00 
    7.8327609364045525E+00 
    1.1369011909856791E+01 
    8.1346700473517046E+00 
    6.6636514727272989E+00 
    1.2903661728162065E+01 
    1.1436233003920732E+01 
    5.7556591051222439E+00 
    2.2772585832489436E+00 
    8.3600535528166446E+00 
    7.7835461971087163E+00 
    6.9966298497881807E+00 
    7.6595878292089408E+00 
    1.1421600416537247E+01 
    8.0903014660944166E+00 
    7.2801538854616172E+00 
    1.1303932326352550E+01 
    5.7041743023244509E+00 
    1.1029113881061564E+01 
    7.5186724809423762E+00 
    6.5960197789687829E+00 
    7.0608296093245402E+00 
    1.1780261859774154E+01 
    8.3553758273287801E+00 
    8.3626955693876592E+00 
    4.9295377573953667E+00 
    5.3177205107926229E+00 
    1.0456950587923320E+01 
    8.3716174985162937E+00 
    8.4026921163593293E+00 
    1.2650742930613236E+01 
    6.7890361691638814E+00 
    8.3822320417012683E+00 
    5.9040489653400661E+00 
    6.0885500923653630E+00 
    1.1361361330489469E+01 
    8.0336948969804620E+00 
    5.8479804560628823E+00 
    8.7859425654294228E+00 
    8.2540353210293684E+00 
    1.1364724519912679E+01 
    1.2734530491991164E+01 
    8.9076855262740795E-01 
    8.3648204595807538E+00 
    8.5734510311685064E+00 
    1.1419460006596942E+01 
    7.8441486681454293E+00 
    8.3310773950749351E+00 
    1.2241150779364499E+01 
    7.0864157794689406E+00 
    5.8978204606373348E+00 
    1.0114466950271131E+01 
    1.1266701486895277E+01 
    1.2136261568604048E+01 
    1.2364129738622600E+01 
    8.2135417259929326E+00 
    8.3573378296553944E+00 
    9.3649445052319162E+00 
    5.4721794659865388E+00 
    1.1370710578317359E+01 
    6.3449732460772221E+00 
    5.6959700795085615E+00 
    1.0449520007335071E+01 
    9.8159862490526972E+00 
    5.5870772024388282E+00 
    1.1296719030405386E+01 
    1.2122995734005858E+01 
    8.7289511019176604E+00 
    1.2825528405812888E+01 
    1.1322939573893402E+01 
    7.9385861006002720E+00 
    1.1893697127884463E+01 
    6.0922672843633547E+00 
    1.1281283324120670E+01 
    8.3641449264699936E+00 
    8.3226363685354787E+00 
    1.2800984428185732E+01 
    8.0734573023138285E+00 
    1.0198392771934786E+01 
    7.0454600473883122E+00 
    1.2224351266004540E+01 
    1.1204711305355110E+01 
    7.3432764856279302E+00 
    1.1248386919074267E+01 
    7.5219722075167255E+00 
    8.3403781719718335E+00 
    1.2088081118944247E+01 
    1.1480468973572284E+01 
    1.2126098635345693E+01 
    1.1422225386604422E+01 
    7.5195604163411680E+00 
    7.7279696569576011E+00 
    1.2131286307776053E+01 
    7.8351132514376776E+00 
    1.1148603813316328E+01 
    8.0680558643844034E+00 
    3.3389012404451197E+00 
    5.7519733159445074E+00 
    5.3323753190145471E+00 
    1.2090666974045797E+01 
    1.2739079215646910E+01 
    1.1263571781992425E+01 
    9.7011707488939223E+00 
    1.1498405577282830E+01 
    1.1301563680067265E+01 
    1.1792547658460759E+01 
    4.7625008690710846E+00 
    3.1180448783601555E+00 
    9.5180697319120142E+00 
    7.9929506111847397E+00 
    1.1423108767567085E+01 
    1.1420994962176119E+01 
    8.5872813885966686E+00 
    1.1451836289944371E+01 
    8.3519845962608024E+00 
    8.2135502640768276E+00 
    4.3132324764333907E+00 
    3.1084096210055128E+00 
    1.2539808393211667E+01 
    6.4701326249272846E+00 
    7.2921783058055745E+00 
    8.5029462915874063E+00 
    1.4027081704675883E+01 
    8.5818385834616464E+00 
    8.5606836490969087E+00 
    3.5135798598797892E+00 
    8.5821964387852017E+00 
    8.5935526252530359E+00 
    1.1681767508988653E+01 
    7.0695078474815300E+00 
    7.9500215489277073E+00 
    1.2690311187526488E+01 
    8.3729293713412609E+00 
    1.1276783122089974E+01 
    1.1485317628258676E+01 
    1.0347989597699803E+01 
    7.0321871550178878E+00 
    1.1421713853968592E+01 
    8.1567364110294083E+00 
    1.1440567327663105E+01 
    1.1223678558028485E+01 
    1.2107376757839408E+01 
    1.1420344614468769E+01 
    1.0741432453872957E+01 
    8.3624108626856302E+00 
    5.5418731196630260E+00 
    1.3907351022210646E+01 
    6.4733532089852481E+00 
    1.2038637461703731E+01 
    8.3597670240521573E+00 
    6.8394441674002744E+00 
    4.1147612029597287E+00 
    8.6219280603833646E+00 
    1.1410712416727609E+01 
    1.1406982725679795E+01 
    8.3221053337997617E+00 
    8.3537882230758367E+00 
    1.2879857730678996E+01 
    1.2313999932683467E+01 
    8.5980580500736021E+00 
    2.9030311479255926E+00 
    1.0723784789560948E+01 
    1.4149692883008102E+01 
    8.3657983092587767E+00 
    1.0016032617025497E+01 
    7.8383845524202158E+00 
    1.3775062835941934E+01 
    1.2384600431223230E+01 
    1.2151323103740022E+01 
    8.6165415883858838E+00 
    3.8439467273000645E+00 
    7.8012183320398609E+00 
    7.8641359184984481E+00 
    7.9165279087854667E+00 
    3.1544795942202466E+00 