# vtk DataFile Version 2.0
Pressure Field Data 
ASCII 
DATASET UNSTRUCTURED_GRID 

POINTS 2860 double 

    0.0000000000000000E+00     0.0000000000000000E+00     0.0000000000000000E+00 
    1.0000000000000000E+00     0.0000000000000000E+00     0.0000000000000000E+00 
    1.0000000000000000E+00     1.0000000000000000E+00     0.0000000000000000E+00 
    0.0000000000000000E+00     1.0000000000000000E+00     0.0000000000000000E+00 
    2.5000000000000000E-01     2.5000000000000000E-01     0.0000000000000000E+00 
    7.5000000000000000E-01     2.5000000000000000E-01     0.0000000000000000E+00 
    7.5000000000000000E-01     7.5000000000000000E-01     0.0000000000000000E+00 
    2.5000000000000000E-01     7.5000000000000000E-01     0.0000000000000000E+00 
    3.1249999999942091E-02     0.0000000000000000E+00     0.0000000000000000E+00 
    6.2499999999873469E-02     0.0000000000000000E+00     0.0000000000000000E+00 
    9.3749999999826514E-02     0.0000000000000000E+00     0.0000000000000000E+00 
    1.2499999999977961E-01     0.0000000000000000E+00     0.0000000000000000E+00 
    1.5624999999968961E-01     0.0000000000000000E+00     0.0000000000000000E+00 
    1.8749999999959971E-01     0.0000000000000000E+00     0.0000000000000000E+00 
    2.1874999999950970E-01     0.0000000000000000E+00     0.0000000000000000E+00 
    2.4999999999941969E-01     0.0000000000000000E+00     0.0000000000000000E+00 
    2.8124999999932920E-01     0.0000000000000000E+00     0.0000000000000000E+00 
    3.1249999999923850E-01     0.0000000000000000E+00     0.0000000000000000E+00 
    3.4374999999914790E-01     0.0000000000000000E+00     0.0000000000000000E+00 
    3.7499999999905720E-01     0.0000000000000000E+00     0.0000000000000000E+00 
    4.0624999999896660E-01     0.0000000000000000E+00     0.0000000000000000E+00 
    4.3749999999887590E-01     0.0000000000000000E+00     0.0000000000000000E+00 
    4.6874999999878530E-01     0.0000000000000000E+00     0.0000000000000000E+00 
    4.9999999999869471E-01     0.0000000000000000E+00     0.0000000000000000E+00 
    5.3124999999877620E-01     0.0000000000000000E+00     0.0000000000000000E+00 
    5.6249999999885780E-01     0.0000000000000000E+00     0.0000000000000000E+00 
    5.9374999999893940E-01     0.0000000000000000E+00     0.0000000000000000E+00 
    6.2499999999902101E-01     0.0000000000000000E+00     0.0000000000000000E+00 
    6.5624999999910261E-01     0.0000000000000000E+00     0.0000000000000000E+00 
    6.8749999999918421E-01     0.0000000000000000E+00     0.0000000000000000E+00 
    7.1874999999926570E-01     0.0000000000000000E+00     0.0000000000000000E+00 
    7.4999999999934730E-01     0.0000000000000000E+00     0.0000000000000000E+00 
    7.8124999999942890E-01     0.0000000000000000E+00     0.0000000000000000E+00 
    8.1249999999951039E-01     0.0000000000000000E+00     0.0000000000000000E+00 
    8.4374999999959199E-01     0.0000000000000000E+00     0.0000000000000000E+00 
    8.7499999999967359E-01     0.0000000000000000E+00     0.0000000000000000E+00 
    9.0624999999975520E-01     0.0000000000000000E+00     0.0000000000000000E+00 
    9.3749999999983680E-01     0.0000000000000000E+00     0.0000000000000000E+00 
    9.6874999999991840E-01     0.0000000000000000E+00     0.0000000000000000E+00 
    1.0000000000000000E+00     3.1249999999942091E-02     0.0000000000000000E+00 
    1.0000000000000000E+00     6.2499999999873469E-02     0.0000000000000000E+00 
    1.0000000000000000E+00     9.3749999999826514E-02     0.0000000000000000E+00 
    1.0000000000000000E+00     1.2499999999977961E-01     0.0000000000000000E+00 
    1.0000000000000000E+00     1.5624999999968961E-01     0.0000000000000000E+00 
    1.0000000000000000E+00     1.8749999999959971E-01     0.0000000000000000E+00 
    1.0000000000000000E+00     2.1874999999950970E-01     0.0000000000000000E+00 
    1.0000000000000000E+00     2.4999999999941969E-01     0.0000000000000000E+00 
    1.0000000000000000E+00     2.8124999999932920E-01     0.0000000000000000E+00 
    1.0000000000000000E+00     3.1249999999923850E-01     0.0000000000000000E+00 
    1.0000000000000000E+00     3.4374999999914790E-01     0.0000000000000000E+00 
    1.0000000000000000E+00     3.7499999999905720E-01     0.0000000000000000E+00 
    1.0000000000000000E+00     4.0624999999896660E-01     0.0000000000000000E+00 
    1.0000000000000000E+00     4.3749999999887590E-01     0.0000000000000000E+00 
    1.0000000000000000E+00     4.6874999999878530E-01     0.0000000000000000E+00 
    1.0000000000000000E+00     4.9999999999869471E-01     0.0000000000000000E+00 
    1.0000000000000000E+00     5.3124999999877620E-01     0.0000000000000000E+00 
    1.0000000000000000E+00     5.6249999999885780E-01     0.0000000000000000E+00 
    1.0000000000000000E+00     5.9374999999893940E-01     0.0000000000000000E+00 
    1.0000000000000000E+00     6.2499999999902101E-01     0.0000000000000000E+00 
    1.0000000000000000E+00     6.5624999999910261E-01     0.0000000000000000E+00 
    1.0000000000000000E+00     6.8749999999918421E-01     0.0000000000000000E+00 
    1.0000000000000000E+00     7.1874999999926570E-01     0.0000000000000000E+00 
    1.0000000000000000E+00     7.4999999999934730E-01     0.0000000000000000E+00 
    1.0000000000000000E+00     7.8124999999942890E-01     0.0000000000000000E+00 
    1.0000000000000000E+00     8.1249999999951039E-01     0.0000000000000000E+00 
    1.0000000000000000E+00     8.4374999999959199E-01     0.0000000000000000E+00 
    1.0000000000000000E+00     8.7499999999967359E-01     0.0000000000000000E+00 
    1.0000000000000000E+00     9.0624999999975520E-01     0.0000000000000000E+00 
    1.0000000000000000E+00     9.3749999999983680E-01     0.0000000000000000E+00 
    1.0000000000000000E+00     9.6874999999991840E-01     0.0000000000000000E+00 
    9.6875000000003686E-01     1.0000000000000000E+00     0.0000000000000000E+00 
    9.3750000000011691E-01     1.0000000000000000E+00     0.0000000000000000E+00 
    9.0625000000015765E-01     1.0000000000000000E+00     0.0000000000000000E+00 
    8.7500000000017863E-01     1.0000000000000000E+00     0.0000000000000000E+00 
    8.4375000000028044E-01     1.0000000000000000E+00     0.0000000000000000E+00 
    8.1250000000040856E-01     1.0000000000000000E+00     0.0000000000000000E+00 
    7.8125000000054956E-01     1.0000000000000000E+00     0.0000000000000000E+00 
    7.5000000000066480E-01     1.0000000000000000E+00     0.0000000000000000E+00 
    7.1875000000086831E-01     1.0000000000000000E+00     0.0000000000000000E+00 
    6.8750000000102829E-01     1.0000000000000000E+00     0.0000000000000000E+00 
    6.5625000000114431E-01     1.0000000000000000E+00     0.0000000000000000E+00 
    6.2500000000129829E-01     1.0000000000000000E+00     0.0000000000000000E+00 
    5.9375000000147926E-01     1.0000000000000000E+00     0.0000000000000000E+00 
    5.6250000000168354E-01     1.0000000000000000E+00     0.0000000000000000E+00 
    5.3125000000188671E-01     1.0000000000000000E+00     0.0000000000000000E+00 
    5.0000000000205835E-01     1.0000000000000000E+00     0.0000000000000000E+00 
    4.6875000000192979E-01     1.0000000000000000E+00     0.0000000000000000E+00 
    4.3750000000180111E-01     1.0000000000000000E+00     0.0000000000000000E+00 
    4.0625000000167238E-01     1.0000000000000000E+00     0.0000000000000000E+00 
    3.7500000000154382E-01     1.0000000000000000E+00     0.0000000000000000E+00 
    3.4375000000141509E-01     1.0000000000000000E+00     0.0000000000000000E+00 
    3.1250000000128642E-01     1.0000000000000000E+00     0.0000000000000000E+00 
    2.8125000000115769E-01     1.0000000000000000E+00     0.0000000000000000E+00 
    2.5000000000102918E-01     1.0000000000000000E+00     0.0000000000000000E+00 
    2.1875000000090050E-01     1.0000000000000000E+00     0.0000000000000000E+00 
    1.8750000000077180E-01     1.0000000000000000E+00     0.0000000000000000E+00 
    1.5625000000064329E-01     1.0000000000000000E+00     0.0000000000000000E+00 
    1.2500000000051459E-01     1.0000000000000000E+00     0.0000000000000000E+00 
    9.3750000000385914E-02     1.0000000000000000E+00     0.0000000000000000E+00 
    6.2500000000257239E-02     1.0000000000000000E+00     0.0000000000000000E+00 
    3.1250000000128557E-02     1.0000000000000000E+00     0.0000000000000000E+00 
    0.0000000000000000E+00     9.6875000000003686E-01     0.0000000000000000E+00 
    0.0000000000000000E+00     9.3750000000011691E-01     0.0000000000000000E+00 
    0.0000000000000000E+00     9.0625000000015765E-01     0.0000000000000000E+00 
    0.0000000000000000E+00     8.7500000000017863E-01     0.0000000000000000E+00 
    0.0000000000000000E+00     8.4375000000028044E-01     0.0000000000000000E+00 
    0.0000000000000000E+00     8.1250000000040856E-01     0.0000000000000000E+00 
    0.0000000000000000E+00     7.8125000000054956E-01     0.0000000000000000E+00 
    0.0000000000000000E+00     7.5000000000066480E-01     0.0000000000000000E+00 
    0.0000000000000000E+00     7.1875000000086831E-01     0.0000000000000000E+00 
    0.0000000000000000E+00     6.8750000000102829E-01     0.0000000000000000E+00 
    0.0000000000000000E+00     6.5625000000114431E-01     0.0000000000000000E+00 
    0.0000000000000000E+00     6.2500000000129829E-01     0.0000000000000000E+00 
    0.0000000000000000E+00     5.9375000000147926E-01     0.0000000000000000E+00 
    0.0000000000000000E+00     5.6250000000168354E-01     0.0000000000000000E+00 
    0.0000000000000000E+00     5.3125000000188671E-01     0.0000000000000000E+00 
    0.0000000000000000E+00     5.0000000000205835E-01     0.0000000000000000E+00 
    0.0000000000000000E+00     4.6875000000192979E-01     0.0000000000000000E+00 
    0.0000000000000000E+00     4.3750000000180111E-01     0.0000000000000000E+00 
    0.0000000000000000E+00     4.0625000000167238E-01     0.0000000000000000E+00 
[...]
CELL_DATA 2795 
SCALARS Pressure double 1 
LOOKUP_TABLE default 

    7.7347845214781747E+00 
    1.6983501930589906E+01 
    1.1964057222572130E+01 
    1.1678255354464760E+01 
    9.4490677975180830E+00 
    1.6812599987195508E+01 
    1.7639823590752979E+01 
    6.9302804510711251E+00 
    1.2513194322273835E+01 
    9.6957437900168699E+00 
    8.3280500616466639E+00 
    1.6515738627136567E+01 
    1.6899849318166325E+01 
    1.6777228006484165E+01 
    1.1065205249384098E+01 
    6.8154926852612130E+00 
    1.0853310870198168E+01 
    8.8400632265290771E+00 
    1.6101496711401158E+01 
    1.1946154564296696E+01 
    1.1845431907258975E+01 
    1.6700101061183720E+01 
    1.1393475878196936E+01 
    4.5899198368678873E-01 
    1.6516971976226063E+01 
    1.6846858181126027E+01 
    1.7674953697866584E+01 
    8.0882112874988330E+00 
    1.6426058394047146E+01 
    1.7656621596593457E+01 
    1.2142260353889407E+01 
    1.2147240836949251E+01 
    8.8114294368810580E+00 
    1.1927857650652676E+01 
    4.0125299515146331E+00 
    1.0854159071600856E+01 
    1.1914003632627065E+01 
    1.7699473332513790E+01 
    1.7614346921867671E+01 
    1.6530238056308441E+01 
    9.4403375819981026E+00 
    1.6518397796624178E+01 
    9.5839761246591892E-01 
    1.1926010407653322E+01 
    1.7428290431066401E+01 
    1.7154285595718335E+01 
    1.6503661512588650E+01 
    1.2890616705114727E+01 
    1.6559730935741477E+01 
    1.1088210610048133E+01 
    1.0600286067069110E+01 
    1.2111606601187614E+01 
    1.1823965337202678E+01 
    1.0920230854134461E+01 
    1.2216368220518321E+01 
    1.5862128596585196E+01 
    1.3965447170009952E+01 
    9.4980436936225949E+00 
    1.6706856579734378E+01 
    1.6615783068285921E+01 
    1.1657741528979843E+01 
    1.1530253656350345E+01 
    1.1577199268783831E+01 
    1.7549209251897310E+01 
    1.7849062106993923E+01 
    1.0871286822679240E+01 
    1.2110081294767935E+01 
    1.6269929214736411E+01 
    1.3863594054392200E+01 
    1.1583524362992945E+01 
    1.7847644241351016E+01 
    1.6677726097773569E+01 
    1.0726477341306238E+01 
    1.7271752483863043E+01 
    1.2465097256402501E+01 
    1.6308728122009480E+01 
    1.7720387725753948E+01 
    1.2496234308801236E+01 
    7.8618288380064385E+00 
    1.2128078353471741E+01 
    1.7624115480018716E+01 
    1.7869418488724278E+01 
    1.0868064104160140E+01 
    1.2055245011562175E+01 
    1.7925055864480221E+01 
    1.1912934221394869E+01 
    1.1485853955984378E+01 
    1.4397171793265814E+01 
    7.5352131752467253E+00 
    1.0634798856843423E+01 
    1.2052489557271674E+01 
    1.2669208292781464E+01 
    1.9464583239737518E+01 
    9.1897332798251501E+00 
    1.2117857545115523E+01 
    1.6478746859217186E+01 
    1.6843521448373895E+01 
    8.1249970325073413E+00 
    1.1778314552345215E+01 
    1.2085901304317394E+01 
    1.6868262625021043E+01 
    1.2076667899895421E+01 
    1.6788259026601697E+01 
    4.9805927680951410E+00 
    8.0949534963199365E+00 
    1.2333455173666749E+01 
    1.6990366272123907E+01 
    1.0818194828537131E+01 
    1.1415097601010524E+01 
    1.2055310014821504E+01 
    1.1452783558686662E+01 
    1.3570055993868127E+01 
    1.1132121048713975E+01 
    1.0736107717825091E+01 
    8.5453801708838206E+00 
    1.4257927347844261E+01 
    1.2152659580884395E+01 
    1.7455401442197630E+01 
    1.0493204114361198E+01 
    1.1658658447579970E+01 
    1.6666379670889313E+01 
    9.9059457407571916E+00 
    1.7168245044977876E+01 
    1.1984587628124014E+01 
    1.1586746855361730E+01 
    1.6847150144436547E+01 
    1.2140306697035790E+01 
    1.7731823455366374E+01 
    1.4463172379605350E+01 
    1.5671723606545070E+01 
    1.7693570021000109E+01 
    9.2064232724297170E+00 
    1.2355392020789775E+01 
    1.6838437178649066E+01 
    3.7188978760002014E+00 
    1.2193468941014507E+01 
    1.7656175826791497E+01 
    1.1615361925605750E+01 
    1.3246778874821436E+01 
    8.0581710069968011E+00 
    1.6473451929374242E+01 
    1.9958985461695441E+01 
    1.5020792530403433E+01 
    1.1615881535474450E+01 
    1.0507505388991300E+01 
    1.2896409979596061E+01 
    1.2001265909342710E+01 
    8.4429526518233615E+00 
    1.7687115878624148E+01 
    1.6839549269766426E+01 
    1.6480456895993072E+01 
    1.2661462941903924E+01 
    1.0700290123200064E+01 
    1.1841110425378032E+01 
    1.7310359859192754E+01 
    1.0964382458266201E+01 
    1.2094944022516431E+01 
    1.1138719625740297E+01 
    1.4020379834826937E+01 
    1.9946877612961952E+01 
    1.6471542475017497E+01 
    1.0698416235636186E+01 
    1.7060448408682891E+01 
    1.6946441434301558E+01 
    1.7033880198353369E+01 
    1.8137853984910674E+01 
    1.8715690949090966E+01 
    1.7141690144925448E+01 
    1.2101887024234420E+01 
    1.3040140618404758E+01 
    1.6956028120992862E+01 
    1.7470159021915194E+01 
    8.8168801744862844E+00 
    1.6503291597246982E+01 
    1.7271371405345420E+01 
    8.5733064527829992E+00 
    1.8055746658473577E+01 
    1.8026734061986570E+01 
    1.6175888097177697E+01 
    1.2428785772270503E+01 
    3.3250647958835993E+00 
    1.7655815392569984E+01 
    1.2273633706520441E+01 
    1.7791237524378658E+01 
    1.1542209091978780E+01 
    1.7446045792742034E+01 
    1.1957131986171310E+00 
    1.5640932536046343E+01 
    1.1576096921138708E+01 
    1.0653366212512008E+01 
    1.0391449922175541E+01 
    1.1953284552718547E+01 
    1.3155013950561653E+01 
    1.2563459354409556E+01 
    8.6399967404446141E+00 
    1.7461457463231984E+01 
    1.6859848501458416E+01 
    1.3976738288154440E+01 
    1.2325445449883846E+01 
    1.8855593030869380E+00 
    9.6201376541979808E+00 
    6.7490285975110940E+00 
    1.7669372879850165E+01 
    1.3398773516384296E+01 
    1.6862354827087316E+01 
    1.6936967004293312E+01 
    1.1041414338919967E+01 
    1.3975130957753827E+01 
    1.6474650292579465E+01 
    1.8011741981460755E+01 
    8.0528258618420825E+00 
    1.4872357230559762E+01 
    1.2524575576583041E+01 
    7.1709357329532253E+00 
    1.1038949852670390E+01 
    1.4600251195452801E+01 
    1.6892161033340123E+01 
    1.2003867297448782E+01 
    1.7011828870770341E+01 
    1.6755971639529630E+01 
    1.6696546246730179E+01 
    1.1844962949768385E+01 
    1.0535068630304778E+01 
    1.6488923658367575E+01 
    1.0720647960460909E+01 
    1.2084767544559783E+01 
    1.0529012145030102E+01 
    1.2049441251715940E+01 
    1.6949076238823327E+01 
    7.6405386833388933E+00 
    1.0941589653262874E+01 
    1.7580240390608719E+01 
    1.1853433697800986E+01 
    1.3286429716927149E+01 
    7.8376951156209120E+00 
    1.0784550180483501E+01 
    1.6732579679870661E+01 
    1.7072336776553030E+01 
    6.4240569210123022E+00 
    1.1865477092494924E+01 
    1.0590515485457587E+01 
    1.8470062642554037E+01 
    1.7881709756687183E+01 
    1.8745443614965623E+01 
    1.1885250520493260E+01 
    1.6915813326763608E+01 
    1.6419272320117617E+01 
    1.1746558828290954E+01 
    1.6481228056574459E+01 
    1.2326663755520910E+01 
    7.2520671821696778E+00 
    1.2236143825897059E+01 
    1.7562439239939213E+01 
    1.6477749782290473E+01 
    8.3263673008777950E+00 
    1.6511242966134468E+01 
    1.3183155987887989E+01 
    1.2172298987877806E+01 
    1.1692865250233599E+01 
    1.6326430016843783E+01 
    1.2722355436142022E+01 
    1.6495225026825111E+01 
    1.1861345836276358E+01 
    7.4884717271867327E+00 
    1.2162736440426666E+01 
    1.0399534332220474E+01 
    1.5101752331980505E+01 
    1.7787213600370400E+01 
    1.6485922424704334E+01 
    1.7648827819036590E+01 
    1.1795709688574329E+01 
    8.0884754060266637E+00 
    8.1955885833503821E+00 
    1.2369707974740102E+01 
    1.2057281478997995E+01 
    1.8480419554504970E+00 
    1.5896057685285912E+01 
    1.8177115437394690E+01 
    1.1558306059332223E+01 
    7.5773497121466038E+00 
    1.3823622721622844E+01 
    1.6509253244141298E+01 
    8.9154328792709876E+00 
    6.1126975083595427E+00 
    1.2041114875038762E+01 
    1.6590169933006351E+01 
    1.7358361863103791E+01 
    1.7198053015841847E+01 
    1.7073429869752008E+01 
    8.7760406106759881E+00 
    1.2166028585885108E+01 
    1.5965638292680028E+01 
    9.5256257941976408E+00 
    1.6885202362594711E+01 
    1.4229146672372169E+01 
    8.3013302569963034E+00 
    1.6612855661846670E+01 
    1.7686163238368419E+01 
    1.6684954956243288E+01 
    8.5938286385681248E+00 
    1.2106214386318440E+01 
    9.4218151009213926E+00 
    1.1451358027458765E+01 
    1.6499854668418898E+01 
    1.6486455639468847E+01 
    8.6421084998969633E+00 
    1.7502275532637917E+01 
    1.2683328236492484E+01 
    1.6517461637454574E+01 
    1.7487491779668890E+01 
    1.6505815107482103E+01 
    1.5255364067766655E+01 
    1.8529639627695040E+01 
    1.1505330911364561E+01 
    1.7614230157979396E+01 
    1.6548799074856056E+01 
    1.7695689109014594E+01 
    1.7499171809935977E+01 
    1.1612666028615923E+01 
    1.1953447818446504E+01 
    1.1549011478086602E+01 
    1.4619659539133600E+01 
    4.9948478187351881E+00 
    1.2301906056852268E+01 
    1.8661957314280603E+01 
    1.2330018734316971E+01 
    1.2541653494362537E+01 
    1.7665527082257732E+01 
    1.7920431794258647E+01 
    1.1413335956963305E+01 
    1.6516288960515702E+01 
    1.6481529608071547E+01 
    1.2527401263487530E+01 
    1.7452872054500897E+01 
    8.7277365675407932E+00 
    5.6216480496684023E+00 
    1.2848798362020151E+01 
    1.2343503482499589E+01 
    1.6487103093472488E+01 
    8.0999287442028773E+00 
    1.7118031945448678E+01 
    5.7322034446008523E+00 
    1.2278738280575920E+01 
    1.1635896339173879E+01 
    1.2083379911802696E+01 
    1.9996424956082159E+01 
    4.8534294358822923E+00 
    1.2212360062791303E+01 
    1.4549639062228517E+01 
    1.1691624882568126E+01 
    9.5780144020323537E+00 
    1.7265553306542245E+01 
    1.9561508069466051E+01 
    1.7410779164470103E+01 
    1.2147410959265793E+01 
    7.1371194406197942E+00 
    1.9399456880238152E+01 
    1.6854623012471372E+01 
    9.0547442840035508E+00 
    1.1769362152506476E+01 
    1.8118604090700149E+01 
    4.1205273809250906E+00 
    1.2401995361485692E+01 
    1.7413286929615072E+01 
    1.2098422761449722E+01 
    1.0589593544949860E+01 
    1.2255444562042081E+01 
    1.6128493855682120E+01 
    1.2080801293714016E+01 
    6.3735371172470225E+00 
    1.1875609739989670E+00 
    9.1212281749256121E+00 
    1.8362707501248117E+01 
    1.1548176139106914E+01 
    1.3602589824983449E+01 
    1.3056817839391067E+01 
    1.4910737635142562E+01 
    1.2111897756424591E+01 
    1.6754013615372518E+01 
    2.0010698552761419E+01 
    1.4357807174286046E+01 
    1.7582885200347899E+01 
    6.8657790139256936E-01 
    1.6488748664952524E+01 
    7.0249927759618132E+00 
    1.8838293237904093E+01 
    1.2227123974568348E+01 
    1.0797505742874765E+01 
    9.6013962541558211E+00 
    6.6849418478101343E+00 
    1.3410496111111913E+01 
    9.6422187298143882E+00 
    1.4991610748042854E+01 
    2.8249912884956099E+00 
    1.3225332321225133E+01 
    1.6407700415384511E+01 
    7.4419946056986612E+00 
    1.6988902772945082E+01 
    1.8634838867263845E+01 
    1.6832913135233760E+01 
    1.2080728014181403E+01 
    1.2077412001874427E+01 
    1.2219236475211547E+01 
    7.2289498622965036E+00 
    1.1256235965308973E+01 
    1.1088764614257634E+01 
    1.2207347221002989E+01 
    1.1475433792986953E+01 
    8.8309034103332262E-01 
    8.0008883296380287E+00 
    1.1886750304355177E+01 
    1.2180125879606749E+01 
    1.5377901853627867E+01 
    2.6942395670379602E+00 
    1.2481603329424086E+01 
    1.2351100816042983E+01 
    4.6676420917571511E+00 
    1.6681647113508177E+01 
    1.0725338015766406E+01 
    1.2209779505652905E+01 
    1.6859578641969783E+01 
    6.7098720057890153E+00 
    1.6802778078408625E+01 
    1.0865683302734753E+01 
    1.2194250234984290E+00 
    1.1613009430200689E+01 
    1.7527728706461520E+01 
    1.6488204558085890E+01 
    1.6508264575769282E+01 
    1.2592205113389605E+01 
    1.2281713709241874E+01 
    1.0716665251696597E+01 
    8.6681698427928886E+00 
    1.6983236705252889E+01 
    1.1764320527233229E+01 
    8.4409820161233604E+00 
    1.6503748064797477E+01 
    1.7272320090894137E+01 
    1.2394030602898843E+01 
    1.1901475246476098E+01 
    1.9888556848653948E+01 
    1.2528486845094237E+01 
    1.6994222728534481E+01 
    1.0219656737237100E+01 
    2.0038587728710073E+01 
    8.1463721152384778E+00 
    1.1133327265442738E+01 
    9.1195990535687894E+00 
    1.2792541358899308E+01 
    1.0362020440814042E+01 
    2.0022135357701689E+01 
    1.2583292558274739E+01 
    1.6042018277938578E+01 
    8.3799384709441860E+00 
    1.2106492633439467E+01 
    1.6813033023401125E+01 
    1.0424814969164233E+01 
    9.0452787361427998E+00 
    1.3537598356149132E+01 
    1.7054281610903619E+01 
    8.9407686516966223E+00 
    1.1659240600417691E+01 
    1.1937482027119740E+01 
    1.6461181163560781E+01 
    1.1714641097142641E+01 
    1.7030296667748079E+01 
    1.7727822586249673E+01 
    1.0748707479791408E+01 
    1.0549901619813479E+01 
    9.6622017222790060E+00 
    1.6620205288397109E+01 
    1.2381764426265681E+01 
    1.9598214328627545E+01 
    1.5361764017310890E+01 
    1.6771973477898261E+01 
    1.9268861247952188E+01 
    1.8636216766738389E+01 
    1.2152909334483276E+01 
    1.2190915590575010E+01 
    1.6193491490285947E+01 
    1.6532217553455595E+01 
    1.7174528803700223E+01 
    1.6881511215382563E+01 
    1.9912388724354741E+01 
    1.2527937625774072E+01 
    1.0858765633894100E+01 
    1.2520320304977481E+01 
    1.7630742003475113E+01 
    1.2246928936829400E+01 
    7.3093685805164945E+00 
    1.2063260155555179E+01 
    1.8088792736364798E+01 
    1.2390918804049022E+01 
    1.0867055364062072E+01 
    1.1879260546939321E+01 
    1.8206567459751351E+01 
    1.6584010985188495E+01 
    1.0404377033912727E+01 
    1.8356125711230710E+01 
    1.2180974670498790E+01 
    1.7148070259598875E+01 
    1.8222547884246342E+01 
    1.2839204059598929E+01 
    6.7208552891347386E+00 
    1.3325577940792854E+01 
    6.9434629042524865E+00 
    1.2296236269858921E+01 
    1.2102859741425277E+01 
    1.4014125743839230E+01 
    7.3348364374667758E+00 
    1.4890560080401997E+01 
    1.2119133957320582E+01 
    1.6868340316049490E+01 
    1.2986790507398656E+01 
    1.0177284254256765E+01 
    1.1740804366900319E+01 
    1.2758660378610804E+01 
    1.2646255450723194E+01 
    1.7782600699849368E+01 
    1.0415672345865085E+01 
    1.0240718976159634E+01 
    7.7122934693476530E+00 
    1.7200108123704368E+01 
    1.1786685484246334E+01 
    1.6310995394976295E+01 
    1.2071924588710653E+01 
    8.4401383638520233E+00 
    1.6619236290118522E+01 
    1.2048913393536315E+01 
    9.1732588279959444E+00 
    9.6796534396637881E+00 
    1.0000397148305474E+01 
    1.6906983739187112E+01 
    1.2209498535997760E+01 
    1.7596494902915531E+01 
    1.2010016534268017E+01 
    1.1950169727167713E+01 
    1.1571720232204443E+01 
    1.6721246692745176E+01 
    1.1865347426475402E+01 
    1.0048589349394231E+01 
    1.8622949020065231E+01 
    1.6818587547033765E+01 
    8.5336330568814240E+00 
    3.4120335956367445E+00 
    1.2198154162302702E+01 
    1.1413582320401257E+01 
    1.0546465137955927E+01 
    1.1356521193389103E+01 
    1.6725026582966855E+01 
    1.1881851729208428E+01 
    1.0898354343703190E+01 
    1.6557197040547862E+01 
    8.4500551289000807E+00 
    1.6154427184529816E+01 
    1.1017970502609145E+01 
    1.0067452478878961E+01 
    1.0638359269841132E+01 
    1.7241716205280301E+01 
    1.2085906390299018E+01 
    1.2094242020870055E+01 
    7.4317772520614467E+00 
    8.0176517021404941E+00 
    1.5179068932869669E+01 
    1.2104001021936842E+01 
    1.2241254355260097E+01 
    1.8339493805609916E+01 
    1.0234548329619242E+01 
    1.2116130756025738E+01 
    8.7311275097758223E+00 
    8.9965010574118480E+00 
    1.6709388246259888E+01 
    1.1740633786499146E+01 
    8.8179277379481125E+00 
    1.2666719326847058E+01 
    1.2007375564392945E+01 
    1.6715175890680271E+01 
    1.8439063022449183E+01 
    1.2970606559526419E+00 
    1.2203423870447809E+01 
    1.2342184185379804E+01 
    1.6792132543092315E+01 
    1.1687883431296250E+01 
    1.2058665650909958E+01 
    1.7846017004152632E+01 
    1.0679546462758049E+01 
    8.8944783219056962E+00 
    1.4427663740147908E+01 
    1.6503970127123960E+01 
    1.7694314299570237E+01 
    1.7979888057113047E+01 
    1.2033725838426033E+01 
    1.2194255159610032E+01 
    1.3454161355792156E+01 
    8.1335430823911530E+00 
    1.6653947899532557E+01 
    9.5668016479681626E+00 
    8.4429262488274510E+00 
    1.4988070138582769E+01 
    1.4112375374788217E+01 
    8.2923744369461900E+00 
    1.6544803163415072E+01 
    1.7678642119981415E+01 
    1.2545946256907918E+01 
    1.8547516117369671E+01 
    1.6583137440122016E+01 
    1.1753529481794438E+01 
    1.7384776420800662E+01 
    8.9924089162046670E+00 
    1.6525671177666702E+01 
    1.2202283313424275E+01 
    1.2161017568661864E+01 
    1.8523047518220032E+01 
    1.1827563141405456E+01 
    1.4687473416521838E+01 
    1.0614396329330505E+01 
    1.7808946208587198E+01 
    1.6417511089163575E+01 
    1.1043052591300267E+01 
    1.6474035003172293E+01 
    1.1067129486506207E+01 
    1.2065871303258032E+01 
    1.7632974903773910E+01 
    1.6881612358783052E+01 
    1.7682117781846109E+01 
    1.6797484862251437E+01 
    1.1267123505028726E+01 
    1.1491204211384355E+01 
    1.7690036765536657E+01 
    1.1626860525563524E+01 
    1.6315673392068156E+01 
    1.1809617786751618E+01 
    5.0429206364567225E+00 
    8.5098874843365593E+00 
    7.9061985566801551E+00 
    1.7636975314948501E+01 
    1.8446097168649146E+01 
    1.6495796310655336E+01 
    1.3815506534094904E+01 
    1.6829012927615736E+01 
    1.6554793193531840E+01 
    1.7235293877071641E+01 
    7.1856605315799520E+00 
    4.6930290954417133E+00 
    1.3563949814536072E+01 
    1.1852236503092767E+01 
    1.6728567030426074E+01 
    1.6725833843616190E+01 
    1.2363599086314945E+01 
    1.6768973646594585E+01 
    1.2188131104007981E+01 
    1.2092723197022742E+01 
    6.5007941797088504E+00 
    4.6726610214449718E+00 
    1.8201133058617515E+01 
    9.5325164259217949E+00 
    1.0963090380828755E+01 
    1.2258418692809583E+01 
    1.9890976630664802E+01 
    1.2352133204574832E+01 
    1.2511614100178832E+01 
    5.3443499133909498E+00 
    1.2352241304357653E+01 
    1.2366827297078299E+01 
    1.7033599063662262E+01 
    1.0640192031981000E+01 
    1.1612636374093032E+01 
    1.8385612229602103E+01 
    1.2212340820376047E+01 
    1.6514405942444260E+01 
    1.6771525717921296E+01 
    1.4733357332983820E+01 
    1.0348819968035240E+01 
    1.6798529019803492E+01 
    1.1995200274947935E+01 
    1.6697864675081860E+01 
    1.6445789918820267E+01 
    1.7658716971765944E+01 
    1.6789403338791715E+01 
    1.5621562133898582E+01 
    1.2200214039175938E+01 
    8.2129071441138350E+00 
    1.9762290908415071E+01 
    9.7590897562150687E+00 
    1.7566739521354560E+01 
    1.2197448877716210E+01 
    1.0290867393248435E+01 
    6.2442468805800315E+00 
    1.2404939597079084E+01 
    1.6780925700678299E+01 
    1.6778896365604247E+01 
    1.2046112604617543E+01 
    1.2191237330882137E+01 
    1.8607718098392652E+01 
    1.7917930770518499E+01 
    1.2372606280512228E+01 
    4.3684731142482018E+00 
    1.5449840805553109E+01 
    2.0019245875800831E+01 
    1.2203752900245201E+01 
    1.4255463496593206E+01 
    1.1686337647865402E+01 
    1.9615636781302573E+01 
    1.8008603937365397E+01 
    1.7735146971285172E+01 
    1.2395755939268994E+01 
    5.7637878750128584E+00 
    1.1643104435625332E+01 
    1.1711329425097036E+01 
    1.1755032296126116E+01 
    4.7725116627927449E+00 