# vtk DataFile Version 2.0
Pressure Field Data 
ASCII 
DATASET UNSTRUCTURED_GRID 

POINTS 2860 double 

    0.0000000000000000E+00     0.0000000000000000E+00     0.0000000000000000E+00 
    1.0000000000000000E+00     0.0000000000000000E+00     0.0000000000000000E+00 
    1.0000000000000000E+00     1.0000000000000000E+00     0.0000000000000000E+00 
    0.0000000000000000E+00     1.0000000000000000E+00     0.0000000000000000E+00 
    2.5000000000000000E-01     2.5000000000000000E-01     0.0000000000000000E+00 
    7.5000000000000000E-01     2.5000000000000000E-01     0.0000000000000000E+00 
    7.5000000000000000E-01     7.5000000000000000E-01     0.0000000000000000E+00 
    2.5000000000000000E-01     7.5000000000000000E-01     0.0000000000000000E+00 
    3.1249999999942091E-02     0.0000000000000000E+00     0.0000000000000000E+00 
    6.2499999999873469E-02     0.0000000000000000E+00     0.0000000000000000E+00 
    9.3749999999826514E-02     0.0000000000000000E+00     0.0000000000000000E+00 
    1.2499999999977961E-01     0.0000000000000000E+00     0.0000000000000000E+00 
    1.5624999999968961E-01     0.0000000000000000E+00     0.0000000000000000E+00 
    1.8749999999959971E-01     0.0000000000000000E+00     0.0000000000000000E+00 
    2.1874999999950970E-01     0.0000000000000000E+00     0.0000000000000000E+00 
    2.4999999999941969E-01     0.0000000000000000E+00     0.0000000000000000E+00 
    2.8124999999932920E-01     0.0000000000000000E+00     0.0000000000000000E+00 
    3.1249999999923850E-01     0.0000000000000000E+00     0.0000000000000000E+00 
    3.4374999999914790E-01     0.0000000000000000E+00     0.0000000000000000E+00 
    3.7499999999905720E-01     0.0000000000000000E+00     0.0000000000000000E+00 
    4.0624999999896660E-01     0.0000000000000000E+00     0.0000000000000000E+00 
    4.3749999999887590E-01     0.0000000000000000E+00     0.0000000000000000E+00 
    4.6874999999878530E-01     0.0000000000000000E+00     0.0000000000000000E+00 
    4.9999999999869471E-01     0.0000000000000000E+00     0.0000000000000000E+00 
    5.3124999999877620E-01     0.0000000000000000E+00     0.0000000000000000E+00 
    5.6249999999885780E-01     0.0000000000000000E+00     0.0000000000000000E+00 
    5.9374999999893940E-01     0.0000000000000000E+00     0.0000000000000000E+00 
    6.2499999999902101E-01     0.0000000000000000E+00     0.0000000000000000E+00 
    6.5624999999910261E-01     0.0000000000000000E+00     0.0000000000000000E+00 
    6.8749999999918421E-01     0.0000000000000000E+00     0.0000000000000000E+00 
    7.1874999999926570E-01     0.0000000000000000E+00     0.0000000000000000E+00 
    7.4999999999934730E-01     0.0000000000000000E+00     0.0000000000000000E+00 
    7.8124999999942890E-01     0.0000000000000000E+00     0.0000000000000000E+00 
    8.1249999999951039E-01     0.0000000000000000E+00     0.0000000000000000E+00 
    8.4374999999959199E-01     0.0000000000000000E+00     0.0000000000000000E+00 
    8.7499999999967359E-01     0.0000000000000000E+00     0.0000000000000000E+00 
    9.0624999999975520E-01     0.0000000000000000E+00     0.0000000000000000E+00 
    9.3749999999983680E-01     0.0000000000000000E+00     0.0000000000000000E+00 
    9.6874999999991840E-01     0.0000000000000000E+00     0.0000000000000000E+00 
    1.0000000000000000E+00     3.1249999999942091E-02     0.0000000000000000E+00 
    1.0000000000000000E+00     6.2499999999873469E-02     0.0000000000000000E+00 
    1.0000000000000000E+00     9.3749999999826514E-02     0.0000000000000000E+00 
    1.0000000000000000E+00     1.2499999999977961E-01     0.0000000000000000E+00 
    1.0000000000000000E+00     1.5624999999968961E-01     0.0000000000000000E+00 
    1.0000000000000000E+00     1.8749999999959971E-01     0.0000000000000000E+00 
    1.0000000000000000E+00     2.1874999999950970E-01     0.0000000000000000E+00 
    1.0000000000000000E+00     2.4999999999941969E-01     0.0000000000000000E+00 
    1.0000000000000000E+00     2.8124999999932920E-01     0.0000000000000000E+00 
    1.0000000000000000E+00     3.1249999999923850E-01     0.0000000000000000E+00 
    1.0000000000000000E+00     3.4374999999914790E-01     0.0000000000000000E+00 
    1.0000000000000000E+00     3.7499999999905720E-01     0.0000000000000000E+00 
    1.0000000000000000E+00     4.0624999999896660E-01     0.0000000000000000E+00 
    1.0000000000000000E+00     4.3749999999887590E-01     0.0000000000000000E+00 
    1.0000000000000000E+00     4.6874999999878530E-01     0.0000000000000000E+00 
    1.0000000000000000E+00     4.9999999999869471E-01     0.0000000000000000E+00 
    1.0000000000000000E+00     5.3124999999877620E-01     0.0000000000000000E+00 
    1.0000000000000000E+00     5.6249999999885780E-01     0.0000000000000000E+00 
    1.0000000000000000E+00     5.9374999999893940E-01     0.0000000000000000E+00 
    1.0000000000000000E+00     6.2499999999902101E-01     0.0000000000000000E+00 
    1.0000000000000000E+00     6.5624999999910261E-01     0.0000000000000000E+00 
    1.0000000000000000E+00     6.8749999999918421E-01     0.0000000000000000E+00 
    1.0000000000000000E+00     7.1874999999926570E-01     0.0000000000000000E+00 
    1.0000000000000000E+00     7.4999999999934730E-01     0.0000000000000000E+00 
    1.0000000000000000E+00     7.8124999999942890E-01     0.0000000000000000E+00 
    1.0000000000000000E+00     8.1249999999951039E-01     0.0000000000000000E+00 
    1.0000000000000000E+00     8.4374999999959199E-01     0.0000000000000000E+00 
    1.0000000000000000E+00     8.7499999999967359E-01     0.0000000000000000E+00 
    1.0000000000000000E+00     9.0624999999975520E-01     0.0000000000000000E+00 
    1.0000000000000000E+00     9.3749999999983680E-01     0.0000000000000000E+00 
    1.0000000000000000E+00     9.6874999999991840E-01     0.0000000000000000E+00 
    9.6875000000003686E-01     1.0000000000000000E+00     0.0000000000000000E+00 
    9.3750000000011691E-01     1.0000000000000000E+00     0.0000000000000000E+00 
    9.0625000000015765E-01     1.0000000000000000E+00     0.0000000000000000E+00 
    8.7500000000017863E-01     1.0000000000000000E+00     0.0000000000000000E+00 
    8.4375000000028044E-01     1.0000000000000000E+00     0.0000000000000000E+00 
    8.1250000000040856E-01     1.0000000000000000E+00     0.0000000000000000E+00 
    7.8125000000054956E-01     1.0000000000000000E+00     0.0000000000000000E+00 
    7.5000000000066480E-01     1.0000000000000000E+00     0.0000000000000000E+00 
    7.1875000000086831E-01     1.0000000000000000E+00     0.0000000000000000E+00 
    6.8750000000102829E-01     1.0000000000000000E+00     0.0000000000000000E+00 
    6.5625000000114431E-01     1.0000000000000000E+00     0.0000000000000000E+00 
    6.2500000000129829E-01     1.0000000000000000E+00     0.0000000000000000E+00 
    5.9375000000147926E-01     1.0000000000000000E+00     0.0000000000000000E+00 
    5.6250000000168354E-01     1.0000000000000000E+00     0.0000000000000000E+00 
    5.3125000000188671E-01     1.0000000000000000E+00     0.0000000000000000E+00 
    5.0000000000205835E-01     1.0000000000000000E+00     0.0000000000000000E+00 
    4.6875000000192979E-01     1.0000000000000000E+00     0.0000000000000000E+00 
    4.3750000000180111E-01     1.0000000000000000E+00     0.0000000000000000E+00 
    4.0625000000167238E-01     1.0000000000000000E+00     0.0000000000000000E+00 
    3.7500000000154382E-01     1.0000000000000000E+00     0.0000000000000000E+00 
    3.4375000000141509E-01     1.0000000000000000E+00     0.0000000000000000E+00 
    3.1250000000128642E-01     1.0000000000000000E+00     0.0000000000000000E+00 
    2.8125000000115769E-01     1.0000000000000000E+00     0.0000000000000000E+00 
    2.5000000000102918E-01     1.0000000000000000E+00     0.0000000000000000E+00 
    2.1875000000090050E-01     1.0000000000000000E+00     0.0000000000000000E+00 
    1.8750000000077180E-01     1.0000000000000000E+00     0.0000000000000000E+00 
    1.5625000000064329E-01     1.0000000000000000E+00     0.0000000000000000E+00 
    1.2500000000051459E-01     1.0000000000000000E+00     0.0000000000000000E+00 
    9.3750000000385914E-02     1.0000000000000000E+00     0.0000000000000000E+00 
    6.2500000000257239E-02     1.0000000000000000E+00     0.0000000000000000E+00 
    3.1250000000128557E-02     1.0000000000000000E+00     0.0000000000000000E+00 
    0.0000000000000000E+00     9.6875000000003686E-01     0.0000000000000000E+00 
    0.0000000000000000E+00     9.3750000000011691E-01     0.0000000000000000E+00 
    0.0000000000000000E+00     9.0625000000015765E-01     0.0000000000000000E+00 
    0.0000000000000000E+00     8.7500000000017863E-01     0.0000000000000000E+00 
    0.0000000000000000E+00     8.4375000000028044E-01     0.0000000000000000E+00 
    0.0000000000000000E+00     8.1250000000040856E-01     0.0000000000000000E+00 
    0.0000000000000000E+00     7.8125000000054956E-01     0.0000000000000000E+00 
    0.0000000000000000E+00     7.5000000000066480E-01     0.0000000000000000E+00 
    0.0000000000000000E+00     7.1875000000086831E-01     0.0000000000000000E+00 
    0.0000000000000000E+00     6.8750000000102829E-01     0.0000000000000000E+00 
    0.0000000000000000E+00     6.5625000000114431E-01     0.0000000000000000E+00 
    0.0000000000000000E+00     6.2500000000129829E-01     0.0000000000000000E+00 
    0.0000000000000000E+00     5.9375000000147926E-01     0.0000000000000000E+00 
    0.0000000000000000E+00     5.6250000000168354E-01     0.0000000000000000E+00 
    0.0000000000000000E+00     5.3125000000188671E-01     0.0000000000000000E+00 
    0.0000000000000000E+00     5.0000000000205835E-01     0.0000000000000000E+00 
    0.0000000000000000E+00     4.6875000000192979E-01     0.0000000000000000E+00 
    0.0000000000000000E+00     4.3750000000180111E-01     0.0000000000000000E+00 
    0.0000000000000000E+00     4.0625000000167238E-01     0.0000000000000000E+00 
[...]
CELL_DATA 2795 
SCALARS Pressure double 1 
LOOKUP_TABLE default 

    8.0937495883715229E+00 
    1.9314149152745099E+01 
    1.3307716821480648E+01 
    1.2973308537373985E+01 
    1.0168825977022061E+01 
    1.9028425477368561E+01 
    2.0141991571351511E+01 
    7.1216806606751337E+00 
    1.3888400445242914E+01 
    1.0496191823681158E+01 
    8.8273111048007866E+00 
    1.8590338500895900E+01 
    1.9164186111886323E+01 
    1.8971502843408217E+01 
    1.2210538112572040E+01 
    6.9858820639905517E+00 
    1.1919847229668740E+01 
    9.4463797395749936E+00 
    1.8002940588769615E+01 
    1.3285083584422523E+01 
    1.3177186096685745E+01 
    1.8855785663912702E+01 
    1.2618861515442729E+01 
    4.4741198852583924E-01 
    1.8619642854057830E+01 
    1.9136614431305102E+01 
    2.0191902353409052E+01 
    8.4615840754936986E+00 
    1.8457075376047893E+01 
    2.0175678134327772E+01 
    1.3513621569168640E+01 
    1.3497617078435345E+01 
    9.2019892658178009E+00 
    1.3269324264138874E+01 
    4.0533222298686420E+00 
    1.1929704554919354E+01 
    1.3252670108775300E+01 
    2.0229740781735128E+01 
    2.0115288431387484E+01 
    1.8611581292601731E+01 
    1.0034962571725798E+01 
    1.8682733598713614E+01 
    9.2902772021320268E-01 
    1.3264667396935803E+01 
    1.9938446902326774E+01 
    1.9483992730502312E+01 
    1.8573125337967479E+01 
    1.4328321255440120E+01 
    1.8624627308060052E+01 
    1.2183423125784172E+01 
    1.1611339544844020E+01 
    1.3458183612254144E+01 
    1.3145300043928955E+01 
    1.1975685288919482E+01 
    1.3599456473322716E+01 
    1.7678793832896456E+01 
    1.5593304226661429E+01 
    1.0230985038916661E+01 
    1.8871520431481692E+01 
    1.8720936826220793E+01 
    1.2922091541739073E+01 
    1.2779927643042100E+01 
    1.2849708848703212E+01 
    2.0039767644006734E+01 
    2.0462239097367210E+01 
    1.1927574130610958E+01 
    1.3456181971507025E+01 
    1.8287032883305230E+01 
    1.5402285759733466E+01 
    1.2862828811078312E+01 
    2.0403397755988959E+01 
    1.8862214697103518E+01 
    1.1770821160104864E+01 
    1.9628116753161258E+01 
    1.3894907462524586E+01 
    1.8441281283762169E+01 
    2.0262834585833950E+01 
    1.3928221780876102E+01 
    8.1781574379101052E+00 
    1.3476387736262044E+01 
    2.0121354237238261E+01 
    2.0444568645849401E+01 
    1.1949197097271730E+01 
    1.3399856642070601E+01 
    2.0513502126288518E+01 
    1.3249508705096609E+01 
    1.2736174436848112E+01 
    1.5978132043975068E+01 
    7.8030267096397550E+00 
    1.1647939930765370E+01 
    1.3396066434580582E+01 
    1.4054433411760581E+01 
    2.2332580327161057E+01 
    9.8527221934119993E+00 
    1.3464881348156268E+01 
    1.8542056228547434E+01 
    1.9064767104680222E+01 
    8.5480202356458754E+00 
    1.3097150431204241E+01 
    1.3432854395296790E+01 
    1.9110610945238196E+01 
    1.3419208812487970E+01 
    1.8980050250157248E+01 
    4.8672508473088296E+00 
    8.5710220718952606E+00 
    1.3707023460244912E+01 
    1.9328382172245462E+01 
    1.1889303171562988E+01 
    1.2616953560166989E+01 
    1.3391373655365738E+01 
    1.2695163898347966E+01 
    1.5142510353002789E+01 
    1.2266280362517387E+01 
    1.1782892747500327E+01 
    8.9757410909285138E+00 
    1.5976007634745571E+01 
    1.3503345550051588E+01 
    1.9924896255763784E+01 
    1.1475878274936175E+01 
    1.2946854250558772E+01 
    1.8866378663500466E+01 
    1.0686120545518813E+01 
    1.9575002023727762E+01 
    1.3325611498111748E+01 
    1.2860605260936842E+01 
    1.9074585799278111E+01 
    1.3490129629766974E+01 
    2.0269461420007040E+01 
    1.6009165084692974E+01 
    1.7426705524561068E+01 
    2.0215388854297913E+01 
    9.8736911099453017E+00 
    1.3729071621746662E+01 
    1.9099372605754084E+01 
    3.6030692435851015E+00 
    1.3572578753889115E+01 
    2.0168589680589992E+01 
    1.2893023774330388E+01 
    1.4793595841284434E+01 
    8.4116842448253308E+00 
    1.8557370331759326E+01 
    2.2896345272310235E+01 
    1.6670681100532597E+01 
    1.2896461230922512E+01 
    1.1498430073159174E+01 
    1.4407041861411992E+01 
    1.3343704646772036E+01 
    8.9203232773363119E+00 
    2.0212271009396687E+01 
    1.9055777381623813E+01 
    1.8545926706030777E+01 
    1.4054560180747309E+01 
    1.1717848428015225E+01 
    1.3170598538677227E+01 
    1.9664108804579275E+01 
    1.2077848573733188E+01 
    1.3462798106402897E+01 
    1.2298014434833549E+01 
    1.5748726376898611E+01 
    2.2882991853272724E+01 
    1.8526812705284573E+01 
    1.1543282997651906E+01 
    1.9389330396278648E+01 
    1.9267297033284169E+01 
    1.9385286086159194E+01 
    2.0782165127010632E+01 
    2.1478332730536899E+01 
    1.9450229222018361E+01 
    1.3446934133391787E+01 
    1.4573387666978771E+01 
    1.9188139018335864E+01 
    1.9913937055832516E+01 
    9.3344277393057062E+00 
    1.8568901822189265E+01 
    1.9598326705609065E+01 
    9.0743911624736544E+00 
    2.0687380793883548E+01 
    2.0642800978150685E+01 
    1.8103320342472674E+01 
    1.3809052471835949E+01 
    3.3591065988334634E+00 
    2.0169095686566919E+01 
    1.3638120443222107E+01 
    2.0358835665164182E+01 
    1.2801019644008434E+01 
    1.9850886107022312E+01 
    1.1649955411299364E+00 
    1.7421317691230136E+01 
    1.2835419871272570E+01 
    1.1672440149336548E+01 
    1.1350264616232444E+01 
    1.3290415972186041E+01 
    1.4658183112206245E+01 
    1.3994994048059013E+01 
    9.0870667135971281E+00 
    1.9920572523666834E+01 
    1.9142553000299433E+01 
    1.5554805072641329E+01 
    1.3696732799532244E+01 
    1.8114238069356261E+00 
    1.0381512174466774E+01 
    6.8816623195031212E+00 
    2.0194263713398261E+01 
    1.5003282974003573E+01 
    1.9061566219486387E+01 
    1.9239536899692403E+01 
    1.2165401375370125E+01 
    1.5686795626907644E+01 
    1.8524965712250214E+01 
    2.0626787440500610E+01 
    8.4065162380340528E+00 
    1.6718261457022759E+01 
    1.3970677354496777E+01 
    7.3883232670159558E+00 
    1.2172939187738693E+01 
    1.6427061377808286E+01 
    1.9182935790788076E+01 
    1.3344272145085554E+01 
    1.9352004523688819E+01 
    1.8992192966825140E+01 
    1.8920534530742152E+01 
    1.3173116321833922E+01 
    1.1521068171055651E+01 
    1.8560721901901275E+01 
    1.1757109378928879E+01 
    1.3429963372073455E+01 
    1.1517311723588083E+01 
    1.3404477205666053E+01 
    1.9251117761677548E+01 
    8.0654128029680709E+00 
    1.2050768354321436E+01 
    2.0072796703940089E+01 
    1.3179610077581243E+01 
    1.4870911065950317E+01 
    8.2739747621981117E+00 
    1.1853274997641419E+01 
    1.8957538793505886E+01 
    1.9435350533844062E+01 
    6.7476091113112249E+00 
    1.3197722575857831E+01 
    1.1544827937136677E+01 
    2.1187352558316476E+01 
    2.0462400860625351E+01 
    2.1517229817115009E+01 
    1.3219172222970553E+01 
    1.9212961880716676E+01 
    1.8441345591876015E+01 
    1.3055540839256873E+01 
    1.8543208654236658E+01 
    1.3697103631197139E+01 
    7.4673132944930627E+00 
    1.3630807831570307E+01 
    2.0061316947951632E+01 
    1.8537076979660167E+01 
    8.7732561079168008E+00 
    1.8582243892653125E+01 
    1.4693100280474692E+01 
    1.3546035353522777E+01 
    1.2983481746805889E+01 
    1.8315404206759560E+01 
    1.4201662684045237E+01 
    1.8566181078248437E+01 
    1.3188652437288562E+01 
    7.7207833029884121E+00 
    1.3514958034456065E+01 
    1.1360613754032594E+01 
    1.6700779297050243E+01 
    2.0337591199176686E+01 
    1.8563216124126335E+01 
    2.0158169308025307E+01 
    1.3110687634138102E+01 
    8.5436169704845906E+00 
    8.6712614634976024E+00 
    1.3782114674631542E+01 
    1.3397151796715873E+01 
    1.8353692944116129E+00 
    1.7724603429294842E+01 
    2.0840627334534819E+01 
    1.2823800501556713E+01 
    7.8537180270511975E+00 
    1.5484456167243057E+01 
    1.8575331307196766E+01 
    9.5122311158016419E+00 
    6.1707131593266764E+00 
    1.3383600124637228E+01 
    1.8715244121293733E+01 
    1.9803634264129435E+01 
    1.9489834752205855E+01 
    1.9439280480862898E+01 
    9.2221920136514868E+00 
    1.3540601247569564E+01 
    1.8014962886541035E+01 
    1.0288050054784522E+01 
    1.9140671508144919E+01 
    1.5986839215524062E+01 
    8.8019093146589178E+00 
    1.8704238915010929E+01 
    2.0206207114206276E+01 
    1.8820071878343640E+01 
    9.1308322394191137E+00 
    1.3451765317454411E+01 
    1.0134381386808116E+01 
    1.2651154357553411E+01 
    1.8566108762716674E+01 
    1.8548824793710317E+01 
    9.1899422391670402E+00 
    1.9913722900820410E+01 
    1.4112777358909382E+01 
    1.8625132929634265E+01 
    1.9988373891676073E+01 
    1.8594157854915508E+01 
    1.7009102480845339E+01 
    2.1265632729294079E+01 
    1.2749625587199933E+01 
    2.0115332644226871E+01 
    1.8650041897445064E+01 
    2.0219867133184579E+01 
    1.9902143453012556E+01 
    1.2884064225552539E+01 
    1.3295226260082634E+01 
    1.2813202002263941E+01 
    1.6280711049941097E+01 
    4.8990343176192157E+00 
    1.3701025387157303E+01 
    2.1420460722335775E+01 
    1.3703324392424753E+01 
    1.3948373813911886E+01 
    2.0179687853411657E+01 
    2.0488488419628439E+01 
    1.2613724175320689E+01 
    1.8587862544633630E+01 
    1.8549126019924536E+01 
    1.3931822184327013E+01 
    1.9829721172063341E+01 
    9.2705135700527102E+00 
    5.8695896522314408E+00 
    1.4304718881439308E+01 
    1.3718312744192822E+01 
    1.8540941269115578E+01 
    8.5294237274929330E+00 
    1.9379823830187227E+01 
    5.9825692201771146E+00 
    1.3645471788212607E+01 
    1.2888032810852188E+01 
    1.3426274339802440E+01 
    2.2935747623713635E+01 
    4.7374529408423118E+00 
    1.3594628559086525E+01 
    1.6321261429934893E+01 
    1.2987570575446924E+01 
    1.0121076176584273E+01 
    1.9651935724538706E+01 
    2.2440547872353378E+01 
    1.9822747929290284E+01 
    1.3515554423433969E+01 
    7.3567387305231273E+00 
    2.2272437503349707E+01 
    1.9118272432361401E+01 
    9.5482586828503120E+00 
    1.3081357196470723E+01 
    2.0756949950679608E+01 
    4.0048811460062721E+00 
    1.3786447731511918E+01 
    1.9909428376862166E+01 
    1.3444137668178653E+01 
    1.1594196763091599E+01 
    1.3645889317003903E+01 
    1.8148236200613820E+01 
    1.3425209060519881E+01 
    6.4614460511413920E+00 
    1.1519912375126435E+00 
    9.7733419573861582E+00 
    2.1061699061486298E+01 
    1.2813080351829075E+01 
    1.5244463115530216E+01 
    1.4597121815579932E+01 
    1.6793228382356126E+01 
    1.3458968766188278E+01 
    1.8975123015288119E+01 
    2.2951077002177083E+01 
    1.5867386379448927E+01 
    2.0074500952528343E+01 
    6.6999886980488399E-01 
    1.8549973095565619E+01 
    7.1807216411920107E+00 
    2.1625515831676822E+01 
    1.3612193560857278E+01 
    1.1863696883585169E+01 
    1.0357730610055851E+01 
    6.8313048183536571E+00 
    1.4915902392788048E+01 
    1.0422839135819858E+01 
    1.6550483955300436E+01 
    2.8175110377263834E+00 
    1.4742609733631094E+01 
    1.8426225244664323E+01 
    7.8557273016305595E+00 
    1.9245918822436217E+01 
    2.1340852060904460E+01 
    1.9056394978253397E+01 
    1.3433963108708923E+01 
    1.3419037685204222E+01 
    1.3602836848236048E+01 
    7.4794406966386617E+00 
    1.2446122386104554E+01 
    1.2236501618763231E+01 
    1.3588640648897114E+01 
    1.2719760618103146E+01 
    8.5980667575689074E-01 
    8.3287851221552742E+00 
    1.3217844534056519E+01 
    1.3555537026111663E+01 
    1.7051036709552417E+01 
    2.6164376557058069E+00 
    1.3878722893645023E+01 
    1.3727552410710018E+01 
    4.5456085846086776E+00 
    1.8843755295124751E+01 
    1.1766666057943633E+01 
    1.3568050921668982E+01 
    1.9104274248462215E+01 
    6.8594311874955292E+00 
    1.8997656055811781E+01 
    1.1952641266216324E+01 
    1.1786109059793353E+00 
    1.2892093057443175E+01 
    1.9971845917911200E+01 
    1.8555946692614789E+01 
    1.8589655808981785E+01 
    1.4045692654208249E+01 
    1.3648669148989626E+01 
    1.1765797431918580E+01 
    9.1157318427431147E+00 
    1.9273747703104075E+01 
    1.3074823373020958E+01 
    8.8182214007961814E+00 
    1.8578918807458034E+01 
    1.9648804642570113E+01 
    1.3811814564545680E+01 
    1.3234118182899559E+01 
    2.2816782649888573E+01 
    1.3933098580972208E+01 
    1.9310708029398544E+01 
    1.1120061315795914E+01 
    2.2979367541078979E+01 
    8.6204683291964006E+00 
    1.2266779268221871E+01 
    9.7112886026654230E+00 
    1.4239733495253741E+01 
    1.1291476828444315E+01 
    2.2962028985305327E+01 
    1.3996718954832689E+01 
    1.8125612237653229E+01 
    8.8692267532495759E+00 
    1.3452351140806536E+01 
    1.9070074100715097E+01 
    1.1341878739444875E+01 
    9.5487799328001959E+00 
    1.5127085986911977E+01 
    1.9335241902229868E+01 
    9.5730554078780514E+00 
    1.2917895798994097E+01 
    1.3277831294395588E+01 
    1.8513188903279524E+01 
    1.3011066953182480E+01 
    1.9383354268156374E+01 
    2.0260378445537828E+01 
    1.1797805120644387E+01 
    1.1539110644133196E+01 
    1.0456656982650022E+01 
    1.8737664227243958E+01 
    1.3748759133422908E+01 
    2.2483608603953037E+01 
    1.7236149732457477E+01 
    1.9001652354904767E+01 
    2.2119051866049119E+01 
    2.1346236038764516E+01 
    1.3504166222303253E+01 
    1.3568736195172796E+01 
    1.8123783842896273E+01 
    1.8611775656426452E+01 
    1.9570877374828484E+01 
    1.9146782968243734E+01 
    2.2845133549127986E+01 
    1.3932457587673323E+01 
    1.1943079513694125E+01 
    1.3897294177861150E+01 
    2.0135128043494877E+01 
    1.3609144099279691E+01 
    7.6518315530823342E+00 
    1.3412673179566614E+01 
    2.0725302023957862E+01 
    1.3773540433868881E+01 
    1.1954937478719447E+01 
    1.3214151290062498E+01 
    2.0868394211616138E+01 
    1.8783425937273908E+01 
    1.1245190199123458E+01 
    2.1048541603216343E+01 
    1.3535497640821841E+01 
    1.9538678803914813E+01 
    2.0885275083668283E+01 
    1.4344182823201782E+01 
    6.8674941374699179E+00 
    1.4918265573090096E+01 
    7.1293382914312389E+00 
    1.3664474241930325E+01 
    1.3449656918816389E+01 
    1.5729173678602022E+01 
    7.5887542824221210E+00 
    1.6769298380104857E+01 
    1.3466744030531965E+01 
    1.9133244510905396E+01 
    1.4506891695515467E+01 
    1.0854774327139443E+01 
    1.3051887567949786E+01 
    1.4243999513173874E+01 
    1.4069621334404193E+01 
    2.0362391562870776E+01 
    1.1373239446540103E+01 
    1.1157082540214542E+01 
    8.0245984644365631E+00 
    1.9623796855794506E+01 
    1.3104856462576800E+01 
    1.8440677604994146E+01 
    1.3415380223563487E+01 
    8.8636096741231540E+00 
    1.8802564856481158E+01 
    1.3390730974337258E+01 
    9.7722323697337217E+00 
    1.0437533892755553E+01 
    1.0859649066657854E+01 
    1.9176808224852266E+01 
    1.3591230288743221E+01 
    2.0084917985138699E+01 
    1.3348900228246245E+01 
    1.3283388023019691E+01 
    1.2812166645394905E+01 
    1.8930494150515067E+01 
    1.3187032580574446E+01 
    1.0921500606306163E+01 
    2.1335352978281172E+01 
    1.9050109052903405E+01 
    9.0432808563654010E+00 
    3.3023929067187634E+00 
    1.3577816262220049E+01 
    1.2639429250279022E+01 
    1.1538224653622041E+01 
    1.2546508551317750E+01 
    1.8891763724090517E+01 
    1.3192377434235155E+01 
    1.1982425945366453E+01 
    1.8650225583152721E+01 
    8.9627196391075756E+00 
    1.8072395170494378E+01 
    1.2137140601582962E+01 
    1.0734710495646841E+01 
    1.1661969517924827E+01 
    1.9660914212739701E+01 
    1.3428826275324582E+01 
    1.3438422469054501E+01 
    7.7260442426299347E+00 
    8.4344043928471830E+00 
    1.7129454000421113E+01 
    1.3449420700843936E+01 
    1.3629206712580212E+01 
    2.1032547070915165E+01 
    1.1157227293114188E+01 
    1.3463032614083829E+01 
    9.2977020746436576E+00 
    9.6239452178625573E+00 
    1.8883058395895851E+01 
    1.3037475766245620E+01 
    9.4032463610088168E+00 
    1.4057047203269805E+01 
    1.3351388373875114E+01 
    1.8902179574226665E+01 
    2.1152194928064652E+01 
    1.2468652932443052E+00 
    1.3584155143849930E+01 
    1.3716955630236514E+01 
    1.9023159627334515E+01 
    1.2982547793929291E+01 
    1.3397341822341973E+01 
    2.0456286592312566E+01 
    1.1709683729387589E+01 
    9.4940037738834295E+00 
    1.6138668156345670E+01 
    1.8575657440392735E+01 
    2.0216045680080502E+01 
    2.0582900575136385E+01 
    1.3379495875605647E+01 
    1.3572866471503080E+01 
    1.4981760543710010E+01 
    8.5684716124887803E+00 
    1.8796727873592268E+01 
    1.0314970392205499E+01 
    8.9446743286361716E+00 
    1.6791670687444068E+01 
    1.5738692885028938E+01 
    8.7620113240694373E+00 
    1.8632854577646750E+01 
    2.0196445241893567E+01 
    1.3953359563241785E+01 
    2.1283209760341101E+01 
    1.8686510594689338E+01 
    1.3049926561059403E+01 
    1.9733954153548659E+01 
    9.6058599504988873E+00 
    1.8600039351780232E+01 
    1.3582664902795425E+01 
    1.3534378723149326E+01 
    2.1257411946988466E+01 
    1.3156126800198464E+01 
    1.6409996273218553E+01 
    1.1629623194990510E+01 
    2.0363277972896888E+01 
    1.8442102193692442E+01 
    1.2138315984514605E+01 
    1.8551631607707076E+01 
    1.2170481761491612E+01 
    1.3403991148926764E+01 
    2.0139326757743454E+01 
    1.9132865286295011E+01 
    2.0200712958751385E+01 
    1.9026384037644643E+01 
    1.2463645252759868E+01 
    1.2725806536420405E+01 
    2.0211262822676687E+01 
    1.2894072989568180E+01 
    1.8295282698207224E+01 
    1.3130658795188134E+01 
    4.9520857239157499E+00 
    9.0485457741697903E+00 
    8.3608628575393045E+00 
    2.0143639327054636E+01 
    2.1162330658929598E+01 
    1.8571956677766988E+01 
    1.5426553379485881E+01 
    1.9024057059331774E+01 
    1.8646525224633109E+01 
    1.9610190102451416E+01 
    7.4234269770220500E+00 
    4.5821860622641939E+00 
    1.5132357791647763E+01 
    1.3177463972818725E+01 
    1.8907879802602348E+01 
    1.8902928177143906E+01 
    1.3738958988793588E+01 
    1.8965502366681925E+01 
    1.3565446772481694E+01 
    1.3460999362529664E+01 
    6.6157967197848837E+00 
    4.5444816027811044E+00 
    2.0860209725726463E+01 
    1.0257044900688001E+01 
    1.2077578315383906E+01 
    1.3622579397357546E+01 
    2.2820513197144177E+01 
    1.3728330875717123E+01 
    1.3956033860712946E+01 
    5.2791550482934486E+00 
    1.3728134769355380E+01 
    1.3744565519881480E+01 
    1.9296036651739946E+01 
    1.1661262051334786E+01 
    1.2870579449320040E+01 
    2.1086837657442647E+01 
    1.3594883691015291E+01 
    1.8593996738385677E+01 
    1.8943870229485189E+01 
    1.6500952923122661E+01 
    1.1277715630193054E+01 
    1.9022961295536469E+01 
    1.3340276769459642E+01 
    1.8853285342187110E+01 
    1.8489186065313234E+01 
    2.0171384894642010E+01 
    1.9029252729830159E+01 
    1.7456517440501635E+01 
    1.3580131405445343E+01 
    8.6978037250805524E+00 
    2.2677891885295459E+01 
    1.0553358634274922E+01 
    2.0061780127502040E+01 
    1.3576854907619289E+01 
    1.1216715350108212E+01 
    6.2865780031832195E+00 
    1.3787484940880901E+01 
    1.9005379937695899E+01 
    1.8989237008358970E+01 
    1.3381286110544957E+01 
    1.3569504440812945E+01 
    2.1344975835001385E+01 
    2.0504858700281755E+01 
    1.3751922588509954E+01 
    4.2638293084477734E+00 
    1.7334587415258195E+01 
    2.2957542949628557E+01 
    1.3584317306341747E+01 
    1.5940534211407307E+01 
    1.2981972472386582E+01 
    2.2513035479018804E+01 
    2.0618909086965733E+01 
    2.0303910965854460E+01 
    1.3778416918720218E+01 
    5.8882687769649609E+00 
    1.2930033848889273E+01 
    1.3010866003869857E+01 
    1.3059321311835124E+01 
    4.6880683959297302E+00 