# vtk DataFile Version 2.0
Pressure Field Data 
ASCII 
DATASET UNSTRUCTURED_GRID 

POINTS 2860 double 

    0.0000000000000000E+00     0.0000000000000000E+00     0.0000000000000000E+00 
    1.0000000000000000E+00     0.0000000000000000E+00     0.0000000000000000E+00 
    1.0000000000000000E+00     1.0000000000000000E+00     0.0000000000000000E+00 
    0.0000000000000000E+00     1.0000000000000000E+00     0.0000000000000000E+00 
    2.5000000000000000E-01     2.5000000000000000E-01     0.0000000000000000E+00 
    7.5000000000000000E-01     2.5000000000000000E-01     0.0000000000000000E+00 
    7.5000000000000000E-01     7.5000000000000000E-01     0.0000000000000000E+00 
    2.5000000000000000E-01     7.5000000000000000E-01     0.0000000000000000E+00 
    3.1249999999942091E-02     0.0000000000000000E+00     0.0000000000000000E+00 
    6.2499999999873469E-02     0.0000000000000000E+00     0.0000000000000000E+00 
    9.3749999999826514E-02     0.0000000000000000E+00     0.0000000000000000E+00 
    1.2499999999977961E-01     0.0000000000000000E+00     0.0000000000000000E+00 
    1.5624999999968961E-01     0.0000000000000000E+00     0.0000000000000000E+00 
    1.8749999999959971E-01     0.0000000000000000E+00     0.0000000000000000E+00 
    2.1874999999950970E-01     0.0000000000000000E+00     0.0000000000000000E+00 
    2.4999999999941969E-01     0.0000000000000000E+00     0.0000000000000000E+00 
    2.8124999999932920E-01     0.0000000000000000E+00     0.0000000000000000E+00 
    3.1249999999923850E-01     0.0000000000000000E+00     0.0000000000000000E+00 
    3.4374999999914790E-01     0.0000000000000000E+00     0.0000000000000000E+00 
    3.7499999999905720E-01     0.0000000000000000E+00     0.0000000000000000E+00 
    4.0624999999896660E-01     0.0000000000000000E+00     0.0000000000000000E+00 
    4.3749999999887590E-01     0.0000000000000000E+00     0.0000000000000000E+00 
    4.6874999999878530E-01     0.0000000000000000E+00     0.0000000000000000E+00 
    4.9999999999869471E-01     0.0000000000000000E+00     0.0000000000000000E+00 
    5.3124999999877620E-01     0.0000000000000000E+00     0.0000000000000000E+00 
    5.6249999999885780E-01     0.0000000000000000E+00     0.0000000000000000E+00 
    5.9374999999893940E-01     0.0000000000000000E+00     0.0000000000000000E+00 
    6.2499999999902101E-01     0.0000000000000000E+00     0.0000000000000000E+00 
    6.5624999999910261E-01     0.0000000000000000E+00     0.0000000000000000E+00 
    6.8749999999918421E-01     0.0000000000000000E+00     0.0000000000000000E+00 
    7.1874999999926570E-01     0.0000000000000000E+00     0.0000000000000000E+00 
    7.4999999999934730E-01     0.0000000000000000E+00     0.0000000000000000E+00 
    7.8124999999942890E-01     0.0000000000000000E+00     0.0000000000000000E+00 
    8.1249999999951039E-01     0.0000000000000000E+00     0.0000000000000000E+00 
    8.4374999999959199E-01     0.0000000000000000E+00     0.0000000000000000E+00 
    8.7499999999967359E-01     0.0000000000000000E+00     0.0000000000000000E+00 
    9.0624999999975520E-01     0.0000000000000000E+00     0.0000000000000000E+00 
    9.3749999999983680E-01     0.0000000000000000E+00     0.0000000000000000E+00 
    9.6874999999991840E-01     0.0000000000000000E+00     0.0000000000000000E+00 
    1.0000000000000000E+00     3.1249999999942091E-02     0.0000000000000000E+00 
    1.0000000000000000E+00     6.2499999999873469E-02     0.0000000000000000E+00 
    1.0000000000000000E+00     9.3749999999826514E-02     0.0000000000000000E+00 
    1.0000000000000000E+00     1.2499999999977961E-01     0.0000000000000000E+00 
    1.0000000000000000E+00     1.5624999999968961E-01     0.0000000000000000E+00 
    1.0000000000000000E+00     1.8749999999959971E-01     0.0000000000000000E+00 
    1.0000000000000000E+00     2.1874999999950970E-01     0.0000000000000000E+00 
    1.0000000000000000E+00     2.4999999999941969E-01     0.0000000000000000E+00 
    1.0000000000000000E+00     2.8124999999932920E-01     0.0000000000000000E+00 
    1.0000000000000000E+00     3.1249999999923850E-01     0.0000000000000000E+00 
    1.0000000000000000E+00     3.4374999999914790E-01     0.0000000000000000E+00 
    1.0000000000000000E+00     3.7499999999905720E-01     0.0000000000000000E+00 
    1.0000000000000000E+00     4.0624999999896660E-01     0.0000000000000000E+00 
    1.0000000000000000E+00     4.3749999999887590E-01     0.0000000000000000E+00 
    1.0000000000000000E+00     4.6874999999878530E-01     0.0000000000000000E+00 
    1.0000000000000000E+00     4.9999999999869471E-01     0.0000000000000000E+00 
    1.0000000000000000E+00     5.3124999999877620E-01     0.0000000000000000E+00 
    1.0000000000000000E+00     5.6249999999885780E-01     0.0000000000000000E+00 
    1.0000000000000000E+00     5.9374999999893940E-01     0.0000000000000000E+00 
    1.0000000000000000E+00     6.2499999999902101E-01     0.0000000000000000E+00 
    1.0000000000000000E+00     6.5624999999910261E-01     0.0000000000000000E+00 
    1.0000000000000000E+00     6.8749999999918421E-01     0.0000000000000000E+00 
    1.0000000000000000E+00     7.1874999999926570E-01     0.0000000000000000E+00 
    1.0000000000000000E+00     7.4999999999934730E-01     0.0000000000000000E+00 
    1.0000000000000000E+00     7.8124999999942890E-01     0.0000000000000000E+00 
    1.0000000000000000E+00     8.1249999999951039E-01     0.0000000000000000E+00 
    1.0000000000000000E+00     8.4374999999959199E-01     0.0000000000000000E+00 
    1.0000000000000000E+00     8.7499999999967359E-01     0.0000000000000000E+00 
    1.0000000000000000E+00     9.0624999999975520E-01     0.0000000000000000E+00 
    1.0000000000000000E+00     9.3749999999983680E-01     0.0000000000000000E+00 
    1.0000000000000000E+00     9.6874999999991840E-01     0.0000000000000000E+00 
    9.6875000000003686E-01     1.0000000000000000E+00     0.0000000000000000E+00 
    9.3750000000011691E-01     1.0000000000000000E+00     0.0000000000000000E+00 
    9.0625000000015765E-01     1.0000000000000000E+00     0.0000000000000000E+00 
    8.7500000000017863E-01     1.0000000000000000E+00     0.0000000000000000E+00 
    8.4375000000028044E-01     1.0000000000000000E+00     0.0000000000000000E+00 
    8.1250000000040856E-01     1.0000000000000000E+00     0.0000000000000000E+00 
    7.8125000000054956E-01     1.0000000000000000E+00     0.0000000000000000E+00 
    7.5000000000066480E-01     1.0000000000000000E+00     0.0000000000000000E+00 
    7.1875000000086831E-01     1.0000000000000000E+00     0.0000000000000000E+00 
    6.8750000000102829E-01     1.0000000000000000E+00     0.0000000000000000E+00 
    6.5625000000114431E-01     1.0000000000000000E+00     0.0000000000000000E+00 
    6.2500000000129829E-01     1.0000000000000000E+00     0.0000000000000000E+00 
    5.9375000000147926E-01     1.0000000000000000E+00     0.0000000000000000E+00 
    5.6250000000168354E-01     1.0000000000000000E+00     0.0000000000000000E+00 
    5.3125000000188671E-01     1.0000000000000000E+00     0.0000000000000000E+00 
    5.0000000000205835E-01     1.0000000000000000E+00     0.0000000000000000E+00 
    4.6875000000192979E-01     1.0000000000000000E+00     0.0000000000000000E+00 
    4.3750000000180111E-01     1.0000000000000000E+00     0.0000000000000000E+00 
    4.0625000000167238E-01     1.0000000000000000E+00     0.0000000000000000E+00 
    3.7500000000154382E-01     1.0000000000000000E+00     0.0000000000000000E+00 
    3.4375000000141509E-01     1.0000000000000000E+00     0.0000000000000000E+00 
    3.1250000000128642E-01     1.0000000000000000E+00     0.0000000000000000E+00 
    2.8125000000115769E-01     1.0000000000000000E+00     0.0000000000000000E+00 
    2.5000000000102918E-01     1.0000000000000000E+00     0.0000000000000000E+00 
    2.1875000000090050E-01     1.0000000000000000E+00     0.0000000000000000E+00 
    1.8750000000077180E-01     1.0000000000000000E+00     0.0000000000000000E+00 
    1.5625000000064329E-01     1.0000000000000000E+00     0.0000000000000000E+00 
    1.2500000000051459E-01     1.0000000000000000E+00     0.0000000000000000E+00 
    9.3750000000385914E-02     1.0000000000000000E+00     0.0000000000000000E+00 
    6.2500000000257239E-02     1.0000000000000000E+00     0.0000000000000000E+00 
    3.1250000000128557E-02     1.0000000000000000E+00     0.0000000000000000E+00 
    0.0000000000000000E+00     9.6875000000003686E-01     0.0000000000000000E+00 
    0.0000000000000000E+00     9.3750000000011691E-01     0.0000000000000000E+00 
    0.0000000000000000E+00     9.0625000000015765E-01     0.0000000000000000E+00 
    0.0000000000000000E+00     8.7500000000017863E-01     0.0000000000000000E+00 
    0.0000000000000000E+00     8.4375000000028044E-01     0.0000000000000000E+00 
    0.0000000000000000E+00     8.1250000000040856E-01     0.0000000000000000E+00 
    0.0000000000000000E+00     7.8125000000054956E-01     0.0000000000000000E+00 
    0.0000000000000000E+00     7.5000000000066480E-01     0.0000000000000000E+00 
    0.0000000000000000E+00     7.1875000000086831E-01     0.0000000000000000E+00 
    0.0000000000000000E+00     6.8750000000102829E-01     0.0000000000000000E+00 
    0.0000000000000000E+00     6.5625000000114431E-01     0.0000000000000000E+00 
    0.0000000000000000E+00     6.2500000000129829E-01     0.0000000000000000E+00 
    0.0000000000000000E+00     5.9375000000147926E-01     0.0000000000000000E+00 
    0.0000000000000000E+00     5.6250000000168354E-01     0.0000000000000000E+00 
    0.0000000000000000E+00     5.3125000000188671E-01     0.0000000000000000E+00 
    0.0000000000000000E+00     5.0000000000205835E-01     0.0000000000000000E+00 
    0.0000000000000000E+00     4.6875000000192979E-01     0.0000000000000000E+00 
    0.0000000000000000E+00     4.3750000000180111E-01     0.0000000000000000E+00 
    0.0000000000000000E+00     4.0625000000167238E-01     0.0000000000000000E+00 
[...]
CELL_DATA 2795 
SCALARS Pressure double 1 
LOOKUP_TABLE default 

    6.3489384992285860E+00 
    1.3919202190098767E+01 
    9.8464041456251472E+00 
    9.5358860425263572E+00 
    7.6993018876153689E+00 
    1.3789419771975680E+01 
    1.4491516378506711E+01 
    5.7150799936396766E+00 
    1.0408603901225479E+01 
    7.9355436001858273E+00 
    6.7687188480323259E+00 
    1.3544231729370189E+01 
    1.3834688167449503E+01 
    1.3760094229925706E+01 
    9.0598657389968071E+00 
    5.6263033717143740E+00 
    8.8252565525628341E+00 
    7.2039123536250216E+00 
    1.3197730644879517E+01 
    9.8344934315143515E+00 
    9.7280586654107672E+00 
    1.3697212936833195E+01 
    9.2828489928375948E+00 
    3.8797554245223437E-01 
    1.3562895548772856E+01 
    1.3802707276349233E+01 
    1.4522281023776108E+01 
    6.5179626619138160E+00 
    1.3468341147161574E+01 
    1.4507582453847959E+01 
    9.9836397337997820E+00 
    1.0053543667905336E+01 
    7.0120691929182710E+00 
    9.8083167184132183E+00 
    3.3080980161265914E+00 
    8.8276781129911743E+00 
    9.7969775792986482E+00 
    1.4545306445139424E+01 
    1.4469885247056128E+01 
    1.3556795206062072E+01 
    7.6539369547547302E+00 
    1.3531094134640284E+01 
    8.0944786158737680E-01 
    9.7800535997148828E+00 
    1.4296895840677195E+01 
    1.4126588143997422E+01 
    1.3533953470356623E+01 
    1.0738867908133665E+01 
    1.3603033875491487E+01 
    9.0151109451300080E+00 
    8.6183796404549042E+00 
    1.0018756924091248E+01 
    9.6667033090835357E+00 
    8.8766200053094959E+00 
    1.0055076129667180E+01 
    1.2997312848769344E+01 
    1.1674633472761940E+01 
    7.7393356266101216E+00 
    1.3701189072587649E+01 
    1.3628733583270131E+01 
    9.5506583601794226E+00 
    9.4647068949719380E+00 
    9.4441774853248397E+00 
    1.4414364425467399E+01 
    1.4668417643578952E+01 
    8.8372801055891230E+00 
    1.0017875695650512E+01 
    1.3450045293984525E+01 
    1.1517634583887565E+01 
    9.5029279907357775E+00 
    1.4675408461596149E+01 
    1.3661242581206558E+01 
    8.7211196057981866E+00 
    1.4228838959099077E+01 
    1.0285809961181455E+01 
    1.3423459907531344E+01 
    1.4561347969096921E+01 
    1.0296085710506633E+01 
    6.4965625294910057E+00 
    1.0036363572896493E+01 
    1.4477914803022587E+01 
    1.4694131863567987E+01 
    8.8500508191221261E+00 
    9.9534495271420909E+00 
    1.4740844871822976E+01 
    9.7990944969034501E+00 
    9.3643565675091693E+00 
    1.1920260768046113E+01 
    6.2105897794532305E+00 
    8.6442398798311615E+00 
    9.9526761957818266E+00 
    1.0556547864210927E+01 
    1.6146759684071569E+01 
    7.4939058267034886E+00 
    1.0025962435070626E+01 
    1.3513094156736543E+01 
    1.3788592553011028E+01 
    6.6542280326173211E+00 
    9.6688117255591397E+00 
    9.9837390212977741E+00 
    1.3807837703248737E+01 
    9.9832726293881269E+00 
    1.3744310758555553E+01 
    4.1477281789492890E+00 
    6.5781222471772844E+00 
    1.0251093466724566E+01 
    1.3926665923714543E+01 
    8.7957901887316670E+00 
    9.3467289130910434E+00 
    9.9672382455078576E+00 
    9.3384331698420802E+00 
    1.1301700333672400E+01 
    9.1018480587753743E+00 
    8.7278713647163855E+00 
    7.0089656127568309E+00 
    1.1729542256217092E+01 
    1.0055560824058999E+01 
    1.4331873967329672E+01 
    8.6220010987697631E+00 
    9.5211119896393104E+00 
    1.3647052350360440E+01 
    8.0490020495506585E+00 
    1.4073267213203694E+01 
    9.8764150651234441E+00 
    9.4538113648359445E+00 
    1.3790500565592922E+01 
    1.0048664602090669E+01 
    1.4571352982139315E+01 
    1.1934087760201152E+01 
    1.2849598237668847E+01 
    1.4538499829372279E+01 
    7.5075350619786061E+00 
    1.0276529506849515E+01 
    1.3789478362415355E+01 
    3.1166201711106800E+00 
    1.0033409502304846E+01 
    1.4506239797781145E+01 
    9.4832151234324602E+00 
    1.0921562327312605E+01 
    6.6321990888920048E+00 
    1.3511412759820461E+01 
    1.6615786786331604E+01 
    1.2383966167445916E+01 
    9.4799466473788865E+00 
    8.5459901028538017E+00 
    1.0685778701243310E+01 
    9.8935338771383456E+00 
    6.8346544676317098E+00 
    1.4532175372156102E+01 
    1.3846630099079089E+01 
    1.3514761439283280E+01 
    1.0547814864236978E+01 
    8.6977147428727370E+00 
    9.7259065921668970E+00 
    1.4253683802672663E+01 
    8.9182397433912151E+00 
    9.9457141205932142E+00 
    9.0658401407058733E+00 
    1.1477715613174119E+01 
    1.6604327152419067E+01 
    1.3506540813707865E+01 
    8.6736056170499367E+00 
    1.3973520952824247E+01 
    1.3888121147901526E+01 
    1.3964031581492483E+01 
    1.4928971076920373E+01 
    1.5451088850518476E+01 
    1.4127810348214199E+01 
    1.0009610422527043E+01 
    1.0813346843614561E+01 
    1.3963572746134723E+01 
    1.4346531068620603E+01 
    7.1078134120199863E+00 
    1.3533526413885758E+01 
    1.4217468230309525E+01 
    6.9437392305530938E+00 
    1.4848281546126055E+01 
    1.4831586229455047E+01 
    1.3263823303145060E+01 
    1.0342115840444785E+01 
    2.6884622809578582E+00 
    1.4504738764436508E+01 
    1.0190030262452408E+01 
    1.4621906891214502E+01 
    9.4206683228912471E+00 
    1.4350013717291674E+01 
    9.9377351932927616E-01 
    1.2862848661254862E+01 
    9.5076317517572235E+00 
    8.6613356888960968E+00 
    8.4515478773761608E+00 
    9.8457016267989204E+00 
    1.0957265699335506E+01 
    1.0314570766521994E+01 
    7.1032366990154223E+00 
    1.4338106151314291E+01 
    1.3811373573902099E+01 
    1.1638659929709359E+01 
    1.0246976266188630E+01 
    1.5960229658455185E+00 
    7.8354578761894027E+00 
    5.5834798832111687E+00 
    1.4518729626597947E+01 
    1.1151781657327223E+01 
    1.3863902178616458E+01 
    1.3875021887451684E+01 
    9.0011778975049577E+00 
    1.1715111087311548E+01 
    1.3510071655034571E+01 
    1.4817190755260970E+01 
    6.6001878777045286E+00 
    1.2267629337849749E+01 
    1.0373102607527846E+01 
    5.9284733067434097E+00 
    8.9834369157304756E+00 
    1.2281105808003009E+01 
    1.3838304553093199E+01 
    9.9003831046106754E+00 
    1.3943216796871006E+01 
    1.3720531315657054E+01 
    1.3671811835714879E+01 
    9.7317813773991748E+00 
    8.5957200749222746E+00 
    1.3522617642232127E+01 
    8.7164393677655632E+00 
    9.9882335401301212E+00 
    8.5596326113159034E+00 
    9.8810193807119191E+00 
    1.3883840688274180E+01 
    6.2059145283401689E+00 
    8.9027971113298143E+00 
    1.4439820185845727E+01 
    9.7440754478463543E+00 
    1.1050032894110897E+01 
    6.3702206733381903E+00 
    8.7700861515346809E+00 
    1.3700304368989912E+01 
    1.3996274459794630E+01 
    5.2172053001084260E+00 
    9.7500300937800528E+00 
    8.6028282568827077E+00 
    1.5226029064304502E+01 
    1.4703782896822098E+01 
    1.5476347937868372E+01 
    9.7706283073971694E+00 
    1.3857914230300246E+01 
    1.3468378209738937E+01 
    9.6428536482482485E+00 
    1.3514971157672729E+01 
    1.0247955925903346E+01 
    6.0072866627969255E+00 
    1.0084877529608525E+01 
    1.4424677088195406E+01 
    1.3511891448745954E+01 
    6.7315534115139037E+00 
    1.3540186566397407E+01 
    1.0974000539375938E+01 
    1.0015343261722681E+01 
    9.5582065500202216E+00 
    1.3384247076383680E+01 
    1.0526138451726409E+01 
    1.3527530090156407E+01 
    9.7126281011218243E+00 
    6.1929407798332790E+00 
    1.0059969097633468E+01 
    8.4596318125974204E+00 
    1.2389789165731701E+01 
    1.4619728516533165E+01 
    1.3520987916922092E+01 
    1.4499430431736720E+01 
    9.6915802931976245E+00 
    6.5731762628330932E+00 
    6.6581546919956516E+00 
    1.0197577443489745E+01 
    9.9641840896646290E+00 
    1.5163163372736774E+00 
    1.3042476500931375E+01 
    1.4960354110213672E+01 
    9.4309642850811581E+00 
    6.2274586215832510E+00 
    1.1449555234705649E+01 
    1.3538864241363861E+01 
    7.2794379932459856E+00 
    5.0553680346825782E+00 
    9.9411331027184371E+00 
    1.3617576924272726E+01 
    1.4247082362784305E+01 
    1.4146381826980786E+01 
    1.3999087011294243E+01 
    7.1385188498057586E+00 
    1.0007087919020949E+01 
    1.3102695019100459E+01 
    7.7916032495015939E+00 
    1.3822247008581268E+01 
    1.1957242846398506E+01 
    6.7480354162216738E+00 
    1.3643566798989511E+01 
    1.4520642532318318E+01 
    1.3671226061198846E+01 
    7.0243816916615867E+00 
    1.0014079239930235E+01 
    7.6773150076887946E+00 
    9.4467993961110199E+00 
    1.3530587888505698E+01 
    1.3519296598751851E+01 
    7.0628925388965467E+00 
    1.4385534270625126E+01 
    1.0549886749989238E+01 
    1.3551732125834558E+01 
    1.4355882876340250E+01 
    1.3539536750129411E+01 
    1.2618370765232026E+01 
    1.5276464729688376E+01 
    9.3959802678686390E+00 
    1.4469854993623171E+01 
    1.3578563344058782E+01 
    1.4539903269507283E+01 
    1.4378311232717499E+01 
    9.4880697953466893E+00 
    9.8378718652967176E+00 
    9.4214368789173157E+00 
    1.2141204797171225E+01 
    4.1543264180080914E+00 
    1.0134421483846504E+01 
    1.5398493583252137E+01 
    1.0246724230879220E+01 
    1.0429352275925156E+01 
    1.4513482298641852E+01 
    1.4741541748735003E+01 
    9.3468194889824350E+00 
    1.3544372432840413E+01 
    1.3515913626197145E+01 
    1.0417276683436631E+01 
    1.4334129857029430E+01 
    7.0871279361231503E+00 
    4.5592973832834014E+00 
    1.0690899219759299E+01 
    1.0261417954436267E+01 
    1.3521253668411424E+01 
    6.6360626991420810E+00 
    1.4064063823632662E+01 
    4.6548541754705441E+00 
    1.0194591015476812E+01 
    9.5415553666112753E+00 
    9.9907105705550574E+00 
    1.6653310590308458E+01 
    4.0437021932865651E+00 
    1.0051409311171025E+01 
    1.1920720880901417E+01 
    9.5953920997726208E+00 
    7.7683908604112091E+00 
    1.4171626671241356E+01 
    1.6236942326416070E+01 
    1.4320662353104588E+01 
    9.9932904694815718E+00 
    5.8912092727865959E+00 
    1.6087257885290096E+01 
    1.3802287841785521E+01 
    7.4143619695869303E+00 
    9.6200356512897773E+00 
    1.4912552850769599E+01 
    3.4332046505257221E+00 
    1.0309892637731780E+01 
    1.4287714603052605E+01 
    1.0004076024150152E+01 
    8.7056618357231379E+00 
    1.0091326912994621E+01 
    1.3325886820396246E+01 
    9.9851967952716265E+00 
    5.2756657595366461E+00 
    9.8037471046425839E-01 
    7.4388876980018974E+00 
    1.5123893469237263E+01 
    9.4195040425825898E+00 
    1.1343750830325520E+01 
    1.0834429714747239E+01 
    1.2537501014955931E+01 
    1.0017548124697409E+01 
    1.3716432119617634E+01 
    1.6667099413896970E+01 
    1.1832997220700763E+01 
    1.4442870080317652E+01 
    5.7709648420741466E-01 
    1.3521182532387511E+01 
    5.8148408072294577E+00 
    1.5561190781384273E+01 
    1.0065080079458165E+01 
    8.8494419671180360E+00 
    7.8196940096836780E+00 
    5.5179485410761231E+00 
    1.1175952526596246E+01 
    7.8777136654966382E+00 
    1.2287764372124489E+01 
    2.2719644587073358E+00 
    1.1007969486414945E+01 
    1.3456106859528859E+01 
    6.0447305826214608E+00 
    1.3997209655343109E+01 
    1.5385087776381317E+01 
    1.3830325741320149E+01 
    9.9341057848957046E+00 
    9.9854646617535359E+00 
    1.0057757137533310E+01 
    5.9514328771681999E+00 
    9.1648739875244782E+00 
    9.0232462159182205E+00 
    1.0046790949958515E+01 
    9.3600153027036104E+00 
    7.3872890344834574E-01 
    6.6099112344588598E+00 
    9.7382338164404221E+00 
    1.0022385004151591E+01 
    1.2621101135562718E+01 
    2.2503176140485968E+00 
    1.0378104797742070E+01 
    1.0265818966789194E+01 
    3.8891744494355591E+00 
    1.3700993320439904E+01 
    8.7351189313378921E+00 
    1.0122239852434012E+01 
    1.3800702241228825E+01 
    5.5407977895858771E+00 
    1.3818046035583119E+01 
    8.8358621896066598E+00 
    1.0284810547822603E+00 
    9.4785447360065920E+00 
    1.4396557928164521E+01 
    1.3521334644294209E+01 
    1.3540292607476177E+01 
    1.0403637198216982E+01 
    1.0199088130071788E+01 
    8.7145277563088666E+00 
    7.1344188946932938E+00 
    1.3906104667541159E+01 
    9.6188074076775010E+00 
    6.9240941376061578E+00 
    1.3535131474891898E+01 
    1.4213429150716209E+01 
    1.0220421940783568E+01 
    9.7913290451316914E+00 
    1.6551163924655164E+01 
    1.0418131267334040E+01 
    1.3921453976475707E+01 
    8.3112883472343455E+00 
    1.6695029540832252E+01 
    6.6181942587618678E+00 
    9.1046585891203318E+00 
    7.3818136495684818E+00 
    1.0642028606915549E+01 
    8.4784672133922090E+00 
    1.6678995235839935E+01 
    1.0464688735244634E+01 
    1.3263059603811584E+01 
    6.8028654592927635E+00 
    1.0013810064348011E+01 
    1.3769141599906737E+01 
    8.4923691806206811E+00 
    7.4047790059614238E+00 
    1.1107051398493285E+01 
    1.3986752992866519E+01 
    7.2915879736071423E+00 
    9.5604055240297026E+00 
    9.8217013837753981E+00 
    1.3497657943389841E+01 
    9.6209396706156660E+00 
    1.3961845121058234E+01 
    1.4567984444137274E+01 
    8.7392705604685812E+00 
    8.5783405271373940E+00 
    7.9095803450039508E+00 
    1.3639442803982071E+01 
    1.0281612082368271E+01 
    1.6272283509100049E+01 
    1.2792654457565298E+01 
    1.3731496591875672E+01 
    1.5965275264843159E+01 
    1.5386475436276621E+01 
    1.0061015064546000E+01 
    1.0031965218103585E+01 
    1.3291256425679913E+01 
    1.3557683263355248E+01 
    1.4073409568488481E+01 
    1.3822770076305542E+01 
    1.6571149823466161E+01 
    1.0417679436871067E+01 
    8.8347868561550715E+00 
    1.0425835232934313E+01 
    1.4483799772804808E+01 
    1.0163849089428139E+01 
    5.9636583281196476E+00 
    9.9184892258406840E+00 
    1.4883998029413064E+01 
    1.0300721078043932E+01 
    8.8380928957313554E+00 
    9.7622522191289818E+00 
    1.4989153464750562E+01 
    1.3580172328465171E+01 
    8.4372204505098836E+00 
    1.5123361014180581E+01 
    1.0090790307505477E+01 
    1.4062612090650028E+01 
    1.5003811683472545E+01 
    1.0679753480100624E+01 
    5.5538040867433072E+00 
    1.1108414114813886E+01 
    5.7316612663596320E+00 
    1.0217551123273534E+01 
    1.0005997750293940E+01 
    1.1664799326051918E+01 
    6.0361067751141313E+00 
    1.2348050745619018E+01 
    1.0025993977910220E+01 
    1.3812876996464864E+01 
    1.0629760903100085E+01 
    8.2610396797511694E+00 
    9.6362512600517025E+00 
    1.0558726125022451E+01 
    1.0518851865916933E+01 
    1.4612130503034042E+01 
    8.4706944010100926E+00 
    8.3310299341962537E+00 
    6.3267306381604342E+00 
    1.4098174040904775E+01 
    9.6779865433286680E+00 
    1.3393347899674792E+01 
    9.9762337337112417E+00 
    6.8823321747542767E+00 
    1.3613277544159832E+01 
    9.9515102480616235E+00 
    7.4643541188349971E+00 
    7.8790731545856438E+00 
    8.1403525788019166E+00 
    1.3842942375608636E+01 
    1.0048753340618841E+01 
    1.4453771753746985E+01 
    9.9099419246446061E+00 
    9.8475892640985574E+00 
    9.4806854977747541E+00 
    1.3690366128458184E+01 
    9.7639257203365570E+00 
    8.1795283995309589E+00 
    1.5373472837941952E+01 
    1.3766834752930642E+01 
    6.9263672095305671E+00 
    2.8569381507402936E+00 
    1.0038131699164969E+01 
    9.3639373002664126E+00 
    8.5768878952450862E+00 
    9.2926974121366754E+00 
    1.3717725542304382E+01 
    9.7551434602039553E+00 
    8.8861307371486848E+00 
    1.3579221506078666E+01 
    6.8678428495636883E+00 
    1.3253581532394051E+01 
    9.0418355031846129E+00 
    8.1420027935010282E+00 
    8.6519289622722653E+00 
    1.4144414775396440E+01 
    9.9936763900757608E+00 
    1.0001746016193410E+01 
    6.1104766381352409E+00 
    6.5716621086265992E+00 
    1.2679784204177908E+01 
    1.0011548793594544E+01 
    1.0078103685154462E+01 
    1.5107106248764536E+01 
    8.3286957688982923E+00 
    1.0023865294513595E+01 
    7.1041578276911999E+00 
    7.3320859985778029E+00 
    1.3686617526627327E+01 
    9.6510693014114484E+00 
    7.2022446355011196E+00 
    1.0560433384823446E+01 
    9.8971001596123642E+00 
    1.3688780249231707E+01 
    1.5197276755348996E+01 
    1.1069396310394033E+00 
    1.0042960422851626E+01 
    1.0259480000558250E+01 
    1.3747147252144012E+01 
    9.5475346915156880E+00 
    9.9674917385188486E+00 
    1.4665015150294250E+01 
    8.6812258453742768E+00 
    7.2633738772031196E+00 
    1.2033871599831897E+01 
    1.3534608374609833E+01 
    1.4540013194676964E+01 
    1.4790938937259300E+01 
    9.8883298816046050E+00 
    1.0034875724565739E+01 
    1.1242684773288598E+01 
    6.5940151820445099E+00 
    1.3657820630259527E+01 
    7.7919213866599160E+00 
    6.8569519504137491E+00 
    1.2506110027785132E+01 
    1.1788659868514747E+01 
    6.7274202987135752E+00 
    1.3570021287606883E+01 
    1.4525667488135598E+01 
    1.0432988878532880E+01 
    1.5295307928048706E+01 
    1.3602482334228963E+01 
    9.6220736360580812E+00 
    1.4268581963690902E+01 
    7.3312494729059443E+00 
    1.3552332005711223E+01 
    1.0042041021329689E+01 
    1.0002675534637090E+01 
    1.5270949159031689E+01 
    9.7120783533256230E+00 
    1.2245447522507687E+01 
    8.6316985531540418E+00 
    1.4639022336118355E+01 
    1.3462281028326535E+01 
    8.9786667178734287E+00 
    1.3511198772789877E+01 
    9.0327256423433369E+00 
    9.9768194969261508E+00 
    1.4486081619898545E+01 
    1.3818633917463192E+01 
    1.4528946447463538E+01 
    1.3750651705717630E+01 
    9.1778594992286529E+00 
    9.3920698931469477E+00 
    1.4535257345727279E+01 
    9.5102238748113574E+00 
    1.3394408211671642E+01 
    9.7001979407860688E+00 
    4.1934480866751311E+00 
    6.9237264400377914E+00 
    6.4230870595450931E+00 
    1.4489294298935659E+01 
    1.5202910245207811E+01 
    1.3528947990374407E+01 
    1.1513470459699315E+01 
    1.3813173928199147E+01 
    1.3576326673025708E+01 
    1.4146562848792259E+01 
    5.9167035528072152E+00 
    3.9129569929222976E+00 
    1.1307678238093446E+01 
    9.7039510722920408E+00 
    1.3719354581961566E+01 
    1.3716920865387305E+01 
    1.0282850793876689E+01 
    1.3752993803852247E+01 
    1.0029347018362511E+01 
    9.9337993790178771E+00 
    5.3726612861793317E+00 
    3.8974187022087885E+00 
    1.4985064807964511E+01 
    7.7878668781431095E+00 
    8.9177378206715243E+00 
    1.0173817970135699E+01 
    1.6552299363155406E+01 
    1.0268665475668760E+01 
    1.0342038925977446E+01 
    4.4061229530619288E+00 
    1.0270141315059423E+01 
    1.0284412589109213E+01 
    1.4035538388310577E+01 
    8.6580540352486608E+00 
    9.5537574634550708E+00 
    1.5149326387359530E+01 
    1.0051151445172577E+01 
    1.3544502517634406E+01 
    1.3793854810341186E+01 
    1.2262958258511024E+01 
    8.4706792874452770E+00 
    1.3750599648646041E+01 
    9.8441942885426847E+00 
    1.3717602310564883E+01 
    1.3484473712298527E+01 
    1.4508186611990659E+01 
    1.3747055443292302E+01 
    1.2902285083353483E+01 
    1.0040200512713396E+01 
    6.6738208490596200E+00 
    1.6429129332353202E+01 
    7.9470392689041764E+00 
    1.4429915159022094E+01 
    1.0037615913398154E+01 
    8.3797731268961844E+00 
    5.0807893384371097E+00 
    1.0321502472821084E+01 
    1.3737571763984185E+01 
    1.3735004944256849E+01 
    9.9576034596536847E+00 
    1.0031792071979011E+01 
    1.5352421324870086E+01 
    1.4736173392393797E+01 
    1.0286744647215558E+01 
    3.6452253875220855E+00 
    1.2861400952731286E+01 
    1.6677088808612730E+01 
    1.0043512523372121E+01 
    1.1875307090372949E+01 
    9.5446755114147468E+00 
    1.6291125014906303E+01 
    1.4815053002843081E+01 
    1.4566271369699523E+01 
    1.0307956131799470E+01 
    4.7494054638108478E+00 
    9.5043041541362587E+00 
    9.5691735391492365E+00 
    9.6141435597560339E+00 
    3.9592928960615046E+00 