# vtk DataFile Version 2.0
Pressure Field Data 
ASCII 
DATASET UNSTRUCTURED_GRID 

POINTS 2860 double 

    0.0000000000000000E+00     0.0000000000000000E+00     0.0000000000000000E+00 
    1.0000000000000000E+00     0.0000000000000000E+00     0.0000000000000000E+00 
    1.0000000000000000E+00     1.0000000000000000E+00     0.0000000000000000E+00 
    0.0000000000000000E+00     1.0000000000000000E+00     0.0000000000000000E+00 
    2.5000000000000000E-01     2.5000000000000000E-01     0.0000000000000000E+00 
    7.5000000000000000E-01     2.5000000000000000E-01     0.0000000000000000E+00 
    7.5000000000000000E-01     7.5000000000000000E-01     0.0000000000000000E+00 
    2.5000000000000000E-01     7.5000000000000000E-01     0.0000000000000000E+00 
    3.1249999999942091E-02     0.0000000000000000E+00     0.0000000000000000E+00 
    6.2499999999873469E-02     0.0000000000000000E+00     0.0000000000000000E+00 
    9.3749999999826514E-02     0.0000000000000000E+00     0.0000000000000000E+00 
    1.2499999999977961E-01     0.0000000000000000E+00     0.0000000000000000E+00 
    1.5624999999968961E-01     0.0000000000000000E+00     0.0000000000000000E+00 
    1.8749999999959971E-01     0.0000000000000000E+00     0.0000000000000000E+00 
    2.1874999999950970E-01     0.0000000000000000E+00     0.0000000000000000E+00 
    2.4999999999941969E-01     0.0000000000000000E+00     0.0000000000000000E+00 
    2.8124999999932920E-01     0.0000000000000000E+00     0.0000000000000000E+00 
    3.1249999999923850E-01     0.0000000000000000E+00     0.0000000000000000E+00 
    3.4374999999914790E-01     0.0000000000000000E+00     0.0000000000000000E+00 
    3.7499999999905720E-01     0.0000000000000000E+00     0.0000000000000000E+00 
    4.0624999999896660E-01     0.0000000000000000E+00     0.0000000000000000E+00 
    4.3749999999887590E-01     0.0000000000000000E+00     0.0000000000000000E+00 
    4.6874999999878530E-01     0.0000000000000000E+00     0.0000000000000000E+00 
    4.9999999999869471E-01     0.0000000000000000E+00     0.0000000000000000E+00 
    5.3124999999877620E-01     0.0000000000000000E+00     0.0000000000000000E+00 
    5.6249999999885780E-01     0.0000000000000000E+00     0.0000000000000000E+00 
    5.9374999999893940E-01     0.0000000000000000E+00     0.0000000000000000E+00 
    6.2499999999902101E-01     0.0000000000000000E+00     0.0000000000000000E+00 
    6.5624999999910261E-01     0.0000000000000000E+00     0.0000000000000000E+00 
    6.8749999999918421E-01     0.0000000000000000E+00     0.0000000000000000E+00 
    7.1874999999926570E-01     0.0000000000000000E+00     0.0000000000000000E+00 
    7.4999999999934730E-01     0.0000000000000000E+00     0.0000000000000000E+00 
    7.8124999999942890E-01     0.0000000000000000E+00     0.0000000000000000E+00 
    8.1249999999951039E-01     0.0000000000000000E+00     0.0000000000000000E+00 
    8.4374999999959199E-01     0.0000000000000000E+00     0.0000000000000000E+00 
    8.7499999999967359E-01     0.0000000000000000E+00     0.0000000000000000E+00 
    9.0624999999975520E-01     0.0000000000000000E+00     0.0000000000000000E+00 
    9.3749999999983680E-01     0.0000000000000000E+00     0.0000000000000000E+00 
    9.6874999999991840E-01     0.0000000000000000E+00     0.0000000000000000E+00 
    1.0000000000000000E+00     3.1249999999942091E-02     0.0000000000000000E+00 
    1.0000000000000000E+00     6.2499999999873469E-02     0.0000000000000000E+00 
    1.0000000000000000E+00     9.3749999999826514E-02     0.0000000000000000E+00 
    1.0000000000000000E+00     1.2499999999977961E-01     0.0000000000000000E+00 
    1.0000000000000000E+00     1.5624999999968961E-01     0.0000000000000000E+00 
    1.0000000000000000E+00     1.8749999999959971E-01     0.0000000000000000E+00 
    1.0000000000000000E+00     2.1874999999950970E-01     0.0000000000000000E+00 
    1.0000000000000000E+00     2.4999999999941969E-01     0.0000000000000000E+00 
    1.0000000000000000E+00     2.8124999999932920E-01     0.0000000000000000E+00 
    1.0000000000000000E+00     3.1249999999923850E-01     0.0000000000000000E+00 
    1.0000000000000000E+00     3.4374999999914790E-01     0.0000000000000000E+00 
    1.0000000000000000E+00     3.7499999999905720E-01     0.0000000000000000E+00 
    1.0000000000000000E+00     4.0624999999896660E-01     0.0000000000000000E+00 
    1.0000000000000000E+00     4.3749999999887590E-01     0.0000000000000000E+00 
    1.0000000000000000E+00     4.6874999999878530E-01     0.0000000000000000E+00 
    1.0000000000000000E+00     4.9999999999869471E-01     0.0000000000000000E+00 
    1.0000000000000000E+00     5.3124999999877620E-01     0.0000000000000000E+00 
    1.0000000000000000E+00     5.6249999999885780E-01     0.0000000000000000E+00 
    1.0000000000000000E+00     5.9374999999893940E-01     0.0000000000000000E+00 
    1.0000000000000000E+00     6.2499999999902101E-01     0.0000000000000000E+00 
    1.0000000000000000E+00     6.5624999999910261E-01     0.0000000000000000E+00 
    1.0000000000000000E+00     6.8749999999918421E-01     0.0000000000000000E+00 
    1.0000000000000000E+00     7.1874999999926570E-01     0.0000000000000000E+00 
    1.0000000000000000E+00     7.4999999999934730E-01     0.0000000000000000E+00 
    1.0000000000000000E+00     7.8124999999942890E-01     0.0000000000000000E+00 
    1.0000000000000000E+00     8.1249999999951039E-01     0.0000000000000000E+00 
    1.0000000000000000E+00     8.4374999999959199E-01     0.0000000000000000E+00 
    1.0000000000000000E+00     8.7499999999967359E-01     0.0000000000000000E+00 
    1.0000000000000000E+00     9.0624999999975520E-01     0.0000000000000000E+00 
    1.0000000000000000E+00     9.3749999999983680E-01     0.0000000000000000E+00 
    1.0000000000000000E+00     9.6874999999991840E-01     0.0000000000000000E+00 
    9.6875000000003686E-01     1.0000000000000000E+00     0.0000000000000000E+00 
    9.3750000000011691E-01     1.0000000000000000E+00     0.0000000000000000E+00 
    9.0625000000015765E-01     1.0000000000000000E+00     0.0000000000000000E+00 
    8.7500000000017863E-01     1.0000000000000000E+00     0.0000000000000000E+00 
    8.4375000000028044E-01     1.0000000000000000E+00     0.0000000000000000E+00 
    8.1250000000040856E-01     1.0000000000000000E+00     0.0000000000000000E+00 
    7.8125000000054956E-01     1.0000000000000000E+00     0.0000000000000000E+00 
    7.5000000000066480E-01     1.0000000000000000E+00     0.0000000000000000E+00 
    7.1875000000086831E-01     1.0000000000000000E+00     0.0000000000000000E+00 
    6.8750000000102829E-01     1.0000000000000000E+00     0.0000000000000000E+00 
    6.5625000000114431E-01     1.0000000000000000E+00     0.0000000000000000E+00 
    6.2500000000129829E-01     1.0000000000000000E+00     0.0000000000000000E+00 
    5.9375000000147926E-01     1.0000000000000000E+00     0.0000000000000000E+00 
    5.6250000000168354E-01     1.0000000000000000E+00     0.0000000000000000E+00 
    5.3125000000188671E-01     1.0000000000000000E+00     0.0000000000000000E+00 
    5.0000000000205835E-01     1.0000000000000000E+00     0.0000000000000000E+00 
    4.6875000000192979E-01     1.0000000000000000E+00     0.0000000000000000E+00 
    4.3750000000180111E-01     1.0000000000000000E+00     0.0000000000000000E+00 
    4.0625000000167238E-01     1.0000000000000000E+00     0.0000000000000000E+00 
    3.7500000000154382E-01     1.0000000000000000E+00     0.0000000000000000E+00 
    3.4375000000141509E-01     1.0000000000000000E+00     0.0000000000000000E+00 
    3.1250000000128642E-01     1.0000000000000000E+00     0.0000000000000000E+00 
    2.8125000000115769E-01     1.0000000000000000E+00     0.0000000000000000E+00 
    2.5000000000102918E-01     1.0000000000000000E+00     0.0000000000000000E+00 
    2.1875000000090050E-01     1.0000000000000000E+00     0.0000000000000000E+00 
    1.8750000000077180E-01     1.0000000000000000E+00     0.0000000000000000E+00 
    1.5625000000064329E-01     1.0000000000000000E+00     0.0000000000000000E+00 
    1.2500000000051459E-01     1.0000000000000000E+00     0.0000000000000000E+00 
    9.3750000000385914E-02     1.0000000000000000E+00     0.0000000000000000E+00 
    6.2500000000257239E-02     1.0000000000000000E+00     0.0000000000000000E+00 
    3.1250000000128557E-02     1.0000000000000000E+00     0.0000000000000000E+00 
    0.0000000000000000E+00     9.6875000000003686E-01     0.0000000000000000E+00 
    0.0000000000000000E+00     9.3750000000011691E-01     0.0000000000000000E+00 
    0.0000000000000000E+00     9.0625000000015765E-01     0.0000000000000000E+00 
    0.0000000000000000E+00     8.7500000000017863E-01     0.0000000000000000E+00 
    0.0000000000000000E+00     8.4375000000028044E-01     0.0000000000000000E+00 
    0.0000000000000000E+00     8.1250000000040856E-01     0.0000000000000000E+00 
    0.0000000000000000E+00     7.8125000000054956E-01     0.0000000000000000E+00 
    0.0000000000000000E+00     7.5000000000066480E-01     0.0000000000000000E+00 
    0.0000000000000000E+00     7.1875000000086831E-01     0.0000000000000000E+00 
    0.0000000000000000E+00     6.8750000000102829E-01     0.0000000000000000E+00 
    0.0000000000000000E+00     6.5625000000114431E-01     0.0000000000000000E+00 
    0.0000000000000000E+00     6.2500000000129829E-01     0.0000000000000000E+00 
    0.0000000000000000E+00     5.9375000000147926E-01     0.0000000000000000E+00 
    0.0000000000000000E+00     5.6250000000168354E-01     0.0000000000000000E+00 
    0.0000000000000000E+00     5.3125000000188671E-01     0.0000000000000000E+00 
    0.0000000000000000E+00     5.0000000000205835E-01     0.0000000000000000E+00 
    0.0000000000000000E+00     4.6875000000192979E-01     0.0000000000000000E+00 
    0.0000000000000000E+00     4.3750000000180111E-01     0.0000000000000000E+00 
    0.0000000000000000E+00     4.0625000000167238E-01     0.0000000000000000E+00 
[...]
CELL_DATA 2795 
SCALARS Pressure double 1 
LOOKUP_TABLE default 

    6.4317270227826899E+00 
    1.4050690358349614E+01 
    9.9476416892627881E+00 
    9.6382088773300101E+00 
    7.7906464081816660E+00 
    1.3919341548446292E+01 
    1.4625324794021475E+01 
    5.7936942628224006E+00 
    1.0510302992084648E+01 
    8.0189221075987245E+00 
    6.8419290968480322E+00 
    1.3672528935461941E+01 
    1.3966253186627940E+01 
    1.3889888776143495E+01 
    9.1550379412008027E+00 
    5.7048336296965205E+00 
    8.9243648289689972E+00 
    7.2810247907662431E+00 
    1.3323684895736246E+01 
    9.9354746250544554E+00 
    9.8291989663564632E+00 
    1.3826535589257361E+01 
    9.3837714389404034E+00 
    3.9106661430742617E-01 
    1.3693326785179048E+01 
    1.3933645412196057E+01 
    1.4656228506735474E+01 
    6.5944511339395824E+00 
    1.3596162788587769E+01 
    1.4641538029488753E+01 
    1.0086402651048965E+01 
    1.0153705123219334E+01 
    7.1071754041266582E+00 
    9.9096292329022617E+00 
    3.3349370704991323E+00 
    8.9268495255261993E+00 
    9.8981690382753786E+00 
    1.4679422840281916E+01 
    1.4603557574477753E+01 
    1.3685153672856329E+01 
    7.7464539180600429E+00 
    1.3661181825747235E+01 
    8.1667961323225324E-01 
    9.8832108503306504E+00 
    1.4430388653652320E+01 
    1.4256574350764618E+01 
    1.3662201864865395E+01 
    1.0843025310995110E+01 
    1.3731554371482730E+01 
    9.1152509136708115E+00 
    8.7162676268512396E+00 
    1.0119076979342436E+01 
    9.7703046149668307E+00 
    8.9760056984255954E+00 
    1.0157901505681352E+01 
    1.3121897587758843E+01 
    1.1780825745987451E+01 
    7.8309335905721866E+00 
    1.3830597675815222E+01 
    1.3757587786001867E+01 
    9.6519800814760828E+00 
    9.5633087545941624E+00 
    9.5459668703534870E+00 
    1.4547891602154529E+01 
    1.4803424343237660E+01 
    8.9364327721716776E+00 
    1.0118131214955769E+01 
    1.3576748011134619E+01 
    1.1629564410658002E+01 
    9.6021247772168454E+00 
    1.4809982188654464E+01 
    1.3792144475245030E+01 
    8.8199160939533066E+00 
    1.4360605098367701E+01 
    1.0389032231683309E+01 
    1.3553338852658214E+01 
    1.4695630982709979E+01 
    1.0404929066091762E+01 
    6.5915751471372728E+00 
    1.0136536148818520E+01 
    1.4611648586407291E+01 
    1.4828884964874078E+01 
    8.9491498853183593E+00 
    1.0054054828905320E+01 
    1.4875832086739095E+01 
    9.9001443633950466E+00 
    9.4656262232212232E+00 
    1.2035886299310386E+01 
    6.2982780882829710E+00 
    8.7423601551723085E+00 
    1.0053215257430292E+01 
    1.0660809041790415E+01 
    1.6285715398162257E+01 
    7.5840307078428708E+00 
    1.0126163421643540E+01 
    1.3641216192057945E+01 
    1.3919946371426260E+01 
    6.7395805152062369E+00 
    9.7695325844660168E+00 
    1.0084323282812687E+01 
    1.3939273041465794E+01 
    1.0083565741490998E+01 
    1.3875496841843727E+01 
    4.2084841274806868E+00 
    6.6491152327961398E+00 
    1.0349782872515590E+01 
    1.4058124622837417E+01 
    8.8949727100236711E+00 
    9.4469728179815160E+00 
    1.0067274738121428E+01 
    9.4396727537164740E+00 
    1.1407279208794785E+01 
    9.2010296127699860E+00 
    8.8265740805555808E+00 
    7.0999900520816883E+00 
    1.1849046366210180E+01 
    1.0155976641317471E+01 
    1.4465076264743370E+01 
    8.7110185463476792E+00 
    9.6232614525432325E+00 
    1.3777637492960684E+01 
    8.1434119186800551E+00 
    1.4205601493360062E+01 
    9.9772716222922000E+00 
    9.5557027431844439E+00 
    1.3921858029623214E+01 
    1.0148859616056159E+01 
    1.4705593225383415E+01 
    1.2049910754668460E+01 
    1.2972905647101843E+01 
    1.4672525073377770E+01 
    7.5977584198266168E+00 
    1.0376016155408214E+01 
    1.3920605872760516E+01 
    3.1604149634361947E+00 
    1.0136204339281472E+01 
    1.4640097329966920E+01 
    9.5851822690432655E+00 
    1.1035467571497895E+01 
    6.7221918704508665E+00 
    1.3639504742010651E+01 
    1.6755447683197737E+01 
    1.2503474201675493E+01 
    9.5819786383859604E+00 
    8.6433219822583567E+00 
    1.0789706415102108E+01 
    9.9943757900512260E+00 
    6.9100584204204525E+00 
    1.4666221936371429E+01 
    1.3974636716115237E+01 
    1.3642891221381680E+01 
    1.0651162106537969E+01 
    8.7960383985700830E+00 
    9.8269539123710548E+00 
    1.4386012695148334E+01 
    9.0180817647340916E+00 
    1.0050988019740005E+01 
    9.1667943573590733E+00 
    1.1593819768033331E+01 
    1.6743968155290077E+01 
    1.3634629874517579E+01 
    8.7731490667176129E+00 
    1.4105749336101988E+01 
    1.4019443877844617E+01 
    1.4095660459386872E+01 
    1.5064738943217284E+01 
    1.5588491945255385E+01 
    1.4257972507367212E+01 
    1.0109871564837443E+01 
    1.0925708733892398E+01 
    1.4092828439481847E+01 
    1.4479803430939631E+01 
    7.1863950018414373E+00 
    1.3661779603995470E+01 
    1.4349849738090429E+01 
    7.0195046372421750E+00 
    1.4984080575011603E+01 
    1.4966938521271535E+01 
    1.3390173926330345E+01 
    1.0442323224539820E+01 
    2.7138603387335323E+00 
    1.4638658860985164E+01 
    1.0287965315524147E+01 
    1.4756522312245341E+01 
    9.5223296526743990E+00 
    1.4483209330186536E+01 
    1.0045190797290056E+00 
    1.2986001006648081E+01 
    9.6063855010441213E+00 
    8.7595383105773532E+00 
    8.5482149143387609E+00 
    9.9465101648515617E+00 
    1.1060467308498209E+01 
    1.0423675815792166E+01 
    7.1979874776310728E+00 
    1.4471274218049892E+01 
    1.3942463058924448E+01 
    1.1751812804546150E+01 
    1.0345735544107461E+01 
    1.6133760589383090E+00 
    7.9276399992788322E+00 
    5.6656430665309179E+00 
    1.4652745386282673E+01 
    1.1255804177526910E+01 
    1.3993251773547250E+01 
    1.4006453237542626E+01 
    9.1007748812084497E+00 
    1.1815925863807346E+01 
    1.3638166488374754E+01 
    1.4952536038614989E+01 
    6.6871846506724673E+00 
    1.2390748621977730E+01 
    1.0477945566047103E+01 
    6.0144743959610425E+00 
    9.0844582204631923E+00 
    1.2392953030768357E+01 
    1.3969538225165566E+01 
    1.0001053472919434E+01 
    1.4074818355162616E+01 
    1.3851328731279834E+01 
    1.3802321749151231E+01 
    9.8327420680443733E+00 
    8.6923253516790862E+00 
    1.3650787865187334E+01 
    8.8149062321029223E+00 
    1.0088643574729444E+01 
    8.6570994322727888E+00 
    9.9865458119166828E+00 
    1.4015347866617104E+01 
    6.2704732197792552E+00 
    9.0028589552476230E+00 
    1.4573467897923294E+01 
    9.8448746489270302E+00 
    1.1154909564707829E+01 
    6.4368653954335295E+00 
    8.8693216084302939E+00 
    1.3831045410295090E+01 
    1.4128077804856892E+01 
    5.2721850628483695E+00 
    9.8511094771513132E+00 
    8.7006631982888489E+00 
    1.5362835837554528E+01 
    1.4838621358289156E+01 
    1.5613892037481666E+01 
    9.8716886682066356E+00 
    1.3989251472145698E+01 
    1.3596091431759520E+01 
    9.7432842841757559E+00 
    1.3643110593557083E+01 
    1.0346484337258071E+01 
    6.0982021952748395E+00 
    1.0186313177856624E+01 
    1.4558311958695104E+01 
    1.3640013732441114E+01 
    6.8072013251202259E+00 
    1.3668473654771676E+01 
    1.1077442047594221E+01 
    1.0118049128973558E+01 
    9.6602819425013440E+00 
    1.3511513019013046E+01 
    1.0630228044123346E+01 
    1.3655737913419326E+01 
    9.8153421107577135E+00 
    6.2886797922617088E+00 
    1.0160472983191092E+01 
    8.5563797955598861E+00 
    1.2509489222814251E+01 
    1.4754168081441147E+01 
    1.3649128348440776E+01 
    1.4633272060449988E+01 
    9.7920968099841907E+00 
    6.6452642141990887E+00 
    6.7301563099242170E+00 
    1.0300767723400741E+01 
    1.0064446219790131E+01 
    1.5349624369397179E+00 
    1.3167129366186556E+01 
    1.5096393756870782E+01 
    9.5327481505729228E+00 
    6.3126382547899071E+00 
    1.1567377054363350E+01 
    1.3667147954459177E+01 
    7.3685555709434460E+00 
    5.1267313827455787E+00 
    1.0041678282622605E+01 
    1.3745974323236997E+01 
    1.4379922264141399E+01 
    1.4278420834707225E+01 
    1.4130836900908363E+01 
    7.2284087036209552E+00 
    1.0109853810921555E+01 
    1.3230481185965978E+01 
    7.8736687669534833E+00 
    1.3953752095500400E+01 
    1.2060588284549453E+01 
    6.8209306521511559E+00 
    1.3772426643155272E+01 
    1.4655201956654272E+01 
    1.3802077875347097E+01 
    7.1116024961623596E+00 
    1.0114325654879165E+01 
    7.7685406999169029E+00 
    9.5425903592058461E+00 
    1.3658820617895765E+01 
    1.3647463484869732E+01 
    7.1504494202876145E+00 
    1.4518825206596702E+01 
    1.0650543870506869E+01 
    1.3679957846935858E+01 
    1.4489367810065875E+01 
    1.3667739568209292E+01 
    1.2739365852108699E+01 
    1.5413559514270272E+01 
    9.4973389263556420E+00 
    1.4603526448692635E+01 
    1.3706878072507505E+01 
    1.4673956382633733E+01 
    1.4511544558405246E+01 
    9.5898489791619586E+00 
    9.9390232131803096E+00 
    9.5231784526926351E+00 
    1.2258586681714863E+01 
    4.2148981464538542E+00 
    1.0237356321407001E+01 
    1.5535901094477691E+01 
    1.0345436763648982E+01 
    1.0529217704000333E+01 
    1.4647416795242457E+01 
    1.4876335817032594E+01 
    9.4470094218727407E+00 
    1.3672688909682119E+01 
    1.3644047105181658E+01 
    1.0517062280821573E+01 
    1.4467147337941451E+01 
    7.1638493894017294E+00 
    4.6073938958561227E+00 
    1.0792476788348832E+01 
    1.0360181397263872E+01 
    1.3649409645353117E+01 
    6.7211300422420610E+00 
    1.4195821316262561E+01 
    4.6946796712594088E+00 
    1.0293413639361349E+01 
    9.6425201656535489E+00 
    1.0090977981646651E+01 
    1.6792963543626737E+01 
    4.1027835955371703E+00 
    1.0154222860618066E+01 
    1.2040924097259772E+01 
    9.6954547969282245E+00 
    7.8636274593570983E+00 
    1.4303705144949296E+01 
    1.6376100097893207E+01 
    1.4453831154658456E+01 
    1.0095917496305708E+01 
    5.9743932438562473E+00 
    1.6225989871594521E+01 
    1.3933494381221919E+01 
    7.5155237335483251E+00 
    9.7232407174623727E+00 
    1.5048232032813116E+01 
    3.4835059830623529E+00 
    1.0408978367107379E+01 
    1.4421016557985881E+01 
    1.0104405380486382E+01 
    8.7953294780249003E+00 
    1.0194214968006158E+01 
    1.3455159549143344E+01 
    1.0085580410799375E+01 
    5.3511483045061530E+00 
    9.9106566067994240E-01 
    7.5187925655687327E+00 
    1.5260608241405759E+01 
    9.5212109170968304E+00 
    1.1445290428502048E+01 
    1.0938058199146965E+01 
    1.2656587194640304E+01 
    1.0117847458805864E+01 
    1.3847340228830022E+01 
    1.6806766549070165E+01 
    1.1948008697913172E+01 
    1.4576400598073139E+01 
    5.8213842350888656E-01 
    1.3649362539798046E+01 
    5.9039886864719788E+00 
    1.5698941442838718E+01 
    1.0167916380753555E+01 
    8.9422414384262723E+00 
    7.9118188811592614E+00 
    5.5942396272633852E+00 
    1.1284799292039068E+01 
    7.9615976199051399E+00 
    1.2406756478603441E+01 
    2.2945081971935806E+00 
    1.1111676173834153E+01 
    1.3583787660704788E+01 
    6.1095767877864535E+00 
    1.4125674253880264E+01 
    1.5522064122844256E+01 
    1.3959172511064843E+01 
    1.0036524519842422E+01 
    1.0085694188125172E+01 
    1.0160584446244984E+01 
    6.0318848252305015E+00 
    9.2655878084292329E+00 
    9.1235922887244314E+00 
    1.0149595183137521E+01 
    9.4614742724908876E+00 
    7.4586928123099772E-01 
    6.7092505434505609E+00 
    9.8423419331081643E+00 
    1.0125112437105447E+01 
    1.2742603958127059E+01 
    2.2812367515209959E+00 
    1.0477634363363030E+01 
    1.0364626552511755E+01 
    3.9460823560922629E+00 
    1.3829315443262646E+01 
    8.8333405189324488E+00 
    1.0221596084238456E+01 
    1.3932021860662642E+01 
    5.6182169159200308E+00 
    1.3945719648589682E+01 
    8.9354729795594814E+00 
    1.0393621247704188E+00 
    9.5805528159390558E+00 
    1.4530073871449925E+01 
    1.3649513085733624E+01 
    1.3668531055200592E+01 
    1.0506905865950198E+01 
    1.0297248133241522E+01 
    8.8133236612707577E+00 
    7.2321270194526299E+00 
    1.4037943630459575E+01 
    9.7216130376232215E+00 
    7.0244354269665878E+00 
    1.3663357214892461E+01 
    1.4344804164735409E+01 
    1.0323650947529734E+01 
    9.8922056337499740E+00 
    1.6690643126341513E+01 
    1.0517923015556496E+01 
    1.4053146624440492E+01 
    8.4071288878524779E+00 
    1.6834694119059979E+01 
    6.6894366345904519E+00 
    9.2037901491074461E+00 
    7.4611672952408377E+00 
    1.0743300880757692E+01 
    8.5684419695131098E+00 
    1.6818647482931734E+01 
    1.0564787492052711E+01 
    1.3391894537359882E+01 
    6.8771605746428133E+00 
    1.0114114330148833E+01 
    1.3900140021819293E+01 
    8.5818274938584445E+00 
    7.4993549264748429E+00 
    1.1222005928703741E+01 
    1.4117913712116707E+01 
    7.3693598658123252E+00 
    9.6614965078196224E+00 
    9.9228548793984821E+00 
    1.3625688620670690E+01 
    9.7209228092644082E+00 
    1.4093426107846676E+01 
    1.4702166988704377E+01 
    8.8379584266583056E+00 
    8.6759015389563796E+00 
    7.9925907752936576E+00 
    1.3768181015490732E+01 
    1.0381196516603810E+01 
    1.6411467740983817E+01 
    1.2906471061913599E+01 
    1.3862448613759859E+01 
    1.6103787255077144E+01 
    1.5523423156821892E+01 
    1.0160984411254805E+01 
    1.0134726254192715E+01 
    1.3417504860969219E+01 
    1.3686072931670486E+01 
    1.4205994714139260E+01 
    1.3954109924551316E+01 
    1.6710753176878058E+01 
    1.0517468074867800E+01 
    8.9343175151012861E+00 
    1.0526178727270981E+01 
    1.4617558259344126E+01 
    1.0261116031202373E+01 
    6.0323599978015574E+00 
    1.0020856617803815E+01 
    1.5019660359832612E+01 
    1.0399742231991024E+01 
    8.9380855328075022E+00 
    9.8634131079429590E+00 
    1.5125179723948500E+01 
    1.3710159249569021E+01 
    8.5344672447529231E+00 
    1.5259837383667376E+01 
    1.0190456389716863E+01 
    1.4194688940248403E+01 
    1.5139866353842692E+01 
    1.0782018618194947E+01 
    5.6331908628109213E+00 
    1.1220884436360324E+01 
    5.8128654387857290E+00 
    1.0315632147144118E+01 
    1.0106405841663101E+01 
    1.1783562966589493E+01 
    6.1185453111208972E+00 
    1.2471486252454126E+01 
    1.0126237344533404E+01 
    1.3944149442950257E+01 
    1.0740525256188191E+01 
    8.3597334892137827E+00 
    9.7367128177351763E+00 
    1.0662775877213951E+01 
    1.0619301774909149E+01 
    1.4746812436903097E+01 
    8.5673956933643272E+00 
    8.4267786368508997E+00 
    6.4108102192603420E+00 
    1.4230725341014669E+01 
    9.7786868499436022E+00 
    1.3522801424401214E+01 
    1.0076619772502195E+01 
    6.9698018481644750E+00 
    1.3743855300443402E+01 
    1.0051953253669911E+01 
    7.5551425602092461E+00 
    7.9721221344220812E+00 
    8.2349308591095411E+00 
    1.3974399067897888E+01 
    1.0151562831405210E+01 
    1.4587377967941887E+01 
    1.0010469253235085E+01 
    9.9481745790920133E+00 
    9.5815617597546385E+00 
    1.3821208835958679E+01 
    9.8643847299862095E+00 
    8.2742359764277520E+00 
    1.5510423576500171E+01 
    1.3898015616379231E+01 
    7.0015994023048478E+00 
    2.8974029009532973E+00 
    1.0140923837930009E+01 
    9.4618128943673039E+00 
    8.6743934282708111E+00 
    9.3928198463879475E+00 
    1.3847184258430248E+01 
    9.8570095835564810E+00 
    8.9849115120401439E+00 
    1.3707744623427644E+01 
    6.9422487036614795E+00 
    1.3379719158182587E+01 
    9.1360177264155809E+00 
    8.2383115647942464E+00 
    8.7502121681257332E+00 
    1.4276846801881740E+01 
    1.0093926047407487E+01 
    1.0102015751506427E+01 
    6.1919813187688950E+00 
    6.6562098047220806E+00 
    1.2804789302051296E+01 
    1.0111827850376347E+01 
    1.0180989150752794E+01 
    1.5243573739345878E+01 
    8.4245048783971175E+00 
    1.0124145211565123E+01 
    7.1808108555346069E+00 
    7.4108037017669739E+00 
    1.3817595110788112E+01 
    9.7508948170249123E+00 
    7.2907098807988842E+00 
    1.0664343682481951E+01 
    9.9980346439282091E+00 
    1.3819757835927341E+01 
    1.5334017192520482E+01 
    1.1158575435412772E+00 
    1.0145765316168767E+01 
    1.0358221851269120E+01 
    1.3878201606075519E+01 
    9.6497833980190979E+00 
    1.0067669883453442E+01 
    1.4800040448732002E+01 
    8.7796303146239580E+00 
    7.3522704526692388E+00 
    1.2144000159524444E+01 
    1.3662852534014640E+01 
    1.4674013689668008E+01 
    1.4926102407736270E+01 
    9.9907153632719510E+00 
    1.0137648903854631E+01 
    1.1351950608055477E+01 
    6.6675760475450270E+00 
    1.3786917116102973E+01 
    7.8838440108342533E+00 
    6.9315370273667556E+00 
    1.2621327199445464E+01 
    1.1902785587940324E+01 
    6.8014394614787088E+00 
    1.3698438639925852E+01 
    1.4659624777492020E+01 
    1.0532878374300061E+01 
    1.5432364862789237E+01 
    1.3731134081014778E+01 
    9.7240656282035243E+00 
    1.4401293140739142E+01 
    7.4102238026805365E+00 
    1.3680694466711198E+01 
    1.0144838591470622E+01 
    1.0105423460071341E+01 
    1.5408009361638022E+01 
    9.8131192684877995E+00 
    1.2363219286813930E+01 
    8.7296197598498022E+00 
    1.4773528482438106E+01 
    1.3590040980618754E+01 
    9.0785976060552667E+00 
    1.3639290596963976E+01 
    9.1267336967539379E+00 
    1.0076908212723604E+01 
    1.4619838437346143E+01 
    1.3950112070626272E+01 
    1.4662910301031042E+01 
    1.3881744340885197E+01 
    9.2789951714922871E+00 
    9.4931670069347618E+00 
    1.4669274127911837E+01 
    9.6117999152439175E+00 
    1.3521373133042012E+01 
    9.8009600522163005E+00 
    4.2551513423923364E+00 
    6.9983051747024820E+00 
    6.4920792752750485E+00 
    1.4623077074333064E+01 
    1.5339690204813346E+01 
    1.3657137241240051E+01 
    1.1620241751837751E+01 
    1.3943211010457448E+01 
    1.3704840873276996E+01 
    1.4278492858238154E+01 
    5.9972794039424793E+00 
    3.9697617714698028E+00 
    1.1412419582062139E+01 
    9.8064836072526909E+00 
    1.3848846397456940E+01 
    1.3846407178382194E+01 
    1.0382353037050445E+01 
    1.3882691417721702E+01 
    1.0132103843437113E+01 
    1.0036932768940616E+01 
    5.4481247259483672E+00 
    3.9543240756908213E+00 
    1.5121046891196171E+01 
    7.8715290173686681E+00 
    9.0180259977215869E+00 
    1.0272504936725444E+01 
    1.6691823422357285E+01 
    1.0367464517699222E+01 
    1.0442749752098139E+01 
    4.4739171692157029E+00 
    1.0368962655995709E+01 
    1.0383365896379113E+01 
    1.4165132142057702E+01 
    8.7561317192438981E+00 
    9.6521101277187018E+00 
    1.5285903967272636E+01 
    1.0153978469772852E+01 
    1.3672782867160143E+01 
    1.3921359560943770E+01 
    1.2375234892700671E+01 
    8.5609141733147531E+00 
    1.3881721629058468E+01 
    9.9467429264983434E+00 
    1.3846045943085821E+01 
    1.3612415792663008E+01 
    1.4642064035098565E+01 
    1.3878038392760299E+01 
    1.3025191737096254E+01 
    1.0142991397209562E+01 
    6.7459227574060332E+00 
    1.6568499047499071E+01 
    8.0399618082253497E+00 
    1.4563509457079691E+01 
    1.0140402173647663E+01 
    8.4755780546683273E+00 
    5.1571074260007617E+00 
    1.0420906995640115E+01 
    1.3868603392792087E+01 
    1.3866112900554979E+01 
    1.0057651866994602E+01 
    1.0134568052807680E+01 
    1.5489568901277195E+01 
    1.4871120237993717E+01 
    1.0385667368130004E+01 
    3.6948065517391688E+00 
    1.2981072846991712E+01 
    1.6816710201535599E+01 
    1.0146308634353481E+01 
    1.1985095581415257E+01 
    9.6469721800907049E+00 
    1.6430242776572303E+01 
    1.4950348319777701E+01 
    1.4700938479260213E+01 
    1.0407026556515454E+01 
    4.8033959555397292E+00 
    9.6064765314161153E+00 
    9.6714862861927244E+00 
    9.7164086073272831E+00 
    4.0156151696305544E+00 