# vtk DataFile Version 2.0
Pressure Field Data 
ASCII 
DATASET UNSTRUCTURED_GRID 

POINTS 2860 double 

    0.0000000000000000E+00     0.0000000000000000E+00     0.0000000000000000E+00 
    1.0000000000000000E+00     0.0000000000000000E+00     0.0000000000000000E+00 
    1.0000000000000000E+00     1.0000000000000000E+00     0.0000000000000000E+00 
    0.0000000000000000E+00     1.0000000000000000E+00     0.0000000000000000E+00 
    2.5000000000000000E-01     2.5000000000000000E-01     0.0000000000000000E+00 
    7.5000000000000000E-01     2.5000000000000000E-01     0.0000000000000000E+00 
    7.5000000000000000E-01     7.5000000000000000E-01     0.0000000000000000E+00 
    2.5000000000000000E-01     7.5000000000000000E-01     0.0000000000000000E+00 
    3.1249999999942091E-02     0.0000000000000000E+00     0.0000000000000000E+00 
    6.2499999999873469E-02     0.0000000000000000E+00     0.0000000000000000E+00 
    9.3749999999826514E-02     0.0000000000000000E+00     0.0000000000000000E+00 
    1.2499999999977961E-01     0.0000000000000000E+00     0.0000000000000000E+00 
    1.5624999999968961E-01     0.0000000000000000E+00     0.0000000000000000E+00 
    1.8749999999959971E-01     0.0000000000000000E+00     0.0000000000000000E+00 
    2.1874999999950970E-01     0.0000000000000000E+00     0.0000000000000000E+00 
    2.4999999999941969E-01     0.0000000000000000E+00     0.0000000000000000E+00 
    2.8124999999932920E-01     0.0000000000000000E+00     0.0000000000000000E+00 
    3.1249999999923850E-01     0.0000000000000000E+00     0.0000000000000000E+00 
    3.4374999999914790E-01     0.0000000000000000E+00     0.0000000000000000E+00 
    3.7499999999905720E-01     0.0000000000000000E+00     0.0000000000000000E+00 
    4.0624999999896660E-01     0.0000000000000000E+00     0.0000000000000000E+00 
    4.3749999999887590E-01     0.0000000000000000E+00     0.0000000000000000E+00 
    4.6874999999878530E-01     0.0000000000000000E+00     0.0000000000000000E+00 
    4.9999999999869471E-01     0.0000000000000000E+00     0.0000000000000000E+00 
    5.3124999999877620E-01     0.0000000000000000E+00     0.0000000000000000E+00 
    5.6249999999885780E-01     0.0000000000000000E+00     0.0000000000000000E+00 
    5.9374999999893940E-01     0.0000000000000000E+00     0.0000000000000000E+00 
    6.2499999999902101E-01     0.0000000000000000E+00     0.0000000000000000E+00 
    6.5624999999910261E-01     0.0000000000000000E+00     0.0000000000000000E+00 
    6.8749999999918421E-01     0.0000000000000000E+00     0.0000000000000000E+00 
    7.1874999999926570E-01     0.0000000000000000E+00     0.0000000000000000E+00 
    7.4999999999934730E-01     0.0000000000000000E+00     0.0000000000000000E+00 
    7.8124999999942890E-01     0.0000000000000000E+00     0.0000000000000000E+00 
    8.1249999999951039E-01     0.0000000000000000E+00     0.0000000000000000E+00 
    8.4374999999959199E-01     0.0000000000000000E+00     0.0000000000000000E+00 
    8.7499999999967359E-01     0.0000000000000000E+00     0.0000000000000000E+00 
    9.0624999999975520E-01     0.0000000000000000E+00     0.0000000000000000E+00 
    9.3749999999983680E-01     0.0000000000000000E+00     0.0000000000000000E+00 
    9.6874999999991840E-01     0.0000000000000000E+00     0.0000000000000000E+00 
    1.0000000000000000E+00     3.1249999999942091E-02     0.0000000000000000E+00 
    1.0000000000000000E+00     6.2499999999873469E-02     0.0000000000000000E+00 
    1.0000000000000000E+00     9.3749999999826514E-02     0.0000000000000000E+00 
    1.0000000000000000E+00     1.2499999999977961E-01     0.0000000000000000E+00 
    1.0000000000000000E+00     1.5624999999968961E-01     0.0000000000000000E+00 
    1.0000000000000000E+00     1.8749999999959971E-01     0.0000000000000000E+00 
    1.0000000000000000E+00     2.1874999999950970E-01     0.0000000000000000E+00 
    1.0000000000000000E+00     2.4999999999941969E-01     0.0000000000000000E+00 
    1.0000000000000000E+00     2.8124999999932920E-01     0.0000000000000000E+00 
    1.0000000000000000E+00     3.1249999999923850E-01     0.0000000000000000E+00 
    1.0000000000000000E+00     3.4374999999914790E-01     0.0000000000000000E+00 
    1.0000000000000000E+00     3.7499999999905720E-01     0.0000000000000000E+00 
    1.0000000000000000E+00     4.0624999999896660E-01     0.0000000000000000E+00 
    1.0000000000000000E+00     4.3749999999887590E-01     0.0000000000000000E+00 
    1.0000000000000000E+00     4.6874999999878530E-01     0.0000000000000000E+00 
    1.0000000000000000E+00     4.9999999999869471E-01     0.0000000000000000E+00 
    1.0000000000000000E+00     5.3124999999877620E-01     0.0000000000000000E+00 
    1.0000000000000000E+00     5.6249999999885780E-01     0.0000000000000000E+00 
    1.0000000000000000E+00     5.9374999999893940E-01     0.0000000000000000E+00 
    1.0000000000000000E+00     6.2499999999902101E-01     0.0000000000000000E+00 
    1.0000000000000000E+00     6.5624999999910261E-01     0.0000000000000000E+00 
    1.0000000000000000E+00     6.8749999999918421E-01     0.0000000000000000E+00 
    1.0000000000000000E+00     7.1874999999926570E-01     0.0000000000000000E+00 
    1.0000000000000000E+00     7.4999999999934730E-01     0.0000000000000000E+00 
    1.0000000000000000E+00     7.8124999999942890E-01     0.0000000000000000E+00 
    1.0000000000000000E+00     8.1249999999951039E-01     0.0000000000000000E+00 
    1.0000000000000000E+00     8.4374999999959199E-01     0.0000000000000000E+00 
    1.0000000000000000E+00     8.7499999999967359E-01     0.0000000000000000E+00 
    1.0000000000000000E+00     9.0624999999975520E-01     0.0000000000000000E+00 
    1.0000000000000000E+00     9.3749999999983680E-01     0.0000000000000000E+00 
    1.0000000000000000E+00     9.6874999999991840E-01     0.0000000000000000E+00 
    9.6875000000003686E-01     1.0000000000000000E+00     0.0000000000000000E+00 
    9.3750000000011691E-01     1.0000000000000000E+00     0.0000000000000000E+00 
    9.0625000000015765E-01     1.0000000000000000E+00     0.0000000000000000E+00 
    8.7500000000017863E-01     1.0000000000000000E+00     0.0000000000000000E+00 
    8.4375000000028044E-01     1.0000000000000000E+00     0.0000000000000000E+00 
    8.1250000000040856E-01     1.0000000000000000E+00     0.0000000000000000E+00 
    7.8125000000054956E-01     1.0000000000000000E+00     0.0000000000000000E+00 
    7.5000000000066480E-01     1.0000000000000000E+00     0.0000000000000000E+00 
    7.1875000000086831E-01     1.0000000000000000E+00     0.0000000000000000E+00 
    6.8750000000102829E-01     1.0000000000000000E+00     0.0000000000000000E+00 
    6.5625000000114431E-01     1.0000000000000000E+00     0.0000000000000000E+00 
    6.2500000000129829E-01     1.0000000000000000E+00     0.0000000000000000E+00 
    5.9375000000147926E-01     1.0000000000000000E+00     0.0000000000000000E+00 
    5.6250000000168354E-01     1.0000000000000000E+00     0.0000000000000000E+00 
    5.3125000000188671E-01     1.0000000000000000E+00     0.0000000000000000E+00 
    5.0000000000205835E-01     1.0000000000000000E+00     0.0000000000000000E+00 
    4.6875000000192979E-01     1.0000000000000000E+00     0.0000000000000000E+00 
    4.3750000000180111E-01     1.0000000000000000E+00     0.0000000000000000E+00 
    4.0625000000167238E-01     1.0000000000000000E+00     0.0000000000000000E+00 
    3.7500000000154382E-01     1.0000000000000000E+00     0.0000000000000000E+00 
    3.4375000000141509E-01     1.0000000000000000E+00     0.0000000000000000E+00 
    3.1250000000128642E-01     1.0000000000000000E+00     0.0000000000000000E+00 
    2.8125000000115769E-01     1.0000000000000000E+00     0.0000000000000000E+00 
    2.5000000000102918E-01     1.0000000000000000E+00     0.0000000000000000E+00 
    2.1875000000090050E-01     1.0000000000000000E+00     0.0000000000000000E+00 
    1.8750000000077180E-01     1.0000000000000000E+00     0.0000000000000000E+00 
    1.5625000000064329E-01     1.0000000000000000E+00     0.0000000000000000E+00 
    1.2500000000051459E-01     1.0000000000000000E+00     0.0000000000000000E+00 
    9.3750000000385914E-02     1.0000000000000000E+00     0.0000000000000000E+00 
    6.2500000000257239E-02     1.0000000000000000E+00     0.0000000000000000E+00 
    3.1250000000128557E-02     1.0000000000000000E+00     0.0000000000000000E+00 
    0.0000000000000000E+00     9.6875000000003686E-01     0.0000000000000000E+00 
    0.0000000000000000E+00     9.3750000000011691E-01     0.0000000000000000E+00 
    0.0000000000000000E+00     9.0625000000015765E-01     0.0000000000000000E+00 
    0.0000000000000000E+00     8.7500000000017863E-01     0.0000000000000000E+00 
    0.0000000000000000E+00     8.4375000000028044E-01     0.0000000000000000E+00 
    0.0000000000000000E+00     8.1250000000040856E-01     0.0000000000000000E+00 
    0.0000000000000000E+00     7.8125000000054956E-01     0.0000000000000000E+00 
    0.0000000000000000E+00     7.5000000000066480E-01     0.0000000000000000E+00 
    0.0000000000000000E+00     7.1875000000086831E-01     0.0000000000000000E+00 
    0.0000000000000000E+00     6.8750000000102829E-01     0.0000000000000000E+00 
    0.0000000000000000E+00     6.5625000000114431E-01     0.0000000000000000E+00 
    0.0000000000000000E+00     6.2500000000129829E-01     0.0000000000000000E+00 
    0.0000000000000000E+00     5.9375000000147926E-01     0.0000000000000000E+00 
    0.0000000000000000E+00     5.6250000000168354E-01     0.0000000000000000E+00 
    0.0000000000000000E+00     5.3125000000188671E-01     0.0000000000000000E+00 
    0.0000000000000000E+00     5.0000000000205835E-01     0.0000000000000000E+00 
    0.0000000000000000E+00     4.6875000000192979E-01     0.0000000000000000E+00 
    0.0000000000000000E+00     4.3750000000180111E-01     0.0000000000000000E+00 
    0.0000000000000000E+00     4.0625000000167238E-01     0.0000000000000000E+00 
[...]
CELL_DATA 2795 
SCALARS Pressure double 1 
LOOKUP_TABLE default 

    8.4262620283058478E+00 
    1.8636518966502489E+01 
    1.3129645202397050E+01 
    1.2826074572249427E+01 
    1.0334500543121765E+01 
    1.8422989856983769E+01 
    1.9367328735676679E+01 
    7.5492812436179220E+00 
    1.3673464005007371E+01 
    1.0637902644964829E+01 
    9.1364001148333731E+00 
    1.8068875839266891E+01 
    1.8536511663088898E+01 
    1.8379879841487650E+01 
    1.2180985444037407E+01 
    7.4213123234003646E+00 
    1.1906453243414086E+01 
    9.7001934921775970E+00 
    1.7513160666169227E+01 
    1.3110335777877577E+01 
    1.3008458398827333E+01 
    1.8287929084322734E+01 
    1.2510728880856927E+01 
    5.2266148868104789E-01 
    1.8030194851199838E+01 
    1.8479366818394968E+01 
    1.9407220890449839E+01 
    8.8245915051753787E+00 
    1.7951738021682580E+01 
    1.9392266704739832E+01 
    1.3329653994746206E+01 
    1.3312766483769275E+01 
    9.5189611226338116E+00 
    1.3093331929205640E+01 
    4.3094235401733716E+00 
    1.1907677176925556E+01 
    1.3078610660342372E+01 
    1.9440276560529238E+01 
    1.9339275329399833E+01 
    1.8086080674554228E+01 
    1.0187271515112466E+01 
    1.8085593396357840E+01 
    1.0795901731529147E+00 
    1.3095235750440173E+01 
    1.9160738472717249E+01 
    1.8804042844518591E+01 
    1.8054461947227878E+01 
    1.4086511988622547E+01 
    1.8093543946313684E+01 
    1.2171252901201546E+01 
    1.1622150871291391E+01 
    1.3276517196780853E+01 
    1.2982784143314067E+01 
    1.1984313834773964E+01 
    1.3409952812117561E+01 
    1.7208686679321048E+01 
    1.5264281564718191E+01 
    1.0388928847628467E+01 
    1.8298072522358751E+01 
    1.8183701038459596E+01 
    1.2794973963873149E+01 
    1.2661797880179730E+01 
    1.2715377098217497E+01 
    1.9271914890576422E+01 
    1.9617672054027853E+01 
    1.1927185461117737E+01 
    1.3274819506698448E+01 
    1.7763293151758411E+01 
    1.5086238490067702E+01 
    1.2729173675508363E+01 
    1.9597466744272154E+01 
    1.8252360556002426E+01 
    1.1763654747117503E+01 
    1.8929012382864631E+01 
    1.3681714081598548E+01 
    1.7865503069821120E+01 
    1.9465927665755995E+01 
    1.3711761488249092E+01 
    8.5133880116366996E+00 
    1.3293597012672514E+01 
    1.9349652916142894E+01 
    1.9630000496054603E+01 
    1.1920944826779452E+01 
    1.3219836744242377E+01 
    1.9690902019737599E+01 
    1.3076694779552335E+01 
    1.2614123544915110E+01 
    1.5622195277677839E+01 
    8.1691958236059907E+00 
    1.1660631060118702E+01 
    1.3216863353169430E+01 
    1.3828755918749989E+01 
    2.1355247287338528E+01 
    1.0045185343962801E+01 
    1.3282920218198036E+01 
    1.8025194527658197E+01 
    1.8463923810243251E+01 
    8.8562517421439306E+00 
    1.2937121090240582E+01 
    1.3250492553645595E+01 
    1.8497188290560128E+01 
    1.3240258374131731E+01 
    1.8378901483098868E+01 
    5.4049847938035098E+00 
    8.8758284357857509E+00 
    1.3508149164334089E+01 
    1.8645972301881823E+01 
    1.1866816805184202E+01 
    1.2524063668254247E+01 
    1.3216127931977626E+01 
    1.2577497475471821E+01 
    1.4844229226609421E+01 
    1.2209905141833602E+01 
    1.1774848239855393E+01 
    9.2358332431248140E+00 
    1.5613524175055067E+01 
    1.3317477261280688E+01 
    1.9169214760399392E+01 
    1.1509131420210771E+01 
    1.2803850685972687E+01 
    1.8253951876267521E+01 
    1.0795695841399604E+01 
    1.8860390764765420E+01 
    1.3148990818568395E+01 
    1.2725508873106895E+01 
    1.8468614959067512E+01 
    1.3306356203781668E+01 
    1.9474477003550330E+01 
    1.5651183740301676E+01 
    1.6971014071191703E+01 
    1.9428121326129098E+01 
    1.0064254349913380E+01 
    1.3528604371333763E+01 
    1.8460186958264376E+01 
    4.0392431199753434E+00 
    1.3385032075929393E+01 
    1.9386076012395996E+01 
    1.2755925452319188E+01 
    1.4521333688543313E+01 
    8.7238726760466871E+00 
    1.8024847273012551E+01 
    2.1878608254684853E+01 
    1.6266546130463702E+01 
    1.2757523369707704E+01 
    1.1518528737334366E+01 
    1.4152874190584466E+01 
    1.3165926245819543E+01 
    9.2669732635578690E+00 
    1.9423569117141003E+01 
    1.8442544796703928E+01 
    1.8027522993837255E+01 
    1.3831130589842514E+01 
    1.1736141294127757E+01 
    1.3003232979507709E+01 
    1.8962296066982255E+01 
    1.2030814693821139E+01 
    1.3278817372933243E+01 
    1.2226513282866820E+01 
    1.5369040795038151E+01 
    2.1865939014592282E+01 
    1.8015131319530632E+01 
    1.1576728770278777E+01 
    1.8721040436119441E+01 
    1.8594172071094011E+01 
    1.8695912673585919E+01 
    1.9928968367505863E+01 
    2.0558984619119915E+01 
    1.8779461607779130E+01 
    1.3266251260737764E+01 
    1.4307313611574232E+01 
    1.8565078493616841E+01 
    1.9167770056809506E+01 
    9.6868264349864877E+00 
    1.8052633543101752E+01 
    1.8909435588185111E+01 
    9.4214114599933350E+00 
    1.9839780597360868E+01 
    1.9805390304718852E+01 
    1.7601643769892167E+01 
    1.3603036358311572E+01 
    3.5679671375421176E+00 
    1.9388691982921081E+01 
    1.3443890988361542E+01 
    1.9546402532561597E+01 
    1.2674500256692511E+01 
    1.9118092506272074E+01 
    1.3388718156091668E+00 
    1.6965440681763258E+01 
    1.2710424823044692E+01 
    1.1681462680212736E+01 
    1.1388577274382962E+01 
    1.3116578546221097E+01 
    1.4393539873728237E+01 
    1.3776214070685448E+01 
    9.3409518690022662E+00 
    1.9171343579396414E+01 
    1.8490125859762252E+01 
    1.5228304418499686E+01 
    1.3498533487564787E+01 
    2.0636352263554478E+00 
    1.0525284694897529E+01 
    7.3181156097326179E+00 
    1.9407669543857907E+01 
    1.4701488681183180E+01 
    1.8460900833213771E+01 
    1.8580524091120768E+01 
    1.2113752007069058E+01 
    1.5330466126371650E+01 
    1.8014138767284262E+01 
    1.9789556660904658E+01 
    8.7172183285973652E+00 
    1.6297635561352124E+01 
    1.3748256845601921E+01 
    7.7902422840877747E+00 
    1.2115611332471389E+01 
    1.6011651599336034E+01 
    1.8526979370554756E+01 
    1.3167723775060070E+01 
    1.8669919283175055E+01 
    1.8364169657850653E+01 
    1.8297619184143780E+01 
    1.3006362795104600E+01 
    1.1544890905472304E+01 
    1.8037868959688918E+01 
    1.1758152463415861E+01 
    1.3249287398908161E+01 
    1.1542320030459258E+01 
    1.3226186068773291E+01 
    1.8596673885075038E+01 
    8.3513487395444344E+00 
    1.2006266962826158E+01 
    1.9306577405029095E+01 
    1.3013688513329473E+01 
    1.4579634973160365E+01 
    8.5754711939234163E+00 
    1.1830168597359789E+01 
    1.8334967161846809E+01 
    1.8740545819021076E+01 
    7.0133005898427925E+00 
    1.3028263009289581E+01 
    1.1599722115173313E+01 
    2.0293513963015972E+01 
    1.9644628783645651E+01 
    2.0592447775239968E+01 
    1.3048374369184833E+01 
    1.8554559756821291E+01 
    1.7928528497077508E+01 
    1.2901972220954210E+01 
    1.8027701516618922E+01 
    1.3498821227227836E+01 
    7.8610975021739762E+00 
    1.3433954433163027E+01 
    1.9289019892566685E+01 
    1.8023169424340164E+01 
    9.1242397226238747E+00 
    1.8063187151558353E+01 
    1.4425935358431703E+01 
    1.3361435478443322E+01 
    1.2839892087635091E+01 
    1.7809608353509482E+01 
    1.3963589010883137E+01 
    1.8044928002694125E+01 
    1.3025026029777141E+01 
    8.0955567881036998E+00 
    1.3326898753319737E+01 
    1.1397601116182196E+01 
    1.6294866030265815E+01 
    1.9535350370553449E+01 
    1.8036304587328612E+01 
    1.9377823245857950E+01 
    1.2952055193122684E+01 
    8.8693959888583809E+00 
    8.9853349452504041E+00 
    1.3577763652331997E+01 
    1.3219946344347967E+01 
    2.0302642293045805E+00 
    1.7243694149956596E+01 
    1.9974678477128233E+01 
    1.2693438728346992E+01 
    8.2150545701523026E+00 
    1.5158364914123100E+01 
    1.8058517809187013E+01 
    9.7367393621971488E+00 
    6.6480936519078284E+00 
    1.3205245729279072E+01 
    1.8157935073074530E+01 
    1.9061264488253308E+01 
    1.8820222220803917E+01 
    1.8741587263808960E+01 
    9.4565382294749813E+00 
    1.3355236382119550E+01 
    1.7476867377889068E+01 
    1.0450602937067794E+01 
    1.8518452326230836E+01 
    1.5606417883054450E+01 
    9.1060784486203854E+00 
    1.8160818043391448E+01 
    1.9425722554815295E+01 
    1.8234253929065027E+01 
    9.3786498513561529E+00 
    1.3270752570055727E+01 
    1.0305102350511014E+01 
    1.2556258992593960E+01 
    1.8049353812939682E+01 
    1.8033589620305932E+01 
    9.4369385958553593E+00 
    1.9174669965648242E+01 
    1.3885804280641249E+01 
    1.8077526853882713E+01 
    1.9211329214342911E+01 
    1.8060225037689836E+01 
    1.6582730933296990E+01 
    2.0361279380350883E+01 
    1.2631564020000663E+01 
    1.9339173239635514E+01 
    1.8108627694892959E+01 
    1.9431434390123187E+01 
    1.9168585441773217E+01 
    1.2751022679077337E+01 
    1.3118591216166429E+01 
    1.2683629333584559E+01 
    1.5904130125967564E+01 
    5.4370950958399122E+00 
    1.3503388693859165E+01 
    2.0503078493003471E+01 
    1.3504708778547554E+01 
    1.3732785792266007E+01 
    1.9397721515925035E+01 
    1.9675331318611903E+01 
    1.2521727856872346E+01 
    1.8068670217665936E+01 
    1.8029037215497340E+01 
    1.3717380725656362E+01 
    1.9112344642278348E+01 
    9.6038743881945443E+00 
    6.1232560913712772E+00 
    1.4064458686071502E+01 
    1.3518655837399999E+01 
    1.8027001947492810E+01 
    8.8376106383878454E+00 
    1.8728886067973619E+01 
    6.1975016538389340E+00 
    1.3450881589737156E+01 
    1.2768286765648076E+01 
    1.3247021460965550E+01 
    2.1916598613348867E+01 
    5.2684647785255558E+00 
    1.3405548725020425E+01 
    1.5915778294724257E+01 
    1.2842546213188397E+01 
    1.0276791639176677E+01 
    1.8943189835776501E+01 
    2.1457736377088466E+01 
    1.9091600929049640E+01 
    1.3333931689915843E+01 
    7.7619927961162487E+00 
    2.1291223946549177E+01 
    1.8478858044156880E+01 
    9.7756952397080354E+00 
    1.2924450875550034E+01 
    1.9907119211280794E+01 
    4.4883960335663611E+00 
    1.3582073999207521E+01 
    1.9134478177810575E+01 
    1.3263050699182065E+01 
    1.1614126423814309E+01 
    1.3452654558380546E+01 
    1.7592660395799300E+01 
    1.3245138404723889E+01 
    6.9311460538571081E+00 
    1.3215982699280302E+00 
    1.0020822047821149E+01 
    2.0178731471193831E+01 
    1.2683147261619055E+01 
    1.4923393843096239E+01 
    1.4327787437592891E+01 
    1.6348163684025298E+01 
    1.3276797528831606E+01 
    1.8354694774574277E+01 
    2.1931333897583769E+01 
    1.5519431456101142E+01 
    1.9303825917785865E+01 
    7.8523317810648463E-01 
    1.8035676242926602E+01 
    7.5932920990332375E+00 
    2.0691891144737713E+01 
    1.3421688945709414E+01 
    1.1854349301635668E+01 
    1.0504366603686378E+01 
    7.2784290120277717E+00 
    1.4633510004909738E+01 
    1.0585757446838910E+01 
    1.6155814157198613E+01 
    3.0179203970544979E+00 
    1.4471981840062742E+01 
    1.7917783935775589E+01 
    8.1476188136806567E+00 
    1.8607537669290107E+01 
    2.0453872699685054E+01 
    1.8439066051110693E+01 
    1.3260266185640312E+01 
    1.3240549278915273E+01 
    1.3413076651775683E+01 
    7.8770460455826390E+00 
    1.2356790486321518E+01 
    1.2169664665436036E+01 
    1.3400060112257744E+01 
    1.2601239994769561E+01 
    1.0057580294325950E+00 
    8.6541263242372839E+00 
    1.3051784638574215E+01 
    1.3370056699298717E+01 
    1.6619824821676573E+01 
    2.9473259924119413E+00 
    1.3667958662469854E+01 
    1.3527257663083926E+01 
    5.0779766015003114E+00 
    1.8263342694770429E+01 
    1.1760609837765243E+01 
    1.3378862636429865E+01 
    1.8482120532309846E+01 
    7.3055951797166765E+00 
    1.8397627886527101E+01 
    1.1920022738864123E+01 
    1.3470905618402875E+00 
    1.2754036036117116E+01 
    1.9223652783791110E+01 
    1.8036694986296624E+01 
    1.8061205588052413E+01 
    1.3820460630014493E+01 
    1.3453842304671758E+01 
    1.1754549206231815E+01 
    9.3701229020945238E+00 
    1.8648690737873071E+01 
    1.2919158741789255E+01 
    9.1103989929332396E+00 
    1.8055205299011259E+01 
    1.8942126174965534E+01 
    1.3604696135830626E+01 
    1.3063710202024771E+01 
    2.1803807978779535E+01 
    1.3718568487666222E+01 
    1.8654889956945137E+01 
    1.1190949868435219E+01 
    2.1959328987376885E+01 
    8.9289228303616444E+00 
    1.2210859526971703E+01 
    1.0039152768674963E+01 
    1.4003959102504288E+01 
    1.1415382084864980E+01 
    2.1942486658151498E+01 
    1.3777781824118316E+01 
    1.7575619644726888E+01 
    9.2006996006868178E+00 
    1.3271159356421366E+01 
    1.8431835241382050E+01 
    1.1487248810984340E+01 
    9.7587203901397999E+00 
    1.4818535275348506E+01 
    1.8691478345566509E+01 
    9.8094254083326948E+00 
    1.2794533061716681E+01 
    1.3102358898264940E+01 
    1.8002761590139226E+01 
    1.2864217059173555E+01 
    1.8692609797993466E+01 
    1.9467513352285273E+01 
    1.1789417620081295E+01 
    1.1567293070664428E+01 
    1.0599530126005119E+01 
    1.8190684724080480E+01 
    1.3544653940712310E+01 
    2.1496869692104433E+01 
    1.6791730319447169E+01 
    1.8377874090657276E+01 
    2.1150171981738069E+01 
    2.0456905313374996E+01 
    1.3319123277039667E+01 
    1.3381975287165266E+01 
    1.7624269857839614E+01 
    1.8087886991604915E+01 
    1.8873621987665739E+01 
    1.8512930534889009E+01 
    2.1830063527927397E+01 
    1.3717971931143646E+01 
    1.1912827055381014E+01 
    1.3683418981065454E+01 
    1.9357489644110199E+01 
    1.3416986860497000E+01 
    8.0107550259449418E+00 
    1.3240997768395738E+01 
    1.9875680366116701E+01 
    1.3570060562359851E+01 
    1.1921938470246785E+01 
    1.3042915362684898E+01 
    2.0005401074588789E+01 
    1.8170976893158034E+01 
    1.1314472903369509E+01 
    2.0168597388185752E+01 
    1.3348392031708158E+01 
    1.8827234204032543E+01 
    2.0021731277604420E+01 
    1.4093120832762954E+01 
    7.3085255078300051E+00 
    1.4623971723173144E+01 
    7.5532205655191129E+00 
    1.3468519855539011E+01 
    1.3267524155002954E+01 
    1.5376766414334178E+01 
    7.9737740647703159E+00 
    1.6336668343383291E+01 
    1.3284303921379321E+01 
    1.8495395601008749E+01 
    1.4232840134328628E+01 
    1.0946296434621177E+01 
    1.2896888574882153E+01 
    1.4002773768260955E+01 
    1.3845640708092645E+01 
    1.9540223098421571E+01 
    1.1415443189806526E+01 
    1.1219571808708089E+01 
    8.3701525099016081E+00 
    1.8901998842620895E+01 
    1.2945161497403124E+01 
    1.7865702716292244E+01 
    1.3236002951492553E+01 
    9.1337028656377708E+00 
    1.8196476040524445E+01 
    1.3212645042963748E+01 
    9.9580466769051359E+00 
    1.0570723192913441E+01 
    1.0947836621784905E+01 
    1.8549234277919933E+01 
    1.3402422578933907E+01 
    1.9318659274113543E+01 
    1.3173093539557440E+01 
    1.3111729932394706E+01 
    1.2698336495179813E+01 
    1.8314236773988849E+01 
    1.3023162088300579E+01 
    1.1003570338626272E+01 
    2.0444234659526145E+01 
    1.8428471178214078E+01 
    9.3776871838038076E+00 
    3.7127980104946001E+00 
    1.3390045703774765E+01 
    1.2541276520184542E+01 
    1.1561704261611478E+01 
    1.2459815052029878E+01 
    1.8317733535940572E+01 
    1.3041173484398037E+01 
    1.1952880368114615E+01 
    1.8118109045835880E+01 
    9.2748815266214635E+00 
    1.7574252101637349E+01 
    1.2094929600927978E+01 
    1.0832917513003673E+01 
    1.1665897737506910E+01 
    1.8932563382841114E+01 
    1.3249517249272538E+01 
    1.3258314846557287E+01 
    8.1010743634774531E+00 
    8.7474479435159651E+00 
    1.6659235006884728E+01 
    1.3268505968839841E+01 
    1.3437221870920670E+01 
    2.0152101130558638E+01 
    1.1213024324633325E+01 
    1.3281153347857087E+01 
    9.5892140378580830E+00 
    9.8806869654318206E+00 
    1.8274704686562238E+01 
    1.2889257669456025E+01 
    9.6335191473281974E+00 
    1.3833024173629052E+01 
    1.3172375343099183E+01 
    1.8289850375009369E+01 
    2.0260580944810862E+01 
    1.4302204383446664E+00 
    1.3395831678415792E+01 
    1.3517393598084139E+01 
    1.8399403409660223E+01 
    1.2835977335901983E+01 
    1.3220720869281394E+01 
    1.9611822038426663E+01 
    1.1710989111038005E+01 
    9.7180777275539594E+00 
    1.5771711307829609E+01 
    1.8055008849778606E+01 
    1.9428118550889725E+01 
    1.9752797474723376E+01 
    1.3209373592194767E+01 
    1.3385679267618681E+01 
    1.4694902713910622E+01 
    8.9170786710620096E+00 
    1.8235013449086701E+01 
    1.0465533165422572E+01 
    9.2720026995750171E+00 
    1.6380168729162751E+01 
    1.5399669144238924E+01 
    9.0989590846158936E+00 
    1.8103164004289802E+01 
    1.9411191408918416E+01 
    1.3737426116320465E+01 
    2.0378886265312524E+01 
    1.8148420169956989E+01 
    1.2904319770636759E+01 
    1.9037578947368267E+01 
    9.9076047596090220E+00 
    1.8079279978580086E+01 
    1.3394539892402083E+01 
    1.3349673885714484E+01 
    2.0353905978732186E+01 
    1.2989615347100985E+01 
    1.6024931389434133E+01 
    1.1638904337383870E+01 
    1.9558650980861191E+01 
    1.7936042948853157E+01 
    1.2118327566147862E+01 
    1.8023650673224388E+01 
    1.2186520927321256E+01 
    1.3227499200531401E+01 
    1.9360185441690458E+01 
    1.8513476812884825E+01 
    1.9414857789520376E+01 
    1.8404029262921004E+01 
    1.2371332579215611E+01 
    1.2613678705129752E+01 
    1.9424397726374171E+01 
    1.2764201534672564E+01 
    1.7784230473387495E+01 
    1.2968642626788906E+01 
    5.4738117520370988E+00 
    9.3365896625998701E+00 
    8.6624947647758574E+00 
    1.9364588051049797E+01 
    2.0268944118966708E+01 
    1.8046616165335674E+01 
    1.5108698932816910E+01 
    1.8429082099190246E+01 
    1.8115329269458574E+01 
    1.8908477993927342E+01 
    7.8245741343753865E+00 
    5.0952748132502714E+00 
    1.4834955907661625E+01 
    1.3015099269876449E+01 
    1.8324581403195751E+01 
    1.8321167319727227E+01 
    1.3537841203225781E+01 
    1.8372815868675886E+01 
    1.3378938586165962E+01 
    1.3277403784617174E+01 
    7.0773850023232185E+00 
    5.0729502444501682E+00 
    1.9998796216348069E+01 
    1.0488411633621851E+01 
    1.2029356850530172E+01 
    1.3429575181844818E+01 
    2.1806895269964365E+01 
    1.3527981623707785E+01 
    1.3734940695301978E+01 
    5.7654251499563811E+00 
    1.3527797970312147E+01 
    1.3543092660574395E+01 
    1.8653290853447331E+01 
    1.1666358073670324E+01 
    1.2744549091759472E+01 
    2.0201915397039752E+01 
    1.3405624881917859E+01 
    1.8067701507757668E+01 
    1.8358964806306250E+01 
    1.6107888542985297E+01 
    1.1355791232273836E+01 
    1.8402806783419425E+01 
    1.3169377162239348E+01 
    1.8277946739271975E+01 
    1.7982542155186987E+01 
    1.9388997115433181E+01 
    1.8400588473569670E+01 
    1.7000886069458815E+01 
    1.3392253331640431E+01 
    9.0070588434831755E+00 
    2.1672384958100729E+01 
    1.0680842362860698E+01 
    1.9291938151735749E+01 
    1.3389234131664683E+01 
    1.1274296820372475E+01 
    6.7238536592991380E+00 
    1.3583046195385561E+01 
    1.8383923829349133E+01 
    1.8373022504513628E+01 
    1.3206685298570644E+01 
    1.3382454786000041E+01 
    2.0440117268960833E+01 
    1.9683725137594887E+01 
    1.3549941796295906E+01 
    4.7380081430532526E+00 
    1.6885862331461873E+01 
    2.1938842758893784E+01 
    1.3396114484972763E+01 
    1.5586952915625142E+01 
    1.2834620710541905E+01 
    2.1517596786500309E+01 
    1.9784563414721369E+01 
    1.9485958742257566E+01 
    1.3574605148930821E+01 
    6.2688578186265866E+00 
    1.2787474491655637E+01 
    1.2861645644220131E+01 
    1.2908363981460177E+01 
    5.1669617753206420E+00 