# vtk DataFile Version 2.0
Pressure Field Data 
ASCII 
DATASET UNSTRUCTURED_GRID 

POINTS 2860 double 

    0.0000000000000000E+00     0.0000000000000000E+00     0.0000000000000000E+00 
    1.0000000000000000E+00     0.0000000000000000E+00     0.0000000000000000E+00 
    1.0000000000000000E+00     1.0000000000000000E+00     0.0000000000000000E+00 
    0.0000000000000000E+00     1.0000000000000000E+00     0.0000000000000000E+00 
    2.5000000000000000E-01     2.5000000000000000E-01     0.0000000000000000E+00 
    7.5000000000000000E-01     2.5000000000000000E-01     0.0000000000000000E+00 
    7.5000000000000000E-01     7.5000000000000000E-01     0.0000000000000000E+00 
    2.5000000000000000E-01     7.5000000000000000E-01     0.0000000000000000E+00 
    3.1249999999942091E-02     0.0000000000000000E+00     0.0000000000000000E+00 
    6.2499999999873469E-02     0.0000000000000000E+00     0.0000000000000000E+00 
    9.3749999999826514E-02     0.0000000000000000E+00     0.0000000000000000E+00 
    1.2499999999977961E-01     0.0000000000000000E+00     0.0000000000000000E+00 
    1.5624999999968961E-01     0.0000000000000000E+00     0.0000000000000000E+00 
    1.8749999999959971E-01     0.0000000000000000E+00     0.0000000000000000E+00 
    2.1874999999950970E-01     0.0000000000000000E+00     0.0000000000000000E+00 
    2.4999999999941969E-01     0.0000000000000000E+00     0.0000000000000000E+00 
    2.8124999999932920E-01     0.0000000000000000E+00     0.0000000000000000E+00 
    3.1249999999923850E-01     0.0000000000000000E+00     0.0000000000000000E+00 
    3.4374999999914790E-01     0.0000000000000000E+00     0.0000000000000000E+00 
    3.7499999999905720E-01     0.0000000000000000E+00     0.0000000000000000E+00 
    4.0624999999896660E-01     0.0000000000000000E+00     0.0000000000000000E+00 
    4.3749999999887590E-01     0.0000000000000000E+00     0.0000000000000000E+00 
    4.6874999999878530E-01     0.0000000000000000E+00     0.0000000000000000E+00 
    4.9999999999869471E-01     0.0000000000000000E+00     0.0000000000000000E+00 
    5.3124999999877620E-01     0.0000000000000000E+00     0.0000000000000000E+00 
    5.6249999999885780E-01     0.0000000000000000E+00     0.0000000000000000E+00 
    5.9374999999893940E-01     0.0000000000000000E+00     0.0000000000000000E+00 
    6.2499999999902101E-01     0.0000000000000000E+00     0.0000000000000000E+00 
    6.5624999999910261E-01     0.0000000000000000E+00     0.0000000000000000E+00 
    6.8749999999918421E-01     0.0000000000000000E+00     0.0000000000000000E+00 
    7.1874999999926570E-01     0.0000000000000000E+00     0.0000000000000000E+00 
    7.4999999999934730E-01     0.0000000000000000E+00     0.0000000000000000E+00 
    7.8124999999942890E-01     0.0000000000000000E+00     0.0000000000000000E+00 
    8.1249999999951039E-01     0.0000000000000000E+00     0.0000000000000000E+00 
    8.4374999999959199E-01     0.0000000000000000E+00     0.0000000000000000E+00 
    8.7499999999967359E-01     0.0000000000000000E+00     0.0000000000000000E+00 
    9.0624999999975520E-01     0.0000000000000000E+00     0.0000000000000000E+00 
    9.3749999999983680E-01     0.0000000000000000E+00     0.0000000000000000E+00 
    9.6874999999991840E-01     0.0000000000000000E+00     0.0000000000000000E+00 
    1.0000000000000000E+00     3.1249999999942091E-02     0.0000000000000000E+00 
    1.0000000000000000E+00     6.2499999999873469E-02     0.0000000000000000E+00 
    1.0000000000000000E+00     9.3749999999826514E-02     0.0000000000000000E+00 
    1.0000000000000000E+00     1.2499999999977961E-01     0.0000000000000000E+00 
    1.0000000000000000E+00     1.5624999999968961E-01     0.0000000000000000E+00 
    1.0000000000000000E+00     1.8749999999959971E-01     0.0000000000000000E+00 
    1.0000000000000000E+00     2.1874999999950970E-01     0.0000000000000000E+00 
    1.0000000000000000E+00     2.4999999999941969E-01     0.0000000000000000E+00 
    1.0000000000000000E+00     2.8124999999932920E-01     0.0000000000000000E+00 
    1.0000000000000000E+00     3.1249999999923850E-01     0.0000000000000000E+00 
    1.0000000000000000E+00     3.4374999999914790E-01     0.0000000000000000E+00 
    1.0000000000000000E+00     3.7499999999905720E-01     0.0000000000000000E+00 
    1.0000000000000000E+00     4.0624999999896660E-01     0.0000000000000000E+00 
    1.0000000000000000E+00     4.3749999999887590E-01     0.0000000000000000E+00 
    1.0000000000000000E+00     4.6874999999878530E-01     0.0000000000000000E+00 
    1.0000000000000000E+00     4.9999999999869471E-01     0.0000000000000000E+00 
    1.0000000000000000E+00     5.3124999999877620E-01     0.0000000000000000E+00 
    1.0000000000000000E+00     5.6249999999885780E-01     0.0000000000000000E+00 
    1.0000000000000000E+00     5.9374999999893940E-01     0.0000000000000000E+00 
    1.0000000000000000E+00     6.2499999999902101E-01     0.0000000000000000E+00 
    1.0000000000000000E+00     6.5624999999910261E-01     0.0000000000000000E+00 
    1.0000000000000000E+00     6.8749999999918421E-01     0.0000000000000000E+00 
    1.0000000000000000E+00     7.1874999999926570E-01     0.0000000000000000E+00 
    1.0000000000000000E+00     7.4999999999934730E-01     0.0000000000000000E+00 
    1.0000000000000000E+00     7.8124999999942890E-01     0.0000000000000000E+00 
    1.0000000000000000E+00     8.1249999999951039E-01     0.0000000000000000E+00 
    1.0000000000000000E+00     8.4374999999959199E-01     0.0000000000000000E+00 
    1.0000000000000000E+00     8.7499999999967359E-01     0.0000000000000000E+00 
    1.0000000000000000E+00     9.0624999999975520E-01     0.0000000000000000E+00 
    1.0000000000000000E+00     9.3749999999983680E-01     0.0000000000000000E+00 
    1.0000000000000000E+00     9.6874999999991840E-01     0.0000000000000000E+00 
    9.6875000000003686E-01     1.0000000000000000E+00     0.0000000000000000E+00 
    9.3750000000011691E-01     1.0000000000000000E+00     0.0000000000000000E+00 
    9.0625000000015765E-01     1.0000000000000000E+00     0.0000000000000000E+00 
    8.7500000000017863E-01     1.0000000000000000E+00     0.0000000000000000E+00 
    8.4375000000028044E-01     1.0000000000000000E+00     0.0000000000000000E+00 
    8.1250000000040856E-01     1.0000000000000000E+00     0.0000000000000000E+00 
    7.8125000000054956E-01     1.0000000000000000E+00     0.0000000000000000E+00 
    7.5000000000066480E-01     1.0000000000000000E+00     0.0000000000000000E+00 
    7.1875000000086831E-01     1.0000000000000000E+00     0.0000000000000000E+00 
    6.8750000000102829E-01     1.0000000000000000E+00     0.0000000000000000E+00 
    6.5625000000114431E-01     1.0000000000000000E+00     0.0000000000000000E+00 
    6.2500000000129829E-01     1.0000000000000000E+00     0.0000000000000000E+00 
    5.9375000000147926E-01     1.0000000000000000E+00     0.0000000000000000E+00 
    5.6250000000168354E-01     1.0000000000000000E+00     0.0000000000000000E+00 
    5.3125000000188671E-01     1.0000000000000000E+00     0.0000000000000000E+00 
    5.0000000000205835E-01     1.0000000000000000E+00     0.0000000000000000E+00 
    4.6875000000192979E-01     1.0000000000000000E+00     0.0000000000000000E+00 
    4.3750000000180111E-01     1.0000000000000000E+00     0.0000000000000000E+00 
    4.0625000000167238E-01     1.0000000000000000E+00     0.0000000000000000E+00 
    3.7500000000154382E-01     1.0000000000000000E+00     0.0000000000000000E+00 
    3.4375000000141509E-01     1.0000000000000000E+00     0.0000000000000000E+00 
    3.1250000000128642E-01     1.0000000000000000E+00     0.0000000000000000E+00 
    2.8125000000115769E-01     1.0000000000000000E+00     0.0000000000000000E+00 
    2.5000000000102918E-01     1.0000000000000000E+00     0.0000000000000000E+00 
    2.1875000000090050E-01     1.0000000000000000E+00     0.0000000000000000E+00 
    1.8750000000077180E-01     1.0000000000000000E+00     0.0000000000000000E+00 
    1.5625000000064329E-01     1.0000000000000000E+00     0.0000000000000000E+00 
    1.2500000000051459E-01     1.0000000000000000E+00     0.0000000000000000E+00 
    9.3750000000385914E-02     1.0000000000000000E+00     0.0000000000000000E+00 
    6.2500000000257239E-02     1.0000000000000000E+00     0.0000000000000000E+00 
    3.1250000000128557E-02     1.0000000000000000E+00     0.0000000000000000E+00 
    0.0000000000000000E+00     9.6875000000003686E-01     0.0000000000000000E+00 
    0.0000000000000000E+00     9.3750000000011691E-01     0.0000000000000000E+00 
    0.0000000000000000E+00     9.0625000000015765E-01     0.0000000000000000E+00 
    0.0000000000000000E+00     8.7500000000017863E-01     0.0000000000000000E+00 
    0.0000000000000000E+00     8.4375000000028044E-01     0.0000000000000000E+00 
    0.0000000000000000E+00     8.1250000000040856E-01     0.0000000000000000E+00 
    0.0000000000000000E+00     7.8125000000054956E-01     0.0000000000000000E+00 
    0.0000000000000000E+00     7.5000000000066480E-01     0.0000000000000000E+00 
    0.0000000000000000E+00     7.1875000000086831E-01     0.0000000000000000E+00 
    0.0000000000000000E+00     6.8750000000102829E-01     0.0000000000000000E+00 
    0.0000000000000000E+00     6.5625000000114431E-01     0.0000000000000000E+00 
    0.0000000000000000E+00     6.2500000000129829E-01     0.0000000000000000E+00 
    0.0000000000000000E+00     5.9375000000147926E-01     0.0000000000000000E+00 
    0.0000000000000000E+00     5.6250000000168354E-01     0.0000000000000000E+00 
    0.0000000000000000E+00     5.3125000000188671E-01     0.0000000000000000E+00 
    0.0000000000000000E+00     5.0000000000205835E-01     0.0000000000000000E+00 
    0.0000000000000000E+00     4.6875000000192979E-01     0.0000000000000000E+00 
    0.0000000000000000E+00     4.3750000000180111E-01     0.0000000000000000E+00 
    0.0000000000000000E+00     4.0625000000167238E-01     0.0000000000000000E+00 
[...]
CELL_DATA 2795 
SCALARS Pressure double 1 
LOOKUP_TABLE default 

    8.3315036805844063E+00 
    1.8270120241298770E+01 
    1.2886976630727631E+01 
    1.2599578165636146E+01 
    1.0187855066036267E+01 
    1.8074412622652705E+01 
    1.8978380209236857E+01 
    7.4662491961270092E+00 
    1.3420292231110116E+01 
    1.0467484334889065E+01 
    9.0100305423700284E+00 
    1.7742080460396068E+01 
    1.8179265601718008E+01 
    1.8034279904328798E+01 
    1.1956902052531559E+01 
    7.3429152699635303E+00 
    1.1710916518354763E+01 
    9.5567994508210727E+00 
    1.7227202233050090E+01 
    1.2868251610250525E+01 
    1.2767901369607999E+01 
    1.7948191862581439E+01 
    1.2293795753274155E+01 
    5.0768331465019456E-01 
    1.7688397904315579E+01 
    1.8119414799927664E+01 
    1.9016588412044133E+01 
    8.7239957167902222E+00 
    1.7639139918742117E+01 
    1.8999211036592616E+01 
    1.3093152470069811E+01 
    1.3067608288387648E+01 
    9.4408050461897446E+00 
    1.2851238064005944E+01 
    4.3731359336741011E+00 
    1.1711859197181303E+01 
    1.2836866971348030E+01 
    1.9045420272048613E+01 
    1.8951123304672034E+01 
    1.7758318964451579E+01 
    1.0080436124133231E+01 
    1.7743430393151399E+01 
    1.0489329681799053E+00 
    1.2862816238299594E+01 
    1.8764525063604751E+01 
    1.8439431845128013E+01 
    1.7728530940234812E+01 
    1.3826715205398862E+01 
    1.7767678613201628E+01 
    1.1965149625768326E+01 
    1.1436893861521650E+01 
    1.3032165534695611E+01 
    1.2752191175419865E+01 
    1.1785901631932441E+01 
    1.3171919256888101E+01 
    1.6914509942395203E+01 
    1.4982399780645350E+01 
    1.0240415369163012E+01 
    1.7957302415702120E+01 
    1.7851278900307637E+01 
    1.2573206106650499E+01 
    1.2431328198973794E+01 
    1.2491778263293892E+01 
    1.8883083734115139E+01 
    1.9211791681333086E+01 
    1.1731098552408369E+01 
    1.3030532600992927E+01 
    1.7428098620803791E+01 
    1.4807605301322020E+01 
    1.2494716961410118E+01 
    1.9200978422780164E+01 
    1.7905610138478199E+01 
    1.1573727283105502E+01 
    1.8560734658349539E+01 
    1.3437365671821610E+01 
    1.7526091023529251E+01 
    1.9069295575383574E+01 
    1.3466687601889458E+01 
    8.4173743040639586E+00 
    1.3048942643477424E+01 
    1.8961455969116315E+01 
    1.9228562392135075E+01 
    1.1725248231551234E+01 
    1.2976150774237347E+01 
    1.9288299625521237E+01 
    1.2835125749340197E+01 
    1.2393661849944731E+01 
    1.5333838066694092E+01 
    8.0795461493904828E+00 
    1.1474602959325871E+01 
    1.2973330471511002E+01 
    1.3572578836807315E+01 
    2.0911466906095828E+01 
    9.9076125320066684E+00 
    1.3038477971292334E+01 
    1.7700773448210921E+01 
    1.8113575153719268E+01 
    8.7509512187711032E+00 
    1.2698285415815020E+01 
    1.3006188428023076E+01 
    1.8142574119501479E+01 
    1.2996608096509979E+01 
    1.8036611295097575E+01 
    5.3766259362786961E+00 
    8.7564517008285598E+00 
    1.3259344341839142E+01 
    1.8278595676530859E+01 
    1.1672964566808149E+01 
    1.2311021979756834E+01 
    1.2973290517308735E+01 
    1.2358313861206097E+01 
    1.4569865168924970E+01 
    1.2006240500793801E+01 
    1.1584387387454724E+01 
    9.1241794567857060E+00 
    1.5326717996188636E+01 
    1.3072087591538471E+01 
    1.8782987461937129E+01 
    1.1314301377445290E+01 
    1.2578311263002186E+01 
    1.7907561910841455E+01 
    1.0663762970342674E+01 
    1.8479617136331612E+01 
    1.2906352968327193E+01 
    1.2501817878744099E+01 
    1.8117188545613768E+01 
    1.3061449819155735E+01 
    1.9079827031563489E+01 
    1.5361739373356810E+01 
    1.6660251254161000E+01 
    1.9036711266321536E+01 
    9.9251479583487807E+00 
    1.3279354076799081E+01 
    1.8104818141212405E+01 
    4.0207996369558625E+00 
    1.3147527852362368E+01 
    1.8996220440353920E+01 
    1.2531842347975351E+01 
    1.4259851896034007E+01 
    8.6226445088232122E+00 
    1.7696882134079466E+01 
    2.1424651432522424E+01 
    1.5966812100643004E+01 
    1.2532946726412774E+01 
    1.1336165951747123E+01 
    1.3897595903011513E+01 
    1.2922992519868714E+01 
    9.1359064660125497E+00 
    1.9031182259706856E+01 
    1.8094314073220289E+01 
    1.7702742065595274E+01 
    1.3575673314542216E+01 
    1.1547000452107151E+01 
    1.2762909184925540E+01 
    1.8593189858956212E+01 
    1.1830923835389381E+01 
    1.3042235088060592E+01 
    1.2019255685155802E+01 
    1.5079975324469885E+01 
    2.1412163202645210E+01 
    1.7692079563475787E+01 
    1.1440178706921742E+01 
    1.8354965387489869E+01 
    1.8229440970059393E+01 
    1.8326444319214502E+01 
    1.9517537756276770E+01 
    2.0130390166658945E+01 
    1.8417543794491404E+01 
    1.3022137070606892E+01 
    1.4049864622732972E+01 
    1.8213702558042591E+01 
    1.8786998589933741E+01 
    9.5462977546702135E+00 
    1.7727332873686763E+01 
    1.8541858473944728E+01 
    9.2820045906455135E+00 
    1.9431049714615042E+01 
    1.9398036324876877E+01 
    1.7318831380603690E+01 
    1.3352319354121775E+01 
    3.5900471824670186E+00 
    1.8997647165904365E+01 
    1.3196265815818373E+01 
    1.9146343028315183E+01 
    1.2453082363976534E+01 
    1.8744316693092127E+01 
    1.3031313893285810E+00 
    1.6658812749592609E+01 
    1.2478805508259358E+01 
    1.1494588003212462E+01 
    1.1210096012360687E+01 
    1.2874574928809537E+01 
    1.4127906373820050E+01 
    1.3529002205273647E+01 
    9.2265178991399832E+00 
    1.8786658532151360E+01 
    1.8131316088306928E+01 
    1.4947340473891423E+01 
    1.3249887208481072E+01 
    2.0457549333619931E+00 
    1.0372977739686917E+01 
    7.2487967560618829E+00 
    1.9013478749282168E+01 
    1.4433494396206573E+01 
    1.8115250171183344E+01 
    1.8217230338313566E+01 
    1.1911771960925860E+01 
    1.5047885411610716E+01 
    1.7692892649073219E+01 
    1.9382432834233860E+01 
    8.6181290976477616E+00 
    1.5995612676606601E+01 
    1.3501730001754787E+01 
    7.7072138363170382E+00 
    1.1912091437519612E+01 
    1.5713236073319605E+01 
    1.8166854090419331E+01 
    1.2924952719201260E+01 
    1.8301819688763256E+01 
    1.8012538650438398E+01 
    1.7947758977589299E+01 
    1.2766127736372185E+01 
    1.1361656686709361E+01 
    1.7712075318659821E+01 
    1.1567791273563154E+01 
    1.3005283275474488E+01 
    1.1359617567677743E+01 
    1.2990901615359494E+01 
    1.8231798634475581E+01 
    8.2609783166636550E+00 
    1.1806788593448054E+01 
    1.8917214684647220E+01 
    1.2773560688298391E+01 
    1.4314506729243405E+01 
    8.4793460137926679E+00 
    1.1637166967482004E+01 
    1.7985058438747885E+01 
    1.8369068670630995E+01 
    6.9450393921448956E+00 
    1.2787495586941489E+01 
    1.1429671945191062E+01 
    1.9871510400365118E+01 
    1.9242398714078828E+01 
    2.0162609712440435E+01 
    1.2807286065417999E+01 
    1.8193105849255581E+01 
    1.7616316807169838E+01 
    1.2664189701263753E+01 
    1.7703379584294112E+01 
    1.3250139347337377E+01 
    7.7796084155731018E+00 
    1.3194248460640518E+01 
    1.8898601455281014E+01 
    1.7699322297557430E+01 
    9.0016594109482160E+00 
    1.7736934478429529E+01 
    1.4159571583687857E+01 
    1.3124681434354628E+01 
    1.2614130593502930E+01 
    1.7522534047870259E+01 
    1.3712669781352176E+01 
    1.7719068825373775E+01 
    1.2794196970671706E+01 
    8.0130149811469451E+00 
    1.3081042415785474E+01 
    1.1219387540437710E+01 
    1.5993355225270482E+01 
    1.9139057033731270E+01 
    1.7709487134765162E+01 
    1.8988302038761852E+01 
    1.2713423830139067E+01 
    8.7538684511782421E+00 
    8.8664571484133976E+00 
    1.3335794467568984E+01 
    1.2976723567655851E+01 
    2.0085923645098513E+00 
    1.6946442842433253E+01 
    1.9560892145727607E+01 
    1.2470989266511380E+01 
    8.1248819874622882E+00 
    1.4883033450312540E+01 
    1.7733163346131498E+01 
    9.6081316439755877E+00 
    6.5894958410578193E+00 
    1.2961930260426071E+01 
    1.7823522800271888E+01 
    1.8678507055077727E+01 
    1.8456688124890210E+01 
    1.8370069173174709E+01 
    9.3436730799542609E+00 
    1.3118327962674952E+01 
    1.7148499043226451E+01 
    1.0285797280680734E+01 
    1.8162345791668663E+01 
    1.5317284344698985E+01 
    8.9802559327425353E+00 
    1.7831403827850671E+01 
    1.9032545244189865E+01 
    1.7901005084632171E+01 
    9.2620027782975285E+00 
    1.3026552569619987E+01 
    1.0159412494107332E+01 
    1.2331964360397029E+01 
    1.7724007818464742E+01 
    1.7709085582968967E+01 
    9.3144719886797098E+00 
    1.8803263229233316E+01 
    1.3629776776466803E+01 
    1.7745725917906608E+01 
    1.8820803096940462E+01 
    1.7731583475459786E+01 
    1.6277459206294782E+01 
    1.9936585409521108E+01 
    1.2412313549152190E+01 
    1.8951001955095659E+01 
    1.7777968697286017E+01 
    1.9039536293537203E+01 
    1.8800156168907197E+01 
    1.2527940004485929E+01 
    1.2876198963273755E+01 
    1.2461289339755016E+01 
    1.5610815580096888E+01 
    5.3983887001103170E+00 
    1.3263185417859308E+01 
    2.0075204594462857E+01 
    1.3255970961986106E+01 
    1.3479684938201139E+01 
    1.9007048765115229E+01 
    1.9277218695104256E+01 
    1.2308894475819431E+01 
    1.7742309206669198E+01 
    1.7703951328087605E+01 
    1.3464574882900729E+01 
    1.8747077805126104E+01 
    9.4543532491039386E+00 
    6.0656758905741430E+00 
    1.3805019135460524E+01 
    1.3269649763640912E+01 
    1.7705537325074964E+01 
    8.7266577707186741E+00 
    1.8372204323450585E+01 
    6.2091806704835513E+00 
    1.3203181515643822E+01 
    1.2548301645819594E+01 
    1.3003277122924349E+01 
    2.1462377465567652E+01 
    5.2450236069367984E+00 
    1.3167626166512626E+01 
    1.5621343388622636E+01 
    1.2606387006273238E+01 
    1.0139143831902022E+01 
    1.8571265003100024E+01 
    2.1012262092956458E+01 
    1.8715117565052065E+01 
    1.3097948276293987E+01 
    7.6781516665740996E+00 
    2.0846315244461145E+01 
    1.8122911173494455E+01 
    9.6571390816760587E+00 
    1.2695504202055918E+01 
    1.9496558671552123E+01 
    4.4591721848320409E+00 
    1.3331856072854148E+01 
    1.8743987522492660E+01 
    1.3018884732609393E+01 
    1.1416415423211498E+01 
    1.3213627020435430E+01 
    1.7254898135843476E+01 
    1.3001265551369020E+01 
    6.8646537699758001E+00 
    1.2898585548631400E+00 
    9.8619313167738554E+00 
    1.9759422934327048E+01 
    1.2460607428485206E+01 
    1.4650201597960905E+01 
    1.4068439747725977E+01 
    1.6041547124509609E+01 
    1.3032350403811881E+01 
    1.8005324116083269E+01 
    2.1476959868219001E+01 
    1.5231744638368431E+01 
    1.8917026123563371E+01 
    7.6070284728408255E-01 
    1.7711275514543320E+01 
    7.5230180385629062E+00 
    2.0260068662253303E+01 
    1.3183387333975432E+01 
    1.1647260507326031E+01 
    1.0352819911656576E+01 
    7.2022467351560584E+00 
    1.4363525495906540E+01 
    1.0413865583156735E+01 
    1.5855409023107793E+01 
    3.0209694201427011E+00 
    1.4204703717851089E+01 
    1.7608908018379957E+01 
    8.0459678509318060E+00 
    1.8253068088526277E+01 
    2.0034713456561480E+01 
    1.8089747895946445E+01 
    1.3026335744184632E+01 
    1.2996979342672025E+01 
    1.3174973912962683E+01 
    7.7861499005845767E+00 
    1.2145339215074701E+01 
    1.1964823002565785E+01 
    1.3162269743072388E+01 
    1.2381823760537896E+01 
    9.7356638238123638E-01 
    8.5573136217631571E+00 
    1.2820131539200899E+01 
    1.3133073227136336E+01 
    1.6312375128154606E+01 
    2.9233607702935678E+00 
    1.3416098008916331E+01 
    1.3278088128111715E+01 
    5.0458731738478280E+00 
    1.7923235315249862E+01 
    1.1570396777322959E+01 
    1.3132556665461056E+01 
    1.8130452864535147E+01 
    7.2293212425094300E+00 
    1.8052508757579094E+01 
    1.1724226332241811E+01 
    1.3297436603754809E+00 
    1.2529697142960448E+01 
    1.8843925056250207E+01 
    1.7711328335558264E+01 
    1.7733703109311161E+01 
    1.3572892965969494E+01 
    1.3206080440777443E+01 
    1.1563920445451268E+01 
    9.2560411267758127E+00 
    1.8281545092887267E+01 
    1.2690511985108872E+01 
    9.0076929205342182E+00 
    1.7728645863340443E+01 
    1.8570589807671787E+01 
    1.3362021304156320E+01 
    1.2822581185735356E+01 
    2.1351156105717255E+01 
    1.3465739648548201E+01 
    1.8285542783497412E+01 
    1.1022742937259711E+01 
    2.1504901468516405E+01 
    8.8121271519659548E+00 
    1.2007285348114319E+01 
    9.8758732695384381E+00 
    1.3745662000144412E+01 
    1.1211967645729352E+01 
    2.1488187209164550E+01 
    1.3523819170719081E+01 
    1.7241884123869848E+01 
    9.0696823139549068E+00 
    1.3026924787965191E+01 
    1.8077010122575267E+01 
    1.1279168373006565E+01 
    9.6343873646029294E+00 
    1.4547138501544865E+01 
    1.8334408766720841E+01 
    9.6631038098421502E+00 
    1.2573635292308619E+01 
    1.2860248335442872E+01 
    1.7680646393359922E+01 
    1.2627931797907349E+01 
    1.8322990866251374E+01 
    1.9074271361338692E+01 
    1.1598052879736812E+01 
    1.1383591932148299E+01 
    1.0430599861134715E+01 
    1.7857188621300999E+01 
    1.3294386885666075E+01 
    2.1050468091898136E+01 
    1.6479006640186228E+01 
    1.8027269422446192E+01 
    2.0708913888841170E+01 
    2.0037057852311520E+01 
    1.3073903648055072E+01 
    1.3144660066229207E+01 
    1.7308328908935067E+01 
    1.7760301136170735E+01 
    1.8489024624866992E+01 
    1.8154902115872062E+01 
    2.1376767864738746E+01 
    1.3465154557371678E+01 
    1.1716782808187366E+01 
    1.3430460488447396E+01 
    1.8968741500950610E+01 
    1.3169910820487321E+01 
    7.9237709313065992E+00 
    1.3007592412563755E+01 
    1.9465545046952453E+01 
    1.3320072571220944E+01 
    1.1725883700082058E+01 
    1.2801803465417048E+01 
    1.9591442351552942E+01 
    1.7824645351499402E+01 
    1.1178577577562983E+01 
    1.9750265017814584E+01 
    1.3102630404447345E+01 
    1.8451976314307007E+01 
    1.9607816112563508E+01 
    1.3838997516835898E+01 
    7.2348628762910590E+00 
    1.4358683041011444E+01 
    7.4742328636468640E+00 
    1.3220461007413784E+01 
    1.3023140875332572E+01 
    1.5095293628442407E+01 
    7.8870796317445429E+00 
    1.6033372619910637E+01 
    1.3039764851184094E+01 
    1.8138750666857927E+01 
    1.3970420856424063E+01 
    1.0792986468358079E+01 
    1.2659063783071741E+01 
    1.3750975783325213E+01 
    1.3590385518669304E+01 
    1.9138717418131520E+01 
    1.1236621735981918E+01 
    1.1046465067275085E+01 
    8.2786025737504296E+00 
    1.8517480434342072E+01 
    1.2706257711626121E+01 
    1.7527649084756568E+01 
    1.2992307954977731E+01 
    9.0269566661492515E+00 
    1.7851025727394376E+01 
    1.2969318918035986E+01 
    9.8487182525172106E+00 
    1.0430796098800759E+01 
    1.0784573926499160E+01 
    1.8187581822093197E+01 
    1.3164572578451391E+01 
    1.8931736188657329E+01 
    1.2930398295554994E+01 
    1.2870099304280512E+01 
    1.2479934888881598E+01 
    1.7966201677407383E+01 
    1.2783342395566718E+01 
    1.0837514242809966E+01 
    2.0024003660352996E+01 
    1.8078260391109907E+01 
    9.2384444264744534E+00 
    3.6914786501397119E+00 
    1.3152473383324768E+01 
    1.2311823207556269E+01 
    1.1378568340150023E+01 
    1.2248409489149960E+01 
    1.7976355359616036E+01 
    1.2813099561855143E+01 
    1.1756458009588279E+01 
    1.7788626785523707E+01 
    9.1430352782931443E+00 
    1.7268659007685148E+01 
    1.1881313726569617E+01 
    1.0695785435349894E+01 
    1.1478639022287295E+01 
    1.8553399248339225E+01 
    1.3005748134527602E+01 
    1.3014350816056991E+01 
    8.0054993505896483E+00 
    8.6385823073142376E+00 
    1.6346788391011998E+01 
    1.3024336795250559E+01 
    1.3198533473478225E+01 
    1.9733631687313789E+01 
    1.1040009651326656E+01 
    1.3036736122834014E+01 
    9.4458876989141327E+00 
    9.7285472648401470E+00 
    1.7930922901493314E+01 
    1.2652798654302806E+01 
    9.5043950798142500E+00 
    1.3577350191205275E+01 
    1.2929211921634893E+01 
    1.7944049940234077E+01 
    1.9839192666738100E+01 
    1.4100870554333513E+00 
    1.3158114363554262E+01 
    1.3268412303694509E+01 
    1.8048705310305952E+01 
    1.2609559436741645E+01 
    1.2977598883134545E+01 
    1.9207385858126308E+01 
    1.1523084665576322E+01 
    9.5868981899902046E+00 
    1.5479818448604005E+01 
    1.7728838381451745E+01 
    1.9036937575775649E+01 
    1.9347347497891338E+01 
    1.2976420005073487E+01 
    1.3148254455280389E+01 
    1.4423891315401772E+01 
    8.8013253285417399E+00 
    1.7897856405162727E+01 
    1.0315174139705761E+01 
    9.1380492996943410E+00 
    1.6077031260664800E+01 
    1.5115612599185022E+01 
    8.9732234633759198E+00 
    1.7774489085385067E+01 
    1.9020460207619024E+01 
    1.3484236346522737E+01 
    1.9954239994429823E+01 
    1.7817392187583547E+01 
    1.2677921000221707E+01 
    1.8673951018817160E+01 
    9.7450084003113755E+00 
    1.7752470789399517E+01 
    1.3156871852800872E+01 
    1.3112933081140277E+01 
    1.9929454479881809E+01 
    1.2749482050693082E+01 
    1.5729472367370382E+01 
    1.1452558998047911E+01 
    1.9161950066667529E+01 
    1.7626529425378521E+01 
    1.1915203453179439E+01 
    1.7696785386625695E+01 
    1.1959911939453104E+01 
    1.2984371028277526E+01 
    1.8971237468377176E+01 
    1.8158481286737139E+01 
    1.9024053240257008E+01 
    1.8053839063668647E+01 
    1.2158780280661409E+01 
    1.2395907763379268E+01 
    1.9033039212612948E+01 
    1.2541856607837738E+01 
    1.7469854586443720E+01 
    1.2729325578593279E+01 
    5.4540770404957941E+00 
    9.2039600839282620E+00 
    8.5512233393276489E+00 
    1.8975533191374414E+01 
    1.9847116398099882E+01 
    1.7719972833813802E+01 
    1.4829363557993158E+01 
    1.8084062768040926E+01 
    1.7785936855673334E+01 
    1.8538129655421912E+01 
    7.7350573843053665E+00 
    5.0750803403101949E+00 
    1.4560951127035615E+01 
    1.2784586179600762E+01 
    1.7981442834734661E+01 
    1.7978440998910095E+01 
    1.3288433848456783E+01 
    1.8026708773911768E+01 
    1.3141690984240139E+01 
    1.3041210374013648E+01 
    7.0059675855179639E+00 
    5.0482763987273813E+00 
    1.9585236223615968E+01 
    1.0312552349671186E+01 
    1.1829387207310768E+01 
    1.3182284283089798E+01 
    2.1354084576915547E+01 
    1.3278798617055582E+01 
    1.3488739392841067E+01 
    5.7685924478469435E+00 
    1.3278617420547180E+01 
    1.3293621571796532E+01 
    1.8297235902434487E+01 
    1.1479391249242305E+01 
    1.2512906805738552E+01 
    1.9782252138539643E+01 
    1.3167662587341400E+01 
    1.7740441421308898E+01 
    1.8017052057423946E+01 
    1.5808714182714390E+01 
    1.1162159427251661E+01 
    1.8053528093871225E+01 
    1.2936367459869899E+01 
    1.7938840426695371E+01 
    1.7662963833726796E+01 
    1.8999035380784722E+01 
    1.8048465231371075E+01 
    1.6688419108248365E+01 
    1.3154649134865572E+01 
    8.8851308025979350E+00 
    2.1221572515714076E+01 
    1.0523872531805738E+01 
    1.8902160155791265E+01 
    1.3151698590247262E+01 
    1.1099440695185157E+01 
    6.7196960168019757E+00 
    1.3332817631675482E+01 
    1.8034000888446155E+01 
    1.8026876972534119E+01 
    1.2964010554775539E+01 
    1.3145071782465665E+01 
    2.0015350942505890E+01 
    1.9280690244356673E+01 
    1.3300341428544524E+01 
    4.7253341326754406E+00 
    1.6572826010265043E+01 
    2.1484771509510985E+01 
    1.3158423392940993E+01 
    1.5298311366482055E+01 
    1.2608052402071985E+01 
    2.1069446821750432E+01 
    1.9378305728032526E+01 
    1.9087156997491164E+01 
    1.3324537761489136E+01 
    6.2619928562301501E+00 
    1.2562051180762094E+01 
    1.2634570662273095E+01 
    1.2680726395105536E+01 
    5.1667998775989830E+00 