# vtk DataFile Version 2.0
Pressure Field Data 
ASCII 
DATASET UNSTRUCTURED_GRID 

POINTS 2860 double 

    0.0000000000000000E+00     0.0000000000000000E+00     0.0000000000000000E+00 
    1.0000000000000000E+00     0.0000000000000000E+00     0.0000000000000000E+00 
    1.0000000000000000E+00     1.0000000000000000E+00     0.0000000000000000E+00 
    0.0000000000000000E+00     1.0000000000000000E+00     0.0000000000000000E+00 
    2.5000000000000000E-01     2.5000000000000000E-01     0.0000000000000000E+00 
    7.5000000000000000E-01     2.5000000000000000E-01     0.0000000000000000E+00 
    7.5000000000000000E-01     7.5000000000000000E-01     0.0000000000000000E+00 
    2.5000000000000000E-01     7.5000000000000000E-01     0.0000000000000000E+00 
    3.1249999999942091E-02     0.0000000000000000E+00     0.0000000000000000E+00 
    6.2499999999873469E-02     0.0000000000000000E+00     0.0000000000000000E+00 
    9.3749999999826514E-02     0.0000000000000000E+00     0.0000000000000000E+00 
    1.2499999999977961E-01     0.0000000000000000E+00     0.0000000000000000E+00 
    1.5624999999968961E-01     0.0000000000000000E+00     0.0000000000000000E+00 
    1.8749999999959971E-01     0.0000000000000000E+00     0.0000000000000000E+00 
    2.1874999999950970E-01     0.0000000000000000E+00     0.0000000000000000E+00 
    2.4999999999941969E-01     0.0000000000000000E+00     0.0000000000000000E+00 
    2.8124999999932920E-01     0.0000000000000000E+00     0.0000000000000000E+00 
    3.1249999999923850E-01     0.0000000000000000E+00     0.0000000000000000E+00 
    3.4374999999914790E-01     0.0000000000000000E+00     0.0000000000000000E+00 
    3.7499999999905720E-01     0.0000000000000000E+00     0.0000000000000000E+00 
    4.0624999999896660E-01     0.0000000000000000E+00     0.0000000000000000E+00 
    4.3749999999887590E-01     0.0000000000000000E+00     0.0000000000000000E+00 
    4.6874999999878530E-01     0.0000000000000000E+00     0.0000000000000000E+00 
    4.9999999999869471E-01     0.0000000000000000E+00     0.0000000000000000E+00 
    5.3124999999877620E-01     0.0000000000000000E+00     0.0000000000000000E+00 
    5.6249999999885780E-01     0.0000000000000000E+00     0.0000000000000000E+00 
    5.9374999999893940E-01     0.0000000000000000E+00     0.0000000000000000E+00 
    6.2499999999902101E-01     0.0000000000000000E+00     0.0000000000000000E+00 
    6.5624999999910261E-01     0.0000000000000000E+00     0.0000000000000000E+00 
    6.8749999999918421E-01     0.0000000000000000E+00     0.0000000000000000E+00 
    7.1874999999926570E-01     0.0000000000000000E+00     0.0000000000000000E+00 
    7.4999999999934730E-01     0.0000000000000000E+00     0.0000000000000000E+00 
    7.8124999999942890E-01     0.0000000000000000E+00     0.0000000000000000E+00 
    8.1249999999951039E-01     0.0000000000000000E+00     0.0000000000000000E+00 
    8.4374999999959199E-01     0.0000000000000000E+00     0.0000000000000000E+00 
    8.7499999999967359E-01     0.0000000000000000E+00     0.0000000000000000E+00 
    9.0624999999975520E-01     0.0000000000000000E+00     0.0000000000000000E+00 
    9.3749999999983680E-01     0.0000000000000000E+00     0.0000000000000000E+00 
    9.6874999999991840E-01     0.0000000000000000E+00     0.0000000000000000E+00 
    1.0000000000000000E+00     3.1249999999942091E-02     0.0000000000000000E+00 
    1.0000000000000000E+00     6.2499999999873469E-02     0.0000000000000000E+00 
    1.0000000000000000E+00     9.3749999999826514E-02     0.0000000000000000E+00 
    1.0000000000000000E+00     1.2499999999977961E-01     0.0000000000000000E+00 
    1.0000000000000000E+00     1.5624999999968961E-01     0.0000000000000000E+00 
    1.0000000000000000E+00     1.8749999999959971E-01     0.0000000000000000E+00 
    1.0000000000000000E+00     2.1874999999950970E-01     0.0000000000000000E+00 
    1.0000000000000000E+00     2.4999999999941969E-01     0.0000000000000000E+00 
    1.0000000000000000E+00     2.8124999999932920E-01     0.0000000000000000E+00 
    1.0000000000000000E+00     3.1249999999923850E-01     0.0000000000000000E+00 
    1.0000000000000000E+00     3.4374999999914790E-01     0.0000000000000000E+00 
    1.0000000000000000E+00     3.7499999999905720E-01     0.0000000000000000E+00 
    1.0000000000000000E+00     4.0624999999896660E-01     0.0000000000000000E+00 
    1.0000000000000000E+00     4.3749999999887590E-01     0.0000000000000000E+00 
    1.0000000000000000E+00     4.6874999999878530E-01     0.0000000000000000E+00 
    1.0000000000000000E+00     4.9999999999869471E-01     0.0000000000000000E+00 
    1.0000000000000000E+00     5.3124999999877620E-01     0.0000000000000000E+00 
    1.0000000000000000E+00     5.6249999999885780E-01     0.0000000000000000E+00 
    1.0000000000000000E+00     5.9374999999893940E-01     0.0000000000000000E+00 
    1.0000000000000000E+00     6.2499999999902101E-01     0.0000000000000000E+00 
    1.0000000000000000E+00     6.5624999999910261E-01     0.0000000000000000E+00 
    1.0000000000000000E+00     6.8749999999918421E-01     0.0000000000000000E+00 
    1.0000000000000000E+00     7.1874999999926570E-01     0.0000000000000000E+00 
    1.0000000000000000E+00     7.4999999999934730E-01     0.0000000000000000E+00 
    1.0000000000000000E+00     7.8124999999942890E-01     0.0000000000000000E+00 
    1.0000000000000000E+00     8.1249999999951039E-01     0.0000000000000000E+00 
    1.0000000000000000E+00     8.4374999999959199E-01     0.0000000000000000E+00 
    1.0000000000000000E+00     8.7499999999967359E-01     0.0000000000000000E+00 
    1.0000000000000000E+00     9.0624999999975520E-01     0.0000000000000000E+00 
    1.0000000000000000E+00     9.3749999999983680E-01     0.0000000000000000E+00 
    1.0000000000000000E+00     9.6874999999991840E-01     0.0000000000000000E+00 
    9.6875000000003686E-01     1.0000000000000000E+00     0.0000000000000000E+00 
    9.3750000000011691E-01     1.0000000000000000E+00     0.0000000000000000E+00 
    9.0625000000015765E-01     1.0000000000000000E+00     0.0000000000000000E+00 
    8.7500000000017863E-01     1.0000000000000000E+00     0.0000000000000000E+00 
    8.4375000000028044E-01     1.0000000000000000E+00     0.0000000000000000E+00 
    8.1250000000040856E-01     1.0000000000000000E+00     0.0000000000000000E+00 
    7.8125000000054956E-01     1.0000000000000000E+00     0.0000000000000000E+00 
    7.5000000000066480E-01     1.0000000000000000E+00     0.0000000000000000E+00 
    7.1875000000086831E-01     1.0000000000000000E+00     0.0000000000000000E+00 
    6.8750000000102829E-01     1.0000000000000000E+00     0.0000000000000000E+00 
    6.5625000000114431E-01     1.0000000000000000E+00     0.0000000000000000E+00 
    6.2500000000129829E-01     1.0000000000000000E+00     0.0000000000000000E+00 
    5.9375000000147926E-01     1.0000000000000000E+00     0.0000000000000000E+00 
    5.6250000000168354E-01     1.0000000000000000E+00     0.0000000000000000E+00 
    5.3125000000188671E-01     1.0000000000000000E+00     0.0000000000000000E+00 
    5.0000000000205835E-01     1.0000000000000000E+00     0.0000000000000000E+00 
    4.6875000000192979E-01     1.0000000000000000E+00     0.0000000000000000E+00 
    4.3750000000180111E-01     1.0000000000000000E+00     0.0000000000000000E+00 
    4.0625000000167238E-01     1.0000000000000000E+00     0.0000000000000000E+00 
    3.7500000000154382E-01     1.0000000000000000E+00     0.0000000000000000E+00 
    3.4375000000141509E-01     1.0000000000000000E+00     0.0000000000000000E+00 
    3.1250000000128642E-01     1.0000000000000000E+00     0.0000000000000000E+00 
    2.8125000000115769E-01     1.0000000000000000E+00     0.0000000000000000E+00 
    2.5000000000102918E-01     1.0000000000000000E+00     0.0000000000000000E+00 
    2.1875000000090050E-01     1.0000000000000000E+00     0.0000000000000000E+00 
    1.8750000000077180E-01     1.0000000000000000E+00     0.0000000000000000E+00 
    1.5625000000064329E-01     1.0000000000000000E+00     0.0000000000000000E+00 
    1.2500000000051459E-01     1.0000000000000000E+00     0.0000000000000000E+00 
    9.3750000000385914E-02     1.0000000000000000E+00     0.0000000000000000E+00 
    6.2500000000257239E-02     1.0000000000000000E+00     0.0000000000000000E+00 
    3.1250000000128557E-02     1.0000000000000000E+00     0.0000000000000000E+00 
    0.0000000000000000E+00     9.6875000000003686E-01     0.0000000000000000E+00 
    0.0000000000000000E+00     9.3750000000011691E-01     0.0000000000000000E+00 
    0.0000000000000000E+00     9.0625000000015765E-01     0.0000000000000000E+00 
    0.0000000000000000E+00     8.7500000000017863E-01     0.0000000000000000E+00 
    0.0000000000000000E+00     8.4375000000028044E-01     0.0000000000000000E+00 
    0.0000000000000000E+00     8.1250000000040856E-01     0.0000000000000000E+00 
    0.0000000000000000E+00     7.8125000000054956E-01     0.0000000000000000E+00 
    0.0000000000000000E+00     7.5000000000066480E-01     0.0000000000000000E+00 
    0.0000000000000000E+00     7.1875000000086831E-01     0.0000000000000000E+00 
    0.0000000000000000E+00     6.8750000000102829E-01     0.0000000000000000E+00 
    0.0000000000000000E+00     6.5625000000114431E-01     0.0000000000000000E+00 
    0.0000000000000000E+00     6.2500000000129829E-01     0.0000000000000000E+00 
    0.0000000000000000E+00     5.9375000000147926E-01     0.0000000000000000E+00 
    0.0000000000000000E+00     5.6250000000168354E-01     0.0000000000000000E+00 
    0.0000000000000000E+00     5.3125000000188671E-01     0.0000000000000000E+00 
    0.0000000000000000E+00     5.0000000000205835E-01     0.0000000000000000E+00 
    0.0000000000000000E+00     4.6875000000192979E-01     0.0000000000000000E+00 
    0.0000000000000000E+00     4.3750000000180111E-01     0.0000000000000000E+00 
    0.0000000000000000E+00     4.0625000000167238E-01     0.0000000000000000E+00 
[...]
CELL_DATA 2795 
SCALARS Pressure double 1 
LOOKUP_TABLE default 

    5.4133754685877484E+00 
    1.2187361080359736E+01 
    8.6003607565730764E+00 
    8.2507395425576089E+00 
    6.6097885888340953E+00 
    1.2082710191188598E+01 
    1.2720110727923490E+01 
    4.8484580489302438E+00 
    9.0987308464185936E+00 
    6.9239288503383909E+00 
    5.8860550174817821E+00 
    1.1863110930638118E+01 
    1.2102957494709301E+01 
    1.2055850703687758E+01 
    7.9000062464131311E+00 
    4.7662259119655266E+00 
    7.6053380655145579E+00 
    6.2727725470486071E+00 
    1.1553230693060897E+01 
    8.5973499605832977E+00 
    8.4832068498828566E+00 
    1.1999829564094593E+01 
    8.0223271429983463E+00 
    3.2811185259161785E-01 
    1.1846688933776592E+01 
    1.2079680004193316E+01 
    1.2748825886199942E+01 
    5.6586887077960784E+00 
    1.1794771050952265E+01 
    1.2735264134426382E+01 
    8.7059037919498277E+00 
    8.8283758228038192E+00 
    6.0728038434348939E+00 
    8.5613198612544732E+00 
    2.8136792698655921E+00 
    7.6075312980023719E+00 
    8.5530331506452928E+00 
    1.2770524790361112E+01 
    1.2700850281386652E+01 
    1.1874478476684800E+01 
    6.5547874579800443E+00 
    1.1825950789083500E+01 
    6.8015743983260946E-01 
    8.4721645834064017E+00 
    1.2532557335811960E+01 
    1.2390421718778123E+01 
    1.1853827762262105E+01 
    9.4075525338205459E+00 
    1.1916314607380519E+01 
    7.7756868095840881E+00 
    7.4179812031791252E+00 
    8.7938661773124753E+00 
    8.3632194074786277E+00 
    7.6503041102001053E+00 
    8.7791986687343702E+00 
    1.1374276175772252E+01 
    1.0272316770560144E+01 
    6.6444233299613629E+00 
    1.2003025533429151E+01 
    1.1938471541642874E+01 
    8.2931413341731570E+00 
    8.2554035079388726E+00 
    8.1673113625524287E+00 
    1.2648912554867277E+01 
    1.2879257723042954E+01 
    7.6156021494622115E+00 
    8.7919046889663246E+00 
    1.1782401994539061E+01 
    1.0080021099916742E+01 
    8.2859845334311473E+00 
    1.2891874975733229E+01 
    1.1942663614953853E+01 
    7.5097149637979292E+00 
    1.2473193264506820E+01 
    9.0096045900633452E+00 
    1.1718715142702331E+01 
    1.2783917578945646E+01 
    8.9098557663163014E+00 
    5.4767923993591943E+00 
    8.8084008974298449E+00 
    1.2707729269416619E+01 
    1.2909204654770591E+01 
    7.6315219236122989E+00 
    8.7224182727266584E+00 
    1.2951599574889350E+01 
    8.5597020974240330E+00 
    8.0956462784163250E+00 
    1.0431772690785126E+01 
    5.2540826471038393E+00 
    7.4399583420101632E+00 
    8.7240438317693076E+00 
    9.2198569031402187E+00 
    1.4294717996198862E+01 
    6.4276499206509063E+00 
    8.7990181077383340E+00 
    1.1835124513766436E+01 
    1.2060138097169126E+01 
    5.6787330919159409E+00 
    8.4306654884117229E+00 
    8.7516667488227657E+00 
    1.2078299680912005E+01 
    8.7588334885475145E+00 
    1.2018728258138042E+01 
    3.4850888722170250E+00 
    5.7200650613131376E+00 
    8.9931666749104586E+00 
    1.2195063252250856E+01 
    7.5778538909777033E+00 
    8.1080736629341352E+00 
    8.7447910461272578E+00 
    8.0724361073603212E+00 
    9.9518235606576795E+00 
    7.8800550713355619E+00 
    7.5165164559976141E+00 
    5.9624113758371573E+00 
    1.0192321466117850E+01 
    8.8299281860276437E+00 
    1.2571856164747073E+01 
    7.5385215073577694E+00 
    8.2402013689371572E+00 
    1.1932506601635170E+01 
    6.9105032387323488E+00 
    1.2327813329517502E+01 
    8.6410901624782426E+00 
    8.1765267034028213E+00 
    1.2062211464667488E+01 
    8.8200319422388933E+00 
    1.2793751469449404E+01 
    1.0442184946098507E+01 
    1.1245950929198639E+01 
    1.2763802671432527E+01 
    6.4398394502096847E+00 
    9.0096146454971624E+00 
    1.2064601447104746E+01 
    2.6177358383691418E+00 
    8.7573455397832554E+00 
    1.2734234099151484E+01 
    8.2057026867063545E+00 
    9.4654142839075313E+00 
    5.6230124865117066E+00 
    1.1834666800557885E+01 
    1.4752974969633252E+01 
    1.0839000653723485E+01 
    8.1999958405877855E+00 
    7.3540291614052000E+00 
    9.4244898577377239E+00 
    8.6572051143369784E+00 
    5.9488235930667708E+00 
    1.2757404759962197E+01 
    1.2165840750313421E+01 
    1.1836690994249009E+01 
    9.2306985750343724E+00 
    7.4898983805248029E+00 
    8.4820621365806339E+00 
    1.2496263405780683E+01 
    7.6891859857204379E+00 
    8.6034378742002051E+00 
    7.8256659053446009E+00 
    9.9842042145742411E+00 
    1.4741842347148227E+01 
    1.1829113100874681E+01 
    7.4490344982750445E+00 
    1.2230846713097732E+01 
    1.2158858991653814E+01 
    1.2229683429641234E+01 
    1.3127920814453772E+01 
    1.3624057744067535E+01 
    1.2384631020850042E+01 
    8.7843466414307052E+00 
    9.3594544576414815E+00 
    1.2231878282453856E+01 
    1.2585122762790046E+01 
    6.1982179280506866E+00 
    1.1853304614117423E+01 
    1.2461782729677264E+01 
    6.0461358112029231E+00 
    1.3046671051063868E+01 
    1.3037098679304973E+01 
    1.1612828084074678E+01 
    9.0651193009428042E+00 
    2.3308250134698554E+00 
    1.2731928162867392E+01 
    8.9429791494116184E+00 
    1.2839102539200036E+01 
    8.1492945658244391E+00 
    1.2583873805345229E+01 
    8.2803047549129527E-01 
    1.1261613281213844E+01 
    8.2951973419094838E+00 
    7.4555561527022318E+00 
    7.2692105415669221E+00 
    8.6127514299245114E+00 
    9.6445280254089170E+00 
    8.9318320315369775E+00 
    6.0234843226201722E+00 
    1.2578348302429681E+01 
    1.2086398775936408E+01 
    1.0187546634144248E+01 
    8.9860925253470842E+00 
    1.3388959505571172E+00 
    6.7294437477885349E+00 
    4.6883924882466612E+00 
    1.2745586104660042E+01 
    9.8511566429374451E+00 
    1.2141996584351590E+01 
    1.2144736249146501E+01 
    7.7719211229607765E+00 
    1.0263006535256714E+01 
    1.1832253603231038E+01 
    1.3022801928044176E+01 
    5.6138394894767547E+00 
    1.0670888226424696E+01 
    8.9765500072239686E+00 
    5.0033859650417130E+00 
    7.7508872200296262E+00 
    1.0685922437000160E+01 
    1.2111076717341938E+01 
    8.6705720160773438E+00 
    1.2209545402360543E+01 
    1.2001123046102069E+01 
    1.1956910672081062E+01 
    8.4887533726342035E+00 
    7.4160764994318225E+00 
    1.1844192175049274E+01 
    7.5070056432467203E+00 
    8.7616128628101855E+00 
    7.3644422275175732E+00 
    8.5488294474484956E+00 
    1.2152477345693036E+01 
    5.3949729615242008E+00 
    7.6784434940945374E+00 
    1.2671935058596661E+01 
    8.5033304372723020E+00 
    9.7470402533771896E+00 
    5.5351761147587490E+00 
    7.5556649351044305E+00 
    1.1982072716809860E+01 
    1.2259167640291931E+01 
    4.5348548945677400E+00 
    8.5056425484369775E+00 
    7.4036805331899362E+00 
    1.3408408843832930E+01 
    1.2917460971405632E+01 
    1.3647191484826422E+01 
    8.5283380208727664E+00 
    1.2129074907360957E+01 
    1.1795440306674896E+01 
    8.4085497389862702E+00 
    1.1836762822790140E+01 
    8.9868021481126554E+00 
    5.0419674541281507E+00 
    8.7608135673024634E+00 
    1.2657664478436462E+01 
    1.1833959926330468E+01 
    5.8555283338466086E+00 
    1.1859331194482877E+01 
    9.6532276617501882E+00 
    8.7408810578336187E+00 
    8.2808831643301630E+00 
    1.1719407119892093E+01 
    9.2659068878518713E+00 
    1.1848449976654901E+01 
    8.4228581366451643E+00 
    5.1733540660669330E+00 
    8.8275474650199808E+00 
    7.2774377214925670E+00 
    1.0841237445896029E+01 
    1.2838755144930627E+01 
    1.1843267829343299E+01 
    1.2727634454314620E+01 
    8.4549136527229276E+00 
    5.7081817192297910E+00 
    5.7874595304648428E+00 
    8.9241898954810015E+00 
    8.7396273103367292E+00 
    1.2794643438198077E+00 
    1.1417781423392217E+01 
    1.3154862112100968E+01 
    8.1562762119355536E+00 
    5.2825475636226402E+00 
    9.9287420547246636E+00 
    1.1858058151604730E+01 
    6.2339640340351092E+00 
    4.2748567843078735E+00 
    8.7131710264909810E+00 
    1.1946235424882561E+01 
    1.2492928406141152E+01 
    1.2397240327487914E+01 
    1.2262658734014581E+01 
    6.0928613363600119E+00 
    8.7305637880468652E+00 
    1.1433402494950796E+01 
    6.7970143081023462E+00 
    1.2091497142832509E+01 
    1.0451087972875131E+01 
    5.8686342569782948E+00 
    1.1952152980553446E+01 
    1.2739450105724682E+01 
    1.1949368739133615E+01 
    6.0118380717562356E+00 
    8.7883378232769314E+00 
    6.5897603597954451E+00 
    8.2775806982432751E+00 
    1.1850716919916394E+01 
    1.1840615665652189E+01 
    6.0457399502038180E+00 
    1.2619576660673234E+01 
    9.2660687027186484E+00 
    1.1875531504326419E+01 
    1.2591183518681413E+01 
    1.1862035722837129E+01 
    1.1050328285242371E+01 
    1.3454266517417915E+01 
    8.1318855353518185E+00 
    1.2700863714795027E+01 
    1.1903644553196122E+01 
    1.2764818182272961E+01 
    1.2613707255162490E+01 
    8.2159882106221751E+00 
    8.5942702250586063E+00 
    8.1467283835576048E+00 
    1.0628509029592216E+01 
    3.4947762654038588E+00 
    8.8580079001201906E+00 
    1.3571618609182870E+01 
    8.9895923616369657E+00 
    9.1560056403678036E+00 
    1.2740244062115817E+01 
    1.2954327556633768E+01 
    8.1093597366232579E+00 
    1.1863023880811044E+01 
    1.1837836234400916E+01 
    9.1449801580664882E+00 
    1.2573503766677437E+01 
    6.1703464732981113E+00 
    3.9663439282458000E+00 
    9.3948526654263702E+00 
    9.0019677601863179E+00 
    1.1842292313717127E+01 
    5.6645509630626725E+00 
    1.2323174641352214E+01 
    4.0420478062360630E+00 
    8.9444351626518142E+00 
    8.2923199270385339E+00 
    8.7663065896683463E+00 
    1.4790691117766174E+01 
    3.3965636448917857E+00 
    8.7756280731446754E+00 
    1.0371986110753658E+01 
    8.3664407177325160E+00 
    6.6354940243673646E+00 
    1.2429375298986583E+01 
    1.4381502287879167E+01 
    1.2556784116805037E+01 
    8.7199495496300230E+00 
    4.9860302248541988E+00 
    1.4239000796356624E+01 
    1.2076222184777791E+01 
    6.2516115769471714E+00 
    8.3225968518329001E+00 
    1.3112934168058299E+01 
    2.8827620662849163E+00 
    9.0469445877888344E+00 
    1.2526074460773586E+01 
    8.7786862132675143E+00 
    7.6141079622999035E+00 
    8.8151690795371351E+00 
    1.1622582091510418E+01 
    8.7596528040293080E+00 
    4.4562643428892583E+00 
    8.1353994507760297E-01 
    6.4759150367646026E+00 
    1.3307728497822271E+01 
    8.1449905556955216E+00 
    1.0013883845380320E+01 
    9.5696345313582274E+00 
    1.0903398911254563E+01 
    8.7918350473066784E+00 
    1.1995966873529092E+01 
    1.4804256381223984E+01 
    1.0352094054146168E+01 
    1.2676222641175196E+01 
    4.8492725714032442E-01 
    1.1842262197324009E+01 
    4.8452212303626014E+00 
    1.3728905627890766E+01 
    8.7891709062192547E+00 
    7.7179006854121406E+00 
    6.7152038590986667E+00 
    4.6789757778995433E+00 
    9.7848382114094736E+00 
    6.8618319910870857E+00 
    1.0749667038007962E+01 
    1.9807695582828320E+00 
    9.6842096626555279E+00 
    1.1784122176489857E+01 
    5.2562709711399611E+00 
    1.2276162016943186E+01 
    1.3563384366962016E+01 
    1.2153881701829533E+01 
    8.6636906961288016E+00 
    8.7610715053226116E+00 
    8.7818880433745115E+00 
    5.0576992727988621E+00 
    7.9148407543959642E+00 
    7.7852276475912392E+00 
    8.7710783123045797E+00 
    8.0918798561857379E+00 
    6.1182773227657550E-01 
    5.5526822416362256E+00 
    8.4243827389752681E+00 
    8.7476562693138877E+00 
    1.1045645335138262E+01 
    1.8846054409296569E+00 
    9.1092158763768953E+00 
    9.0067664462307846E+00 
    3.2696582510664709E+00 
    1.2034423860482626E+01 
    7.5292678433782854E+00 
    8.8823585957023532E+00 
    1.2073281497197959E+01 
    4.6932111614915666E+00 
    1.2135565261394392E+01 
    7.6142223141701484E+00 
    8.5670983250298782E-01 
    8.1995398977788518E+00 
    1.2630439314613373E+01 
    1.1842653210617991E+01 
    1.1861513600345608E+01 
    9.1278038702248061E+00 
    8.9476684586384447E+00 
    7.5046554350830990E+00 
    6.0338216781279739E+00 
    1.2169919168194976E+01 
    8.3231245817830608E+00 
    5.8095838749128728E+00 
    1.1855733088700212E+01 
    1.2462633124949116E+01 
    8.9502088340883486E+00 
    8.5528148560380775E+00 
    1.4691283208000796E+01 
    9.1457604185760317E+00 
    1.2187055170467399E+01 
    7.1452313247190853E+00 
    1.4832238688857842E+01 
    5.7535697883905481E+00 
    7.8839271191622196E+00 
    6.4356385815424497E+00 
    9.3501677248055639E+00 
    7.3905301094327314E+00 
    1.4816399492079817E+01 
    9.1882674263032182E+00 
    1.1567275941851918E+01 
    5.9165124719476472E+00 
    8.7888628784962872E+00 
    1.2046211796174214E+01 
    7.4071176356247816E+00 
    6.3019234967902733E+00 
    9.6396241389543960E+00 
    1.2260501480237004E+01 
    6.3516611937760805E+00 
    8.3088305923823444E+00 
    8.5787139580622132E+00 
    1.1821131407684963E+01 
    8.3918752444441633E+00 
    1.2228151089694983E+01 
    1.2790873221386601E+01 
    7.5272822681885243E+00 
    7.3832342945045903E+00 
    6.9028808780368998E+00 
    1.1946700412914229E+01 
    9.0164150178865192E+00 
    1.4416596379225471E+01 
    1.1277722095156408E+01 
    1.2010101323928442E+01 
    1.4120738779228613E+01 
    1.3565511398665295E+01 
    8.8346997073834093E+00 
    8.7567659008803833E+00 
    1.1639857799108967E+01 
    1.1874905182852814E+01 
    1.2324561005617708E+01 
    1.2094699744281096E+01 
    1.4709260575620718E+01 
    9.1453477722985603E+00 
    7.6146786019347674E+00 
    9.1238546976784622E+00 
    1.2713370911809980E+01 
    8.9192522201361246E+00 
    5.1478269010096103E+00 
    8.6487565585036457E+00 
    1.3084557581985276E+01 
    9.0385523616990273E+00 
    7.6169272227731186E+00 
    8.5172122072325749E+00 
    1.3184039300802471E+01 
    1.1873874084381406E+01 
    7.2512408647690663E+00 
    1.3310896964637173E+01 
    8.8613724190113405E+00 
    1.2320917183657432E+01 
    1.3197985073509320E+01 
    9.2722845454513969E+00 
    4.6895900724209625E+00 
    9.6225011369223115E+00 
    4.8485915580159187E+00 
    8.9615720288981819E+00 
    8.7785959830955917E+00 
    1.0114788517226927E+01 
    5.1230498434399534E+00 
    1.0734852975637768E+01 
    8.8010058300484921E+00 
    1.2085818177476819E+01 
    9.2210507982409577E+00 
    7.0626685540717151E+00 
    8.4020288351922741E+00 
    9.2986114333573084E+00 
    9.2377403526036996E+00 
    1.2828147529040971E+01 
    7.2849029459625694E+00 
    7.1618988548993352E+00 
    5.3812798956031545E+00 
    1.2349287135414858E+01 
    8.4394510605090698E+00 
    1.1695921508573445E+01 
    8.7509376611482459E+00 
    5.8737204771730323E+00 
    1.1900053271334711E+01 
    8.7256066132475869E+00 
    6.3921985582201364E+00 
    6.7622693853422557E+00 
    6.9946021234619868E+00 
    1.2113017506381841E+01 
    8.7729904340322502E+00 
    1.2685712159443060E+01 
    8.6829213298932615E+00 
    8.6157261284614126E+00 
    8.2315678509656287E+00 
    1.1971628392303622E+01 
    8.5278008227419893E+00 
    7.0290291469564083E+00 
    1.3552437426851688E+01 
    1.2041831730710554E+01 
    6.0272336524002821E+00 
    2.3983240870553391E+00 
    8.7623804259818510E+00 
    8.1643555421562262E+00 
    7.3796802593755162E+00 
    8.0553003834619989E+00 
    1.2018203293967543E+01 
    8.4916986780074826E+00 
    7.6704920618149091E+00 
    1.1894109736606207E+01 
    5.9728021237320945E+00 
    1.1605057257213447E+01 
    7.8900262242105228E+00 
    6.9789798461890458E+00 
    7.4471379743954049E+00 
    1.2396867388313551E+01 
    8.7692725832351375E+00 
    8.7770329414452952E+00 
    5.1994922191750677E+00 
    5.6089970776976692E+00 
    1.1027934043007194E+01 
    8.7863903311787048E+00 
    8.8018437355948720E+00 
    1.3295012248568678E+01 
    7.1611416512773900E+00 
    8.7976702212334441E+00 
    6.1813623827102040E+00 
    6.3818242764839601E+00 
    1.1964834407011615E+01 
    8.4237145160806364E+00 
    6.1682104144155065E+00 
    9.2336202672725882E+00 
    8.6580455714511118E+00 
    1.1967880025967640E+01 
    1.3380684943072328E+01 
    9.3545222094626934E-01 
    8.7670860363300029E+00 
    9.0005561300299295E+00 
    1.2024183807744381E+01 
    8.2648346408185844E+00 
    8.7432207635489707E+00 
    1.2875709058726930E+01 
    7.4740256388307689E+00 
    6.2211574504047666E+00 
    1.0625865377893309E+01 
    1.1854619207904230E+01 
    1.2765653496112611E+01 
    1.2999502299830574E+01 
    8.6169230438213003E+00 
    8.7594843236406454E+00 
    9.8435481237172784E+00 
    5.7273690086492923E+00 
    1.1964422720702055E+01 
    6.6916252932389195E+00 
    5.9642182905750314E+00 
    1.0992464839585807E+01 
    1.0320897795855460E+01 
    5.8487200495014404E+00 
    1.1886896880997423E+01 
    1.2752046357583161E+01 
    9.1593257263250525E+00 
    1.3473715297332458E+01 
    1.1914554149764170E+01 
    8.3497984475281726E+00 
    1.2514239298347821E+01 
    6.3833453410523742E+00 
    1.1870112003961406E+01 
    8.7663206721545563E+00 
    8.7264849253536738E+00 
    1.3449256173409751E+01 
    8.4687837718942180E+00 
    1.0726531100411096E+01 
    7.4309126595508923E+00 
    1.2856851168318295E+01 
    1.1789420351615716E+01 
    7.7436275512243435E+00 
    1.1834205590441352E+01 
    7.8809708395008702E+00 
    8.7538395902546053E+00 
    1.2715725657244707E+01 
    1.2088450307412478E+01 
    1.2755207526682836E+01 
    1.2027147163582313E+01 
    7.9271729220355898E+00 
    8.1346523243873552E+00 
    1.2760704589675626E+01 
    8.2445577839914854E+00 
    1.1731195102052775E+01 
    8.4602555006700939E+00 
    3.5187325604054012E+00 
    6.0241092491247530E+00 
    5.5842337660163146E+00 
    1.2718498110677873E+01 
    1.3385590411864799E+01 
    1.1850422457613165E+01 
    1.0157028588850110E+01 
    1.2099657458531434E+01 
    1.1891521408802184E+01 
    1.2406733224456266E+01 
    5.0239815290834846E+00 
    3.2851213549341240E+00 
    9.9696831101373018E+00 
    8.4172476883866914E+00 
    1.2019601140767861E+01 
    1.2017373649647295E+01 
    9.0166700990005353E+00 
    1.2049844681419664E+01 
    8.7541491275666470E+00 
    8.6486878222357273E+00 
    4.5484800923963862E+00 
    3.2747224742026679E+00 
    1.3180691052948047E+01 
    6.7823221745331521E+00 
    7.6895057592738656E+00 
    8.9263669358989137E+00 
    1.4691727949044825E+01 
    9.0091148875647598E+00 
    9.0320341900798944E+00 
    3.6948156817431212E+00 
    9.0098523154331733E+00 
    9.0219184376169004E+00 
    1.2300448478115857E+01 
    7.4553550347331710E+00 
    8.3459090021205444E+00 
    1.3335367130992601E+01 
    8.7750577328834058E+00 
    1.1864615806256182E+01 
    1.2095219743342682E+01 
    1.0848761619144806E+01 
    7.3759777198065848E+00 
    1.2026735294363911E+01 
    8.5662848128274476E+00 
    1.2045639559056838E+01 
    1.1809240998674317E+01 
    1.2735865861323610E+01 
    1.2024886677564419E+01 
    1.1302506632314879E+01 
    8.7645738953564809E+00 
    5.8028271904295314E+00 
    1.4570983021934735E+01 
    6.8273528247520447E+00 
    1.2663524551632634E+01 
    8.7620000026150677E+00 
    7.2117803334046346E+00 
    4.3057794619823335E+00 
    9.0523339372623859E+00 
    1.2015128441992745E+01 
    1.2011619670180561E+01 
    8.7343036259539293E+00 
    8.7561914035801074E+00 
    1.3529070549953730E+01 
    1.2948119506137296E+01 
    9.0257196431596736E+00 
    3.0585836885308750E+00 
    1.1285389008307412E+01 
    1.4814985018644524E+01 
    8.7678802820476420E+00 
    1.0494100347405695E+01 
    8.2603479062037692E+00 
    1.4436989183540394E+01 
    1.3021278855432316E+01 
    1.2783064719206823E+01 
    9.0447505231930361E+00 
    4.0394488992846638E+00 
    8.2222331514595659E+00 
    8.2852985247047801E+00 
    8.3338447947107426E+00 
    3.3214728227307897E+00 