# vtk DataFile Version 2.0
Pressure Field Data 
ASCII 
DATASET UNSTRUCTURED_GRID 

POINTS 2860 double 

    0.0000000000000000E+00     0.0000000000000000E+00     0.0000000000000000E+00 
    1.0000000000000000E+00     0.0000000000000000E+00     0.0000000000000000E+00 
    1.0000000000000000E+00     1.0000000000000000E+00     0.0000000000000000E+00 
    0.0000000000000000E+00     1.0000000000000000E+00     0.0000000000000000E+00 
    2.5000000000000000E-01     2.5000000000000000E-01     0.0000000000000000E+00 
    7.5000000000000000E-01     2.5000000000000000E-01     0.0000000000000000E+00 
    7.5000000000000000E-01     7.5000000000000000E-01     0.0000000000000000E+00 
    2.5000000000000000E-01     7.5000000000000000E-01     0.0000000000000000E+00 
    3.1249999999942091E-02     0.0000000000000000E+00     0.0000000000000000E+00 
    6.2499999999873469E-02     0.0000000000000000E+00     0.0000000000000000E+00 
    9.3749999999826514E-02     0.0000000000000000E+00     0.0000000000000000E+00 
    1.2499999999977961E-01     0.0000000000000000E+00     0.0000000000000000E+00 
    1.5624999999968961E-01     0.0000000000000000E+00     0.0000000000000000E+00 
    1.8749999999959971E-01     0.0000000000000000E+00     0.0000000000000000E+00 
    2.1874999999950970E-01     0.0000000000000000E+00     0.0000000000000000E+00 
    2.4999999999941969E-01     0.0000000000000000E+00     0.0000000000000000E+00 
    2.8124999999932920E-01     0.0000000000000000E+00     0.0000000000000000E+00 
    3.1249999999923850E-01     0.0000000000000000E+00     0.0000000000000000E+00 
    3.4374999999914790E-01     0.0000000000000000E+00     0.0000000000000000E+00 
    3.7499999999905720E-01     0.0000000000000000E+00     0.0000000000000000E+00 
    4.0624999999896660E-01     0.0000000000000000E+00     0.0000000000000000E+00 
    4.3749999999887590E-01     0.0000000000000000E+00     0.0000000000000000E+00 
    4.6874999999878530E-01     0.0000000000000000E+00     0.0000000000000000E+00 
    4.9999999999869471E-01     0.0000000000000000E+00     0.0000000000000000E+00 
    5.3124999999877620E-01     0.0000000000000000E+00     0.0000000000000000E+00 
    5.6249999999885780E-01     0.0000000000000000E+00     0.0000000000000000E+00 
    5.9374999999893940E-01     0.0000000000000000E+00     0.0000000000000000E+00 
    6.2499999999902101E-01     0.0000000000000000E+00     0.0000000000000000E+00 
    6.5624999999910261E-01     0.0000000000000000E+00     0.0000000000000000E+00 
    6.8749999999918421E-01     0.0000000000000000E+00     0.0000000000000000E+00 
    7.1874999999926570E-01     0.0000000000000000E+00     0.0000000000000000E+00 
    7.4999999999934730E-01     0.0000000000000000E+00     0.0000000000000000E+00 
    7.8124999999942890E-01     0.0000000000000000E+00     0.0000000000000000E+00 
    8.1249999999951039E-01     0.0000000000000000E+00     0.0000000000000000E+00 
    8.4374999999959199E-01     0.0000000000000000E+00     0.0000000000000000E+00 
    8.7499999999967359E-01     0.0000000000000000E+00     0.0000000000000000E+00 
    9.0624999999975520E-01     0.0000000000000000E+00     0.0000000000000000E+00 
    9.3749999999983680E-01     0.0000000000000000E+00     0.0000000000000000E+00 
    9.6874999999991840E-01     0.0000000000000000E+00     0.0000000000000000E+00 
    1.0000000000000000E+00     3.1249999999942091E-02     0.0000000000000000E+00 
    1.0000000000000000E+00     6.2499999999873469E-02     0.0000000000000000E+00 
    1.0000000000000000E+00     9.3749999999826514E-02     0.0000000000000000E+00 
    1.0000000000000000E+00     1.2499999999977961E-01     0.0000000000000000E+00 
    1.0000000000000000E+00     1.5624999999968961E-01     0.0000000000000000E+00 
    1.0000000000000000E+00     1.8749999999959971E-01     0.0000000000000000E+00 
    1.0000000000000000E+00     2.1874999999950970E-01     0.0000000000000000E+00 
    1.0000000000000000E+00     2.4999999999941969E-01     0.0000000000000000E+00 
    1.0000000000000000E+00     2.8124999999932920E-01     0.0000000000000000E+00 
    1.0000000000000000E+00     3.1249999999923850E-01     0.0000000000000000E+00 
    1.0000000000000000E+00     3.4374999999914790E-01     0.0000000000000000E+00 
    1.0000000000000000E+00     3.7499999999905720E-01     0.0000000000000000E+00 
    1.0000000000000000E+00     4.0624999999896660E-01     0.0000000000000000E+00 
    1.0000000000000000E+00     4.3749999999887590E-01     0.0000000000000000E+00 
    1.0000000000000000E+00     4.6874999999878530E-01     0.0000000000000000E+00 
    1.0000000000000000E+00     4.9999999999869471E-01     0.0000000000000000E+00 
    1.0000000000000000E+00     5.3124999999877620E-01     0.0000000000000000E+00 
    1.0000000000000000E+00     5.6249999999885780E-01     0.0000000000000000E+00 
    1.0000000000000000E+00     5.9374999999893940E-01     0.0000000000000000E+00 
    1.0000000000000000E+00     6.2499999999902101E-01     0.0000000000000000E+00 
    1.0000000000000000E+00     6.5624999999910261E-01     0.0000000000000000E+00 
    1.0000000000000000E+00     6.8749999999918421E-01     0.0000000000000000E+00 
    1.0000000000000000E+00     7.1874999999926570E-01     0.0000000000000000E+00 
    1.0000000000000000E+00     7.4999999999934730E-01     0.0000000000000000E+00 
    1.0000000000000000E+00     7.8124999999942890E-01     0.0000000000000000E+00 
    1.0000000000000000E+00     8.1249999999951039E-01     0.0000000000000000E+00 
    1.0000000000000000E+00     8.4374999999959199E-01     0.0000000000000000E+00 
    1.0000000000000000E+00     8.7499999999967359E-01     0.0000000000000000E+00 
    1.0000000000000000E+00     9.0624999999975520E-01     0.0000000000000000E+00 
    1.0000000000000000E+00     9.3749999999983680E-01     0.0000000000000000E+00 
    1.0000000000000000E+00     9.6874999999991840E-01     0.0000000000000000E+00 
    9.6875000000003686E-01     1.0000000000000000E+00     0.0000000000000000E+00 
    9.3750000000011691E-01     1.0000000000000000E+00     0.0000000000000000E+00 
    9.0625000000015765E-01     1.0000000000000000E+00     0.0000000000000000E+00 
    8.7500000000017863E-01     1.0000000000000000E+00     0.0000000000000000E+00 
    8.4375000000028044E-01     1.0000000000000000E+00     0.0000000000000000E+00 
    8.1250000000040856E-01     1.0000000000000000E+00     0.0000000000000000E+00 
    7.8125000000054956E-01     1.0000000000000000E+00     0.0000000000000000E+00 
    7.5000000000066480E-01     1.0000000000000000E+00     0.0000000000000000E+00 
    7.1875000000086831E-01     1.0000000000000000E+00     0.0000000000000000E+00 
    6.8750000000102829E-01     1.0000000000000000E+00     0.0000000000000000E+00 
    6.5625000000114431E-01     1.0000000000000000E+00     0.0000000000000000E+00 
    6.2500000000129829E-01     1.0000000000000000E+00     0.0000000000000000E+00 
    5.9375000000147926E-01     1.0000000000000000E+00     0.0000000000000000E+00 
    5.6250000000168354E-01     1.0000000000000000E+00     0.0000000000000000E+00 
    5.3125000000188671E-01     1.0000000000000000E+00     0.0000000000000000E+00 
    5.0000000000205835E-01     1.0000000000000000E+00     0.0000000000000000E+00 
    4.6875000000192979E-01     1.0000000000000000E+00     0.0000000000000000E+00 
    4.3750000000180111E-01     1.0000000000000000E+00     0.0000000000000000E+00 
    4.0625000000167238E-01     1.0000000000000000E+00     0.0000000000000000E+00 
    3.7500000000154382E-01     1.0000000000000000E+00     0.0000000000000000E+00 
    3.4375000000141509E-01     1.0000000000000000E+00     0.0000000000000000E+00 
    3.1250000000128642E-01     1.0000000000000000E+00     0.0000000000000000E+00 
    2.8125000000115769E-01     1.0000000000000000E+00     0.0000000000000000E+00 
    2.5000000000102918E-01     1.0000000000000000E+00     0.0000000000000000E+00 
    2.1875000000090050E-01     1.0000000000000000E+00     0.0000000000000000E+00 
    1.8750000000077180E-01     1.0000000000000000E+00     0.0000000000000000E+00 
    1.5625000000064329E-01     1.0000000000000000E+00     0.0000000000000000E+00 
    1.2500000000051459E-01     1.0000000000000000E+00     0.0000000000000000E+00 
    9.3750000000385914E-02     1.0000000000000000E+00     0.0000000000000000E+00 
    6.2500000000257239E-02     1.0000000000000000E+00     0.0000000000000000E+00 
    3.1250000000128557E-02     1.0000000000000000E+00     0.0000000000000000E+00 
    0.0000000000000000E+00     9.6875000000003686E-01     0.0000000000000000E+00 
    0.0000000000000000E+00     9.3750000000011691E-01     0.0000000000000000E+00 
    0.0000000000000000E+00     9.0625000000015765E-01     0.0000000000000000E+00 
    0.0000000000000000E+00     8.7500000000017863E-01     0.0000000000000000E+00 
    0.0000000000000000E+00     8.4375000000028044E-01     0.0000000000000000E+00 
    0.0000000000000000E+00     8.1250000000040856E-01     0.0000000000000000E+00 
    0.0000000000000000E+00     7.8125000000054956E-01     0.0000000000000000E+00 
    0.0000000000000000E+00     7.5000000000066480E-01     0.0000000000000000E+00 
    0.0000000000000000E+00     7.1875000000086831E-01     0.0000000000000000E+00 
    0.0000000000000000E+00     6.8750000000102829E-01     0.0000000000000000E+00 
    0.0000000000000000E+00     6.5625000000114431E-01     0.0000000000000000E+00 
    0.0000000000000000E+00     6.2500000000129829E-01     0.0000000000000000E+00 
    0.0000000000000000E+00     5.9375000000147926E-01     0.0000000000000000E+00 
    0.0000000000000000E+00     5.6250000000168354E-01     0.0000000000000000E+00 
    0.0000000000000000E+00     5.3125000000188671E-01     0.0000000000000000E+00 
    0.0000000000000000E+00     5.0000000000205835E-01     0.0000000000000000E+00 
    0.0000000000000000E+00     4.6875000000192979E-01     0.0000000000000000E+00 
    0.0000000000000000E+00     4.3750000000180111E-01     0.0000000000000000E+00 
    0.0000000000000000E+00     4.0625000000167238E-01     0.0000000000000000E+00 
[...]
CELL_DATA 2795 
SCALARS Pressure double 1 
LOOKUP_TABLE default 

    5.7956606271224897E+00 
    1.2967667034569871E+01 
    9.1327749101450699E+00 
    8.8078280487703928E+00 
    7.0680544137307768E+00 
    1.2849653589279797E+01 
    1.3520743437669141E+01 
    5.1959052380404005E+00 
    9.6696389207257134E+00 
    7.3407229636073392E+00 
    6.2402649451557028E+00 
    1.2617000242923446E+01 
    1.2883020015334159E+01 
    1.2821433121532461E+01 
    8.3898008149807719E+00 
    5.1094258281961862E+00 
    8.1276724577300978E+00 
    6.6500995854052700E+00 
    1.2288251221106139E+01 
    9.1228903675478872E+00 
    9.0151160179195102E+00 
    1.2762033065788964E+01 
    8.5661616701945142E+00 
    3.4896677875270743E-01 
    1.2618925987173643E+01 
    1.2855531489606026E+01 
    1.3550481082376535E+01 
    5.9850686425799609E+00 
    1.2544694014729250E+01 
    1.3536304024582266E+01 
    9.2551351514475666E+00 
    9.3482306916789035E+00 
    6.4005732091375407E+00 
    9.0938367506192730E+00 
    3.0038940581037799E+00 
    8.1300151048354117E+00 
    9.0835569216774399E+00 
    1.3572802399967445E+01 
    1.3500209337089972E+01 
    1.2629003435618575E+01 
    7.0170567668366646E+00 
    1.2592088962857416E+01 
    7.2393060930771314E-01 
    9.0454476572003379E+00 
    1.3329544316883421E+01 
    1.3180491070051769E+01 
    1.2607201625602277E+01 
    9.9825920983865810E+00 
    1.2673517385323894E+01 
    8.3082020433628880E+00 
    7.9305277676875274E+00 
    9.3162178422284789E+00 
    8.9290622503137520E+00 
    8.1763710056876047E+00 
    9.3264338064636885E+00 
    1.2098156407814541E+01 
    1.0887960526213151E+01 
    7.1054017686398874E+00 
    1.2765485266222090E+01 
    1.2697036431592984E+01 
    8.8335208346412895E+00 
    8.7696557482180584E+00 
    8.7200611549577545E+00 
    1.3446465246673570E+01 
    1.3688925530608657E+01 
    8.1390418565746057E+00 
    9.3140792199978186E+00 
    1.2531933645780347E+01 
    1.0707516914249215E+01 
    8.8039599194483262E+00 
    1.3698694991640197E+01 
    1.2715606068331343E+01 
    8.0274131344582162E+00 
    1.3268362503744942E+01 
    9.5543350214315783E+00 
    1.2483811523720513E+01 
    1.3587566019724589E+01 
    9.5171342428172050E+00 
    5.8866982280517020E+00 
    9.3321347910681514E+00 
    1.3507724852369938E+01 
    1.3716632702411136E+01 
    8.1533831813575866E+00 
    9.2454394666637967E+00 
    1.3761267858269997E+01 
    9.0868580140009279E+00 
    8.6442423170277323E+00 
    1.1084651098705086E+01 
    5.6385848867791735E+00 
    7.9543007441060798E+00 
    9.2452200618021703E+00 
    9.8003384983184603E+00 
    1.5136193802207544E+01 
    6.8744786537160349E+00 
    9.3218374539188886E+00 
    1.2587388574579997E+01 
    1.2838518560375720E+01 
    6.0803069972647386E+00 
    8.9591932622290393E+00 
    9.2755602034957914E+00 
    1.2857202291969422E+01 
    9.2777475807499599E+00 
    1.2795598895672029E+01 
    3.7380310754701145E+00 
    6.0644726825911404E+00 
    9.5330326181488516E+00 
    1.2975285453573361E+01 
    8.0991701518093286E+00 
    8.6389716230676328E+00 
    9.2641054537370042E+00 
    8.6194043494341557E+00 
    1.0536781705444710E+01 
    8.4029757151700473E+00 
    8.0343763449357848E+00 
    6.3968671196605804E+00 
    1.0873479656755709E+01 
    9.3493070241929352E+00 
    1.3366628410443086E+01 
    7.9904779355276396E+00 
    8.7947898627059757E+00 
    1.2703593210033187E+01 
    7.3924971563547146E+00 
    1.3115101486377313E+01 
    9.1659486653471713E+00 
    8.7293225714436478E+00 
    1.2840467460254459E+01 
    9.3447753925615569E+00 
    1.3597516494071892E+01 
    1.1097185418242971E+01 
    1.1959424601857174E+01 
    1.3566096005241480E+01 
    6.8873334659326169E+00 
    9.5535039591953623E+00 
    1.2841175170391034E+01 
    2.8035166650881793E+00 
    9.3049291765284412E+00 
    1.3535139978183874E+01 
    8.7584908033633901E+00 
    1.0106886506492010E+01 
    6.0358863898239923E+00 
    1.2586225949108721E+01 
    1.5599846519941677E+01 
    1.1521034427031616E+01 
    8.7543261915408479E+00 
    7.8625687191565508E+00 
    9.9498572011794195E+00 
    9.1833021618562949E+00 
    6.3007188127145408E+00 
    1.3559737614119213E+01 
    1.2926324849904820E+01 
    1.2588998618496731E+01 
    9.7986195257634225E+00 
    8.0065416701643191E+00 
    9.0135981431514676E+00 
    1.3291296067353311E+01 
    8.2165475693881760E+00 
    9.1892594695134857E+00 
    8.3583129455599803E+00 
    1.0645163596318685E+01 
    1.5588545651275661E+01 
    1.2581060529667031E+01 
    7.9768123895487664E+00 
    1.3016434517932870E+01 
    1.2937868228157630E+01 
    1.3011304013929522E+01 
    1.3943486496090975E+01 
    1.4452820586325032E+01 
    1.3176324578297736E+01 
    9.3056480528663723E+00 
    1.0002080338628227E+01 
    1.3015669706273020E+01 
    1.3380639110419240E+01 
    6.5629561360202411E+00 
    1.2606711563837761E+01 
    1.3255076956299494E+01 
    6.4051581013931012E+00 
    1.3862615373249255E+01 
    1.3849357475436957E+01 
    1.2351234544150284E+01 
    9.6138215638574422E+00 
    2.4794699703127012E+00 
    1.3533269377901577E+01 
    9.4805514201989478E+00 
    1.3645488541841285E+01 
    8.6987689026569903E+00 
    1.3382023805003215E+01 
    8.8475659466791823E-01 
    1.1973707511907795E+01 
    8.8112097015929720E+00 
    7.9707796582903230E+00 
    7.7730190345947507E+00 
    9.1355283827467719E+00 
    1.0209631646129408E+01 
    9.5363528420178110E+00 
    6.4720080868170813E+00 
    1.3373028860781448E+01 
    1.2863148131201161E+01 
    1.0820985925475400E+01 
    9.5273050081589812E+00 
    1.4310003298233969E+00 
    7.1959374674918557E+00 
    5.0394641354315617E+00 
    1.3547052020750593E+01 
    1.0442132912689225E+01 
    1.2919320459598737E+01 
    1.2924147639612515E+01 
    8.2993847806164709E+00 
    1.0957619810167822E+01 
    1.2584375665388672E+01 
    1.3835029458483405E+01 
    6.0187259591749891E+00 
    1.1381761656510710E+01 
    9.5933353010999713E+00 
    5.3706751662235819E+00 
    8.2794893942261929E+00 
    1.1416986738121405E+01 
    1.2888954089681269E+01 
    9.1914807600055308E+00 
    1.2990785550343405E+01 
    1.2774895050124872E+01 
    1.2728421913697057E+01 
    9.0200851990649440E+00 
    7.9185158020794288E+00 
    1.2596650674659831E+01 
    8.0241480697419707E+00 
    9.2822644496285154E+00 
    7.8743837792685074E+00 
    9.1288444943610791E+00 
    1.2932416894153118E+01 
    5.7206421370083937E+00 
    8.2030574716072113E+00 
    1.3470759627128949E+01 
    9.0335994810379265E+00 
    1.0339200195210662E+01 
    5.8691366815659443E+00 
    8.0748572183857181E+00 
    1.2755182487226573E+01 
    1.3042190509464254E+01 
    4.8094153752572781E+00 
    9.0374656184375848E+00 
    7.9164929841606781E+00 
    1.4232416680111276E+01 
    1.3725607228176756E+01 
    1.4477005485744753E+01 
    9.0582480710907038E+00 
    1.2907761001114714E+01 
    1.2545196614508592E+01 
    8.9351895949993114E+00 
    1.2589148686836932E+01 
    9.5298083049505369E+00 
    5.4215036384454933E+00 
    9.3503954340990045E+00 
    1.3456011722691075E+01 
    1.2586191789573910E+01 
    6.1998535050933778E+00 
    1.2613071689683093E+01 
    1.0223833509437283E+01 
    9.2876163723733267E+00 
    8.8330395597591433E+00 
    1.2464922298528252E+01 
    9.7948670119377166E+00 
    1.2601266728107822E+01 
    8.9848187579624756E+00 
    5.5741570939785969E+00 
    9.3509671482464114E+00 
    7.7812439635900308E+00 
    1.1525648300751051E+01 
    1.3644242433608778E+01 
    1.2595339883637216E+01 
    1.3528441728339292E+01 
    8.9830356866646568E+00 
    6.0525250291972990E+00 
    6.1359305147477299E+00 
    9.4666917155706276E+00 
    9.2588895880483797E+00 
    1.3678833039827116E+00 
    1.2142447261811997E+01 
    1.3972754180987701E+01 
    8.7076032269058583E+00 
    5.6651497069151189E+00 
    1.0603702747564464E+01 
    1.2611750022094656E+01 
    6.6704420096807544E+00 
    4.5827039183998108E+00 
    9.2333996100814026E+00 
    1.2691486546220750E+01 
    1.3284698829540162E+01 
    1.3186717573453080E+01 
    1.3045359974548999E+01 
    6.5283367129304990E+00 
    9.2786875239109516E+00 
    1.2180695538372506E+01 
    7.2054398390154724E+00 
    1.2871046327238584E+01 
    1.1166457456674674E+01 
    6.2218241584552745E+00 
    1.2711690982683919E+01 
    1.3544904255139354E+01 
    1.2724571465851385E+01 
    6.4322352075311890E+00 
    9.3101411274695884E+00 
    7.0471449013915013E+00 
    8.7712208264781939E+00 
    1.2603955659012202E+01 
    1.2593243007602339E+01 
    6.4683876312367721E+00 
    1.3417830645867813E+01 
    9.8185069978583535E+00 
    1.2626005428268970E+01 
    1.3388382705361181E+01 
    1.2613723141702485E+01 
    1.1744897427983084E+01 
    1.4280592670923548E+01 
    8.6772553987002787E+00 
    1.3500201126890959E+01 
    1.2652568418570208E+01 
    1.3567312023814949E+01 
    1.3411204820952166E+01 
    8.7654949872107011E+00 
    9.1248771123410322E+00 
    8.6981496027481402E+00 
    1.1293265537565148E+01 
    3.7478997098676476E+00 
    9.4049530474129011E+00 
    1.4400241690742195E+01 
    9.5290328889098674E+00 
    9.7033082589134168E+00 
    1.3541802703604848E+01 
    1.3763052108467205E+01 
    8.6395726936470911E+00 
    1.2617010697660957E+01 
    1.2590143031221503E+01 
    9.6917671123833902E+00 
    1.3368780506020800E+01 
    6.5396990056379902E+00 
    4.2075024539686483E+00 
    9.9533149872703941E+00 
    9.5425793782739845E+00 
    1.2595009873589387E+01 
    6.0642682224692086E+00 
    1.3107696372297784E+01 
    4.2898583244296562E+00 
    9.4802777450467861E+00 
    8.8279275792761887E+00 
    9.2857278319844685E+00 
    1.5637453373672820E+01 
    3.6423123203939527E+00 
    9.3228462490791841E+00 
    1.1059574324275047E+01 
    8.8903403507403347E+00 
    7.1152483029190421E+00 
    1.3214801786132767E+01 
    1.5224739510674819E+01 
    1.3353872240788160E+01 
    9.2661977114143372E+00 
    5.3476150828502842E+00 
    1.5078546954571749E+01 
    1.2853384965392493E+01 
    6.7369251774841388E+00 
    8.8856305710358683E+00 
    1.3927774012393781E+01 
    3.0904045271640630E+00 
    9.5891994247519108E+00 
    1.3321726113332105E+01 
    9.2993790135036445E+00 
    8.0699439363246430E+00 
    9.3622410784039687E+00 
    1.2388990557215982E+01 
    9.2792523243722691E+00 
    4.7797522065985207E+00 
    8.7103213499069299E-01 
    6.8680673544697637E+00 
    1.4130999775600012E+01 
    8.6963979098197051E+00 
    1.0632208506949976E+01 
    1.0100413380908217E+01 
    1.1647683229252214E+01 
    9.3130015578748324E+00 
    1.2770115378992086E+01 
    1.5651131476828084E+01 
    1.1001816297391228E+01 
    1.3474339317754358E+01 
    5.1650438687490119E-01 
    1.2594999444886991E+01 
    5.2264250746473406E+00 
    1.4560288497597787E+01 
    9.3363515376652515E+00 
    8.1932688249214802E+00 
    7.1808503029965154E+00 
    5.0138892510352360E+00 
    1.0388876611426358E+01 
    7.2795820114513505E+00 
    1.1428832203960658E+01 
    2.1064973115651311E+00 
    1.0256134394266077E+01 
    1.2533309668307961E+01 
    5.5733367476983480E+00 
    1.3059695280038754E+01 
    1.4389627715191089E+01 
    1.2906317795183874E+01 
    9.2086820393813262E+00 
    9.2808121767979070E+00 
    9.3290982453413136E+00 
    5.4186461492126368E+00 
    8.4529832444714348E+00 
    8.3172103049499917E+00 
    9.3182954977296983E+00 
    8.6397163047022048E+00 
    6.5361929198857494E-01 
    5.9769955741431744E+00 
    8.9956002790944556E+00 
    9.2944914628017692E+00 
    1.1744042820654586E+01 
    2.0191931204258373E+00 
    9.6543472477589010E+00 
    9.5471505190153838E+00 
    3.5056345264767494E+00 
    1.2777768952937510E+01 
    8.0448395652865123E+00 
    9.4127260113225599E+00 
    1.2851051603540581E+01 
    5.0310088950467140E+00 
    1.2897135734692419E+01 
    8.1375102917462367E+00 
    9.1606657224674160E-01 
    8.7532635120477380E+00 
    1.3428386283757312E+01 
    1.2595271316066411E+01 
    1.2614008783705382E+01 
    9.6715592784679956E+00 
    9.4844654107337778E+00 
    8.0215891519763449E+00 
    6.4898368657518093E+00 
    1.2952257316955942E+01 
    8.8859326301728121E+00 
    6.2610583034031047E+00 
    1.2608678654822169E+01 
    1.3257386810723293E+01 
    9.4896492661499341E+00 
    9.0804321109143480E+00 
    1.5536664093639628E+01 
    9.6925867958789595E+00 
    1.2968559120096248E+01 
    7.6410572214586212E+00 
    1.5679085483527054E+01 
    6.1000374594917153E+00 
    8.4062397564870608E+00 
    6.8205600100054902E+00 
    9.9065267272632305E+00 
    7.8435165156499433E+00 
    1.5663147661156449E+01 
    9.7370745544605199E+00 
    1.2328944936842896E+01 
    6.2704805206335434E+00 
    9.3107423773519162E+00 
    1.2821824141251676E+01 
    7.8607448155999062E+00 
    6.7651311136712478E+00 
    1.0285891560510759E+01 
    1.3037417249223571E+01 
    6.7334965423968276E+00 
    8.8456575326116162E+00 
    9.1086273643615563E+00 
    1.2572603828881995E+01 
    8.9161160782865316E+00 
    1.3009456505189013E+01 
    1.3594399442082747E+01 
    8.0455396760605566E+00 
    7.8935033065262878E+00 
    7.3172786668422729E+00 
    1.2707342752133025E+01 
    9.5681768613095048E+00 
    1.5259924484014645E+01 
    1.1959665088265517E+01 
    1.2784777006239629E+01 
    1.4958353599607388E+01 
    1.4391320573983171E+01 
    9.3564870634549102E+00 
    9.3038027137685404E+00 
    1.2378894719590999E+01 
    1.2629602909004470E+01 
    1.3113488677650208E+01 
    1.2872858944606376E+01 
    1.5555661779810439E+01 
    9.6921542267639573E+00 
    8.1370999078719048E+00 
    9.6930337698552513E+00 
    1.3513465156326783E+01 
    9.4540309620815552E+00 
    5.4669579104122814E+00 
    9.1934694233802894E+00 
    1.3899353667284803E+01 
    9.5804119596684743E+00 
    8.1394595643870105E+00 
    9.0490601626886420E+00 
    1.4001662918270938E+01 
    1.2641080950647629E+01 
    7.7576191600704600E+00 
    1.4132306143328011E+01 
    9.3869314939952044E+00 
    1.3106311892104817E+01 
    1.4016033470052740E+01 
    9.9082184304251353E+00 
    5.0315471979522988E+00 
    1.0286136873606603E+01 
    5.2001819662460429E+00 
    9.5002928462936627E+00 
    9.3000520659980985E+00 
    1.0806930487716674E+01 
    5.4915497835969838E+00 
    1.1455172196972217E+01 
    9.3226286016820037E+00 
    1.2863474272916994E+01 
    9.8386666891569359E+00 
    7.5779506771078857E+00 
    8.9285801126947266E+00 
    9.8227263415397328E+00 
    9.7888446177612511E+00 
    1.3635168459866833E+01 
    7.7903566330857457E+00 
    7.6592412323191494E+00 
    5.7667671606930808E+00 
    1.3138339939584895E+01 
    8.9682714733035969E+00 
    1.2457079023532172E+01 
    9.2698542191097850E+00 
    6.2912554005770120E+00 
    1.2670178491731452E+01 
    9.2445663175896797E+00 
    6.8414898983747943E+00 
    7.2338127699116930E+00 
    7.4805494577402287E+00 
    1.2892123450478726E+01 
    9.3202196552073051E+00 
    1.3484593123129232E+01 
    9.2022204090959079E+00 
    9.1391595778787789E+00 
    8.7675536260597706E+00 
    1.2744808947559770E+01 
    9.0560440121478010E+00 
    7.5173266504721923E+00 
    1.4378297184042358E+01 
    1.2818336758600372E+01 
    6.3876611383976822E+00 
    2.5685086771423924E+00 
    9.3097055900494876E+00 
    8.6735400033464316E+00 
    7.8907270953851878E+00 
    8.5858433302702473E+00 
    1.2781507990853996E+01 
    9.0339885933015722E+00 
    8.1909524314792126E+00 
    1.2650043029719262E+01 
    6.3320315272381320E+00 
    1.2342345858726391E+01 
    8.3759472366267147E+00 
    7.4740335261150470E+00 
    7.9616898794904767E+00 
    1.3185268042016920E+01 
    9.2890372857065824E+00 
    9.2974750070665948E+00 
    5.5691845407495899E+00 
    6.0044813522344205E+00 
    1.1769358566314162E+01 
    9.3078875733817981E+00 
    9.3490817656940699E+00 
    1.4116200141313827E+01 
    7.6578037485077095E+00 
    9.3204643986237823E+00 
    6.5535991391774520E+00 
    6.7674252202767544E+00 
    1.2739570964653298E+01 
    8.9473484457512189E+00 
    6.5991197981577665E+00 
    9.8060079356178633E+00 
    9.1860747958494251E+00 
    1.2742111834405899E+01 
    1.4204180292081967E+01 
    9.9538922695785581E-01 
    9.3144471362381864E+00 
    9.5409375393525142E+00 
    1.2799644446921661E+01 
    8.8203633480783221E+00 
    9.2630320021982797E+00 
    1.3685418287200497E+01 
    7.9897392463145840E+00 
    6.6560505366923701E+00 
    1.1244102426354027E+01 
    1.2607933970231549E+01 
    1.3567776570329773E+01 
    1.3810214034605549E+01 
    9.1628769147623945E+00 
    9.3066126637973650E+00 
    1.0449916064270679E+01 
    6.0699007868128030E+00 
    1.2724497443571208E+01 
    7.1551573921325415E+00 
    6.3216874577569131E+00 
    1.1670097037597047E+01 
    1.0961343250781693E+01 
    6.1983889321386467E+00 
    1.2641968853631894E+01 
    1.3553787092595545E+01 
    9.7067833756503976E+00 
    1.4299729032512920E+01 
    1.2672085065682348E+01 
    8.8984167543850585E+00 
    1.3306004038591235E+01 
    6.7678453653015085E+00 
    1.2624533539956710E+01 
    9.3135872345158344E+00 
    9.2744077523993838E+00 
    1.4275337412456770E+01 
    8.9999037293328037E+00 
    1.1394235256056858E+01 
    7.9437810225768173E+00 
    1.3662956070226780E+01 
    1.2538997243795169E+01 
    8.2736895762857880E+00 
    1.2585931210914913E+01 
    8.3685674114882680E+00 
    9.2734541655847931E+00 
    1.3515775371251465E+01 
    1.2867684693190821E+01 
    1.3557008778979148E+01 
    1.2802871102255139E+01 
    8.4652020020692476E+00 
    8.6761256333482013E+00 
    1.3562924689890737E+01 
    8.7900728285801577E+00 
    1.2476375771245900E+01 
    8.9899237802629397E+00 
    3.7766912545814808E+00 
    6.3865097864578608E+00 
    5.9206445527611491E+00 
    1.3518778637781180E+01 
    1.4209485209881315E+01 
    1.2602879766889222E+01 
    1.0738984335632612E+01 
    1.2870327690160604E+01 
    1.2647236512358418E+01 
    1.3190899780159061E+01 
    5.3837869575587893E+00 
    3.5223596425356329E+00 
    1.0545039371631715E+01 
    8.9750185597597447E+00 
    1.2782956885778354E+01 
    1.2780605065085224E+01 
    9.5601443814457223E+00 
    1.2814965574737654E+01 
    9.3012086718239377E+00 
    9.2104556037297005E+00 
    4.8758386724234892E+00 
    3.5105744549928075E+00 
    1.3997925425171944E+01 
    7.1948430188754324E+00 
    8.2161850199105171E+00 
    9.4610223851971185E+00 
    1.5537453256369734E+01 
    9.5497265462078982E+00 
    9.6209843582431844E+00 
    3.9642769841684400E+00 
    9.5508846506448659E+00 
    9.5639070280801022E+00 
    1.3087594255701882E+01 
    7.9692561951353129E+00 
    8.8601165237444075E+00 
    1.4157520440694022E+01 
    9.3224950835025684E+00 
    1.2617682935821470E+01 
    1.2865078991316222E+01 
    1.1455930875279806E+01 
    7.8333466559996383E+00 
    1.2802625053905725E+01 
    9.1165701665593790E+00 
    1.2794688263114313E+01 
    1.2560015446715534E+01 
    1.3536935608342629E+01 
    1.2800013638779591E+01 
    1.2014804808617635E+01 
    9.3117985987572158E+00 
    6.1521086310627195E+00 
    1.5415484183040649E+01 
    7.3006148929790191E+00 
    1.3461536545837541E+01 
    9.3092425724583663E+00 
    7.7086994398030946E+00 
    4.6003496955279157E+00 
    9.5974645576100457E+00 
    1.2790286762623241E+01 
    1.2787206280074392E+01 
    9.2541358774869611E+00 
    9.3034787506537722E+00 
    1.4356032817093675E+01 
    1.3757132053364536E+01 
    9.5669257389413751E+00 
    3.2785770421911899E+00 
    1.1990966316964954E+01 
    1.5661484081686346E+01 
    9.3150777997585266E+00 
    1.1087788676877965E+01 
    8.8169332496956674E+00 
    1.5279458674350103E+01 
    1.3833213219052157E+01 
    1.3589585467324488E+01 
    9.5869639077385074E+00 
    4.3065590868724186E+00 
    8.7776031893833935E+00 
    8.8414565045970637E+00 
    8.8874144858054418E+00 
    3.5601120155249313E+00 