# vtk DataFile Version 2.0
Pressure Field Data 
ASCII 
DATASET UNSTRUCTURED_GRID 

POINTS 2860 double 

    0.0000000000000000E+00     0.0000000000000000E+00     0.0000000000000000E+00 
    1.0000000000000000E+00     0.0000000000000000E+00     0.0000000000000000E+00 
    1.0000000000000000E+00     1.0000000000000000E+00     0.0000000000000000E+00 
    0.0000000000000000E+00     1.0000000000000000E+00     0.0000000000000000E+00 
    2.5000000000000000E-01     2.5000000000000000E-01     0.0000000000000000E+00 
    7.5000000000000000E-01     2.5000000000000000E-01     0.0000000000000000E+00 
    7.5000000000000000E-01     7.5000000000000000E-01     0.0000000000000000E+00 
    2.5000000000000000E-01     7.5000000000000000E-01     0.0000000000000000E+00 
    3.1249999999942091E-02     0.0000000000000000E+00     0.0000000000000000E+00 
    6.2499999999873469E-02     0.0000000000000000E+00     0.0000000000000000E+00 
    9.3749999999826514E-02     0.0000000000000000E+00     0.0000000000000000E+00 
    1.2499999999977961E-01     0.0000000000000000E+00     0.0000000000000000E+00 
    1.5624999999968961E-01     0.0000000000000000E+00     0.0000000000000000E+00 
    1.8749999999959971E-01     0.0000000000000000E+00     0.0000000000000000E+00 
    2.1874999999950970E-01     0.0000000000000000E+00     0.0000000000000000E+00 
    2.4999999999941969E-01     0.0000000000000000E+00     0.0000000000000000E+00 
    2.8124999999932920E-01     0.0000000000000000E+00     0.0000000000000000E+00 
    3.1249999999923850E-01     0.0000000000000000E+00     0.0000000000000000E+00 
    3.4374999999914790E-01     0.0000000000000000E+00     0.0000000000000000E+00 
    3.7499999999905720E-01     0.0000000000000000E+00     0.0000000000000000E+00 
    4.0624999999896660E-01     0.0000000000000000E+00     0.0000000000000000E+00 
    4.3749999999887590E-01     0.0000000000000000E+00     0.0000000000000000E+00 
    4.6874999999878530E-01     0.0000000000000000E+00     0.0000000000000000E+00 
    4.9999999999869471E-01     0.0000000000000000E+00     0.0000000000000000E+00 
    5.3124999999877620E-01     0.0000000000000000E+00     0.0000000000000000E+00 
    5.6249999999885780E-01     0.0000000000000000E+00     0.0000000000000000E+00 
    5.9374999999893940E-01     0.0000000000000000E+00     0.0000000000000000E+00 
    6.2499999999902101E-01     0.0000000000000000E+00     0.0000000000000000E+00 
    6.5624999999910261E-01     0.0000000000000000E+00     0.0000000000000000E+00 
    6.8749999999918421E-01     0.0000000000000000E+00     0.0000000000000000E+00 
    7.1874999999926570E-01     0.0000000000000000E+00     0.0000000000000000E+00 
    7.4999999999934730E-01     0.0000000000000000E+00     0.0000000000000000E+00 
    7.8124999999942890E-01     0.0000000000000000E+00     0.0000000000000000E+00 
    8.1249999999951039E-01     0.0000000000000000E+00     0.0000000000000000E+00 
    8.4374999999959199E-01     0.0000000000000000E+00     0.0000000000000000E+00 
    8.7499999999967359E-01     0.0000000000000000E+00     0.0000000000000000E+00 
    9.0624999999975520E-01     0.0000000000000000E+00     0.0000000000000000E+00 
    9.3749999999983680E-01     0.0000000000000000E+00     0.0000000000000000E+00 
    9.6874999999991840E-01     0.0000000000000000E+00     0.0000000000000000E+00 
    1.0000000000000000E+00     3.1249999999942091E-02     0.0000000000000000E+00 
    1.0000000000000000E+00     6.2499999999873469E-02     0.0000000000000000E+00 
    1.0000000000000000E+00     9.3749999999826514E-02     0.0000000000000000E+00 
    1.0000000000000000E+00     1.2499999999977961E-01     0.0000000000000000E+00 
    1.0000000000000000E+00     1.5624999999968961E-01     0.0000000000000000E+00 
    1.0000000000000000E+00     1.8749999999959971E-01     0.0000000000000000E+00 
    1.0000000000000000E+00     2.1874999999950970E-01     0.0000000000000000E+00 
    1.0000000000000000E+00     2.4999999999941969E-01     0.0000000000000000E+00 
    1.0000000000000000E+00     2.8124999999932920E-01     0.0000000000000000E+00 
    1.0000000000000000E+00     3.1249999999923850E-01     0.0000000000000000E+00 
    1.0000000000000000E+00     3.4374999999914790E-01     0.0000000000000000E+00 
    1.0000000000000000E+00     3.7499999999905720E-01     0.0000000000000000E+00 
    1.0000000000000000E+00     4.0624999999896660E-01     0.0000000000000000E+00 
    1.0000000000000000E+00     4.3749999999887590E-01     0.0000000000000000E+00 
    1.0000000000000000E+00     4.6874999999878530E-01     0.0000000000000000E+00 
    1.0000000000000000E+00     4.9999999999869471E-01     0.0000000000000000E+00 
    1.0000000000000000E+00     5.3124999999877620E-01     0.0000000000000000E+00 
    1.0000000000000000E+00     5.6249999999885780E-01     0.0000000000000000E+00 
    1.0000000000000000E+00     5.9374999999893940E-01     0.0000000000000000E+00 
    1.0000000000000000E+00     6.2499999999902101E-01     0.0000000000000000E+00 
    1.0000000000000000E+00     6.5624999999910261E-01     0.0000000000000000E+00 
    1.0000000000000000E+00     6.8749999999918421E-01     0.0000000000000000E+00 
    1.0000000000000000E+00     7.1874999999926570E-01     0.0000000000000000E+00 
    1.0000000000000000E+00     7.4999999999934730E-01     0.0000000000000000E+00 
    1.0000000000000000E+00     7.8124999999942890E-01     0.0000000000000000E+00 
    1.0000000000000000E+00     8.1249999999951039E-01     0.0000000000000000E+00 
    1.0000000000000000E+00     8.4374999999959199E-01     0.0000000000000000E+00 
    1.0000000000000000E+00     8.7499999999967359E-01     0.0000000000000000E+00 
    1.0000000000000000E+00     9.0624999999975520E-01     0.0000000000000000E+00 
    1.0000000000000000E+00     9.3749999999983680E-01     0.0000000000000000E+00 
    1.0000000000000000E+00     9.6874999999991840E-01     0.0000000000000000E+00 
    9.6875000000003686E-01     1.0000000000000000E+00     0.0000000000000000E+00 
    9.3750000000011691E-01     1.0000000000000000E+00     0.0000000000000000E+00 
    9.0625000000015765E-01     1.0000000000000000E+00     0.0000000000000000E+00 
    8.7500000000017863E-01     1.0000000000000000E+00     0.0000000000000000E+00 
    8.4375000000028044E-01     1.0000000000000000E+00     0.0000000000000000E+00 
    8.1250000000040856E-01     1.0000000000000000E+00     0.0000000000000000E+00 
    7.8125000000054956E-01     1.0000000000000000E+00     0.0000000000000000E+00 
    7.5000000000066480E-01     1.0000000000000000E+00     0.0000000000000000E+00 
    7.1875000000086831E-01     1.0000000000000000E+00     0.0000000000000000E+00 
    6.8750000000102829E-01     1.0000000000000000E+00     0.0000000000000000E+00 
    6.5625000000114431E-01     1.0000000000000000E+00     0.0000000000000000E+00 
    6.2500000000129829E-01     1.0000000000000000E+00     0.0000000000000000E+00 
    5.9375000000147926E-01     1.0000000000000000E+00     0.0000000000000000E+00 
    5.6250000000168354E-01     1.0000000000000000E+00     0.0000000000000000E+00 
    5.3125000000188671E-01     1.0000000000000000E+00     0.0000000000000000E+00 
    5.0000000000205835E-01     1.0000000000000000E+00     0.0000000000000000E+00 
    4.6875000000192979E-01     1.0000000000000000E+00     0.0000000000000000E+00 
    4.3750000000180111E-01     1.0000000000000000E+00     0.0000000000000000E+00 
    4.0625000000167238E-01     1.0000000000000000E+00     0.0000000000000000E+00 
    3.7500000000154382E-01     1.0000000000000000E+00     0.0000000000000000E+00 
    3.4375000000141509E-01     1.0000000000000000E+00     0.0000000000000000E+00 
    3.1250000000128642E-01     1.0000000000000000E+00     0.0000000000000000E+00 
    2.8125000000115769E-01     1.0000000000000000E+00     0.0000000000000000E+00 
    2.5000000000102918E-01     1.0000000000000000E+00     0.0000000000000000E+00 
    2.1875000000090050E-01     1.0000000000000000E+00     0.0000000000000000E+00 
    1.8750000000077180E-01     1.0000000000000000E+00     0.0000000000000000E+00 
    1.5625000000064329E-01     1.0000000000000000E+00     0.0000000000000000E+00 
    1.2500000000051459E-01     1.0000000000000000E+00     0.0000000000000000E+00 
    9.3750000000385914E-02     1.0000000000000000E+00     0.0000000000000000E+00 
    6.2500000000257239E-02     1.0000000000000000E+00     0.0000000000000000E+00 
    3.1250000000128557E-02     1.0000000000000000E+00     0.0000000000000000E+00 
    0.0000000000000000E+00     9.6875000000003686E-01     0.0000000000000000E+00 
    0.0000000000000000E+00     9.3750000000011691E-01     0.0000000000000000E+00 
    0.0000000000000000E+00     9.0625000000015765E-01     0.0000000000000000E+00 
    0.0000000000000000E+00     8.7500000000017863E-01     0.0000000000000000E+00 
    0.0000000000000000E+00     8.4375000000028044E-01     0.0000000000000000E+00 
    0.0000000000000000E+00     8.1250000000040856E-01     0.0000000000000000E+00 
    0.0000000000000000E+00     7.8125000000054956E-01     0.0000000000000000E+00 
    0.0000000000000000E+00     7.5000000000066480E-01     0.0000000000000000E+00 
    0.0000000000000000E+00     7.1875000000086831E-01     0.0000000000000000E+00 
    0.0000000000000000E+00     6.8750000000102829E-01     0.0000000000000000E+00 
    0.0000000000000000E+00     6.5625000000114431E-01     0.0000000000000000E+00 
    0.0000000000000000E+00     6.2500000000129829E-01     0.0000000000000000E+00 
    0.0000000000000000E+00     5.9375000000147926E-01     0.0000000000000000E+00 
    0.0000000000000000E+00     5.6250000000168354E-01     0.0000000000000000E+00 
    0.0000000000000000E+00     5.3125000000188671E-01     0.0000000000000000E+00 
    0.0000000000000000E+00     5.0000000000205835E-01     0.0000000000000000E+00 
    0.0000000000000000E+00     4.6875000000192979E-01     0.0000000000000000E+00 
    0.0000000000000000E+00     4.3750000000180111E-01     0.0000000000000000E+00 
    0.0000000000000000E+00     4.0625000000167238E-01     0.0000000000000000E+00 
[...]
CELL_DATA 2795 
SCALARS Pressure double 1 
LOOKUP_TABLE default 

    6.9879477867120716E+00 
    1.5152335232621985E+01 
    1.0728920988619068E+01 
    1.0428790152606295E+01 
    8.4626586753969448E+00 
    1.5003866009203112E+01 
    1.5750802960783711E+01 
    6.2933690631225252E+00 
    1.1284406022894164E+01 
    8.6402759895351462E+00 
    7.3787485623561109E+00 
    1.4740802067421301E+01 
    1.5069558026133848E+01 
    1.4972667642087501E+01 
    9.8704923792709600E+00 
    6.1956092689787416E+00 
    9.6771722182006279E+00 
    7.8486333641861599E+00 
    1.4368763619567419E+01 
    1.0713668535616057E+01 
    1.0608545286417440E+01 
    1.4904615037672100E+01 
    1.0164972111358983E+01 
    4.1781648884481304E-01 
    1.4781889276696070E+01 
    1.5029537343648702E+01 
    1.5783063657005936E+01 
    7.1476971014257256E+00 
    1.4659554029567561E+01 
    1.5768574921519987E+01 
    1.0878760920059863E+01 
    1.0925369959093169E+01 
    7.7943995390626073E+00 
    1.0691449609369421E+01 
    3.5994764232204703E+00 
    9.6793429913981175E+00 
    1.0678560476733438E+01 
    1.5808137080831900E+01 
    1.5727616844843533E+01 
    1.4754060115087988E+01 
    8.4278805736306523E+00 
    1.4748592348808685E+01 
    8.7350991831985869E-01 
    1.0669973138915545E+01 
    1.5553020443249462E+01 
    1.5340626365367697E+01 
    1.4729843237372021E+01 
    1.1671030580148765E+01 
    1.4799833307508274E+01 
    9.8808101695143762E+00 
    9.4546882679911963E+00 
    1.0890111777182421E+01 
    1.0570706479142070E+01 
    9.7332570293748066E+00 
    1.0950669128885533E+01 
    1.4153654929858638E+01 
    1.2614126037470992E+01 
    8.5061821017171848E+00 
    1.4909196060079571E+01 
    1.4831119451140776E+01 
    1.0429731090394403E+01 
    1.0315087991187477E+01 
    1.0333843562658055E+01 
    1.5670494335027358E+01 
    1.5941336562840741E+01 
    9.6907259169524220E+00 
    1.0888837435835059E+01 
    1.4610851490932632E+01 
    1.2529438750695272E+01 
    1.0360392000008231E+01 
    1.5943232103476845E+01 
    1.4887942095077818E+01 
    9.5644744901814196E+00 
    1.5459403175730518E+01 
    1.1186433513599356E+01 
    1.4635325825175713E+01 
    1.5826061508307287E+01 
    1.1246169738361942E+01 
    7.1930831177951413E+00 
    1.0907065953044976E+01 
    1.5736391310261538E+01 
    1.5964235112485680E+01 
    9.6994755845918235E+00 
    1.0828720621551744E+01 
    1.6013517434189833E+01 
    1.0678948589395088E+01 
    1.0249377584435607E+01 
    1.2970754859912793E+01 
    6.8593226610116540E+00 
    9.4822296989897978E+00 
    1.0826956785826971E+01 
    1.1447535427622505E+01 
    1.7464849697220899E+01 
    8.2393411949917379E+00 
    1.0896739396204374E+01 
    1.4707436346457595E+01 
    1.5020779034861095E+01 
    7.3279565931241422E+00 
    1.0543465341617740E+01 
    1.0859358890424479E+01 
    1.5041235761097580E+01 
    1.0854627204849601E+01 
    1.4974592975505772E+01 
    4.5446544668867030E+00 
    7.1727568759355362E+00 
    1.1114686900187214E+01 
    1.5159328800565479E+01 
    9.6455711399681920E+00 
    1.0212916436196011E+01 
    1.0836012308297240E+01 
    1.0220612724269886E+01 
    1.2236392781662092E+01 
    9.9556913126087103E+00 
    9.5726815110613401E+00 
    7.7733055374161628E+00 
    1.2818550596097745E+01 
    1.0929307955646618E+01 
    1.5584310684334728E+01 
    9.3826023847250024E+00 
    1.0412115080229304E+01 
    1.4870715508436426E+01 
    8.8479600537878174E+00 
    1.5316259926462058E+01 
    1.0754253401060344E+01 
    1.0343432795201117E+01 
    1.5023027227862240E+01 
    1.0919442146024188E+01 
    1.5835522261629656E+01 
    1.2988372582207004E+01 
    1.3990636663573699E+01 
    1.5800162257283686E+01 
    8.2547642793327203E+00 
    1.1141701173901971E+01 
    1.5019106022430254E+01 
    3.3998484624793561E+00 
    1.0928701656371420E+01 
    1.5765994091759767E+01 
    1.0372346897415810E+01 
    1.1942678779360230E+01 
    7.3667194532679288E+00 
    1.4705354545484656E+01 
    1.7942137253318098E+01 
    1.3478231394668196E+01 
    1.0370534974224279E+01 
    9.3769617066064193E+00 
    1.1595249851067804E+01 
    1.0771319702750102E+01 
    7.4627084180191643E+00 
    1.5794129423200149E+01 
    1.5047857737342790E+01 
    1.4709173317738120E+01 
    1.1461531955917337E+01 
    9.5416010137836693E+00 
    1.0605165718186610E+01 
    1.5494094216302312E+01 
    9.7768507358325838E+00 
    1.0841003437042890E+01 
    9.9351510467183832E+00 
    1.2524064864773726E+01 
    1.7930453375324383E+01 
    1.4700509859151470E+01 
    9.5342429572881127E+00 
    1.5215701718416362E+01 
    1.5119308510193115E+01 
    1.5198640416143000E+01 
    1.6210594637966590E+01 
    1.6751460934278899E+01 
    1.5338529153622867E+01 
    1.0880579643362578E+01 
    1.1783014237566514E+01 
    1.5172718394348104E+01 
    1.5600095568490712E+01 
    7.7826517654881551E+00 
    1.4729447754024914E+01 
    1.5458509718073481E+01 
    7.5733543564903849E+00 
    1.6130374647269790E+01 
    1.6108495059114006E+01 
    1.4438932209901592E+01 
    1.1224008187884525E+01 
    2.9503429706931956E+00 
    1.5765272716987560E+01 
    1.1055363554226629E+01 
    1.5890347692480518E+01 
    1.0306093889466972E+01 
    1.5599041327872063E+01 
    1.0824376477692166E+00 
    1.3999929765885277E+01 
    1.0361272623984766E+01 
    9.4997807424517795E+00 
    9.2753285820288820E+00 
    1.0722845340248730E+01 
    1.1865325570034411E+01 
    1.1280889448734513E+01 
    7.9098142795660547E+00 
    1.5590182563922776E+01 
    1.5040179697947389E+01 
    1.2660259912536651E+01 
    1.1108704325644698E+01 
    1.7272992325275487E+00 
    8.6100165782734805E+00 
    6.1469430386805248E+00 
    1.5780431958584350E+01 
    1.2071173138498333E+01 
    1.5073867801029467E+01 
    1.5107888495501076E+01 
    9.8584194232557305E+00 
    1.2617100892726860E+01 
    1.4704091462245570E+01 
    1.6094003071007499E+01 
    7.2982023031129906E+00 
    1.3402017015469827E+01 
    1.1251761477762489E+01 
    6.5309222211523696E+00 
    9.8457826763061380E+00 
    1.3224485531770171E+01 
    1.5068802784848858E+01 
    1.0776033330799565E+01 
    1.5177655343234161E+01 
    1.4946380048282061E+01 
    1.4894207457312707E+01 
    1.0610122652452365E+01 
    9.4200130618683513E+00 
    1.4717415406625200E+01 
    9.5608337617137025E+00 
    1.0861149550615306E+01 
    9.3913920010070342E+00 
    1.0804694336387197E+01 
    1.5117681487012764E+01 
    6.7740109538138773E+00 
    9.7587945844492978E+00 
    1.5697299399623315E+01 
    1.0620734910388480E+01 
    1.1966457329026186E+01 
    6.9474563366264732E+00 
    9.6167346242430352E+00 
    1.4925688473427908E+01 
    1.5232924248826464E+01 
    5.7000373841969498E+00 
    1.0629942714174279E+01 
    9.4422446185892230E+00 
    1.6519544811020907E+01 
    1.5974844254299022E+01 
    1.6778345857946139E+01 
    1.0650460475983284E+01 
    1.5089640742609900E+01 
    1.4658065929123909E+01 
    1.0513416192877541E+01 
    1.4709503887415684E+01 
    1.1110237291033526E+01 
    6.6139297680482878E+00 
    1.0968013046705462E+01 
    1.5682029406591923E+01 
    1.4706228866981657E+01 
    7.3602269057611833E+00 
    1.4736565822013567E+01 
    1.1886102156419756E+01 
    1.0909614332942329E+01 
    1.0447772108751547E+01 
    1.4569548046872049E+01 
    1.1431368709202365E+01 
    1.4722739399429996E+01 
    1.0606556838405375E+01 
    6.8335458418976840E+00 
    1.0936278749669238E+01 
    9.2848600830310630E+00 
    1.3489094214430910E+01 
    1.5886133805772630E+01 
    1.4715498172459730E+01 
    1.5759050629092405E+01 
    1.0564660506574247E+01 
    7.1678415261971313E+00 
    7.2609969678313933E+00 
    1.1096169350820775E+01 
    1.0835262763413184E+01 
    1.6628583817907372E+00 
    1.4198069716401053E+01 
    1.6245044596392230E+01 
    1.0318503047683665E+01 
    6.8809379391074117E+00 
    1.2516128477893067E+01 
    1.4735108507439127E+01 
    8.0096589894057324E+00 
    5.5602141649727237E+00 
    1.0815401487686975E+01 
    1.4814399107205450E+01 
    1.5495382427469471E+01 
    1.5387642173481334E+01 
    1.5235008938993463E+01 
    7.8778896967494543E+00 
    1.0902169251371216E+01 
    1.4294949595856806E+01 
    8.4843713143376291E+00 
    1.5056423784454619E+01 
    1.2856786449042550E+01 
    7.3562924462858437E+00 
    1.4843893211557644E+01 
    1.5788928564138322E+01 
    1.4895341393122782E+01 
    7.7270976165475442E+00 
    1.0884983439897240E+01 
    8.4386380663418503E+00 
    1.0273929486940050E+01 
    1.4726294093402233E+01 
    1.4714173211365532E+01 
    7.7704959419560806E+00 
    1.5639419557434795E+01 
    1.1433065568587951E+01 
    1.4747062290690280E+01 
    1.5611479320400534E+01 
    1.4734571509346045E+01 
    1.3729010325270387E+01 
    1.6573221259694144E+01 
    1.0276972664588753E+01 
    1.5727553392351519E+01 
    1.4774560619133432E+01 
    1.5801905061462644E+01 
    1.5631957767915594E+01 
    1.0374266275948699E+01 
    1.0719200000945539E+01 
    1.0309076946644538E+01 
    1.3208969380306375E+01 
    4.5559626790794834E+00 
    1.1031726257843342E+01 
    1.6698837742517377E+01 
    1.1110754645857575E+01 
    1.1304439173428859E+01 
    1.5774158279298462E+01 
    1.6011789565589954E+01 
    1.0212347038704140E+01 
    1.4741082870051809E+01 
    1.4710364041483196E+01 
    1.1291532178912881E+01 
    1.5586486485474170E+01 
    7.7141575439831485E+00 
    4.9848481965928624E+00 
    1.1583453006626597E+01 
    1.1124901762200009E+01 
    1.4715924983764989E+01 
    7.3071671896458721E+00 
    1.5303669832107586E+01 
    5.0920287877452521E+00 
    1.1059598038232824E+01 
    1.0415997342689124E+01 
    1.0861768868839508E+01 
    1.7979594557477473E+01 
    4.4265856703938802E+00 
    1.0946902086929958E+01 
    1.3017039245710382E+01 
    1.0460660975237099E+01 
    8.5811681650699896E+00 
    1.5411019086137706E+01 
    1.7557304861932305E+01 
    1.5567256394405886E+01 
    1.0886667712181090E+01 
    6.4930786555203710E+00 
    1.7402950504783451E+01 
    1.5032887332014875E+01 
    8.2914799131189820E+00 
    1.0518512461221077E+01 
    1.6193177544581317E+01 
    3.7595261667526727E+00 
    1.1177243508035513E+01 
    1.5541392971129101E+01 
    1.0876022122843876E+01 
    9.4728490769663569E+00 
    1.0987706767013460E+01 
    1.4520341358869182E+01 
    1.0857637496431106E+01 
    5.8050008657993342E+00 
    1.0703321495836478E+00 
    8.0888850365613258E+00 
    1.6416259251583863E+01 
    1.0307678440512905E+01 
    1.2263058747005774E+01 
    1.1746752466172367E+01 
    1.3541199268011574E+01 
    1.0889559750541178E+01 
    1.4944025517297113E+01 
    1.7993545945364801E+01 
    1.2879356874049613E+01 
    1.5698972351102219E+01 
    6.2327161102276663E-01 
    1.4716211506098411E+01 
    6.4147196161525750E+00 
    1.6865819549923813E+01 
    1.0960878209828714E+01 
    9.6383000749713457E+00 
    8.5931571617852427E+00 
    6.0731068049516423E+00 
    1.2155644848146014E+01 
    8.5713142836721143E+00 
    1.3380036308360786E+01 
    2.5018603425814550E+00 
    1.1923118720698767E+01 
    1.4645637818771108E+01 
    6.5954036245251881E+00 
    1.5196030129496060E+01 
    1.6680186298347849E+01 
    1.5038561918955141E+01 
    1.0825125618094591E+01 
    1.0856148355521906E+01 
    1.0953400133183889E+01 
    6.5547673396232771E+00 
    1.0040794490607341E+01 
    9.8895651058084386E+00 
    1.0942171078715733E+01 
    1.0243252989082860E+01 
    8.0016007588650884E-01 
    7.3268009353309402E+00 
    1.0637660710217995E+01 
    1.0916896541372878E+01 
    1.3740340767355788E+01 
    2.4577639744027713E+00 
    1.1249820734634117E+01 
    1.1130566206756079E+01 
    4.2603529213782094E+00 
    1.4899867767753387E+01 
    9.5753418963180295E+00 
    1.0989839765241664E+01 
    1.5032946838680285E+01 
    6.1002592578040558E+00 
    1.5014215096007490E+01 
    9.6886231408245180E+00 
    1.1145175218907264E+00 
    1.0368582104131836E+01 
    1.5652847111160339E+01 
    1.4716201241507596E+01 
    1.4735739970718011E+01 
    1.1306754977888737E+01 
    1.1062908277554371E+01 
    9.5572056242808365E+00 
    7.9590130377994956E+00 
    1.5144122773990860E+01 
    1.0513013897599100E+01 
    7.7340726231683625E+00 
    1.4730715301574959E+01 
    1.5439930069564966E+01 
    1.1119217413438957E+01 
    1.0669103957808717E+01 
    1.7875462594221847E+01 
    1.1292473298774858E+01 
    1.5157433497095068E+01 
    9.1273206829678308E+00 
    1.8021452209378168E+01 
    7.2180972188540604E+00 
    9.9579470276316684E+00 
    8.0373002419301809E+00 
    1.1531703071377430E+01 
    9.2230390570200367E+00 
    1.8005276796549374E+01 
    1.1342183528027773E+01 
    1.4458740677179616E+01 
    7.4164202474613941E+00 
    1.0885033316855612E+01 
    1.4997193904631390E+01 
    9.2358663717687559E+00 
    8.2158189798596233E+00 
    1.2140613242350891E+01 
    1.5217367931898991E+01 
    7.9436447824165937E+00 
    1.0436366447353700E+01 
    1.0702944301861267E+01 
    1.4690996948563077E+01 
    1.0487422156996230E+01 
    1.5195841961971684E+01 
    1.5831450661127638E+01 
    9.5849366589486937E+00 
    9.4132166041290226E+00 
    8.6119666328950348E+00 
    1.4838165845944028E+01 
    1.1156440786352888E+01 
    1.7593011272668029E+01 
    1.3831113034737378E+01 
    1.4959440488763274E+01 
    1.7278486767146479E+01 
    1.6681378665860311E+01 
    1.0931780911481900E+01 
    1.0926856758391512E+01 
    1.4464497659081260E+01 
    1.4755334123685552E+01 
    1.5319627057935312E+01 
    1.5055025044330659E+01 
    1.7896842093795570E+01 
    1.1291984519351162E+01 
    9.6859014900353113E+00 
    1.1297953430403499E+01 
    1.5742494306217175E+01 
    1.1027884692636391E+01 
    6.5000859166222202E+00 
    1.0808934219091389E+01 
    1.6164405166049484E+01 
    1.1167339268837381E+01 
    9.6905750441019816E+00 
    1.0643262820720148E+01 
    1.6273715186030341E+01 
    1.4796061451360794E+01 
    9.2698235287639363E+00 
    1.6413066268060302E+01 
    1.0960570022746367E+01 
    1.5302295482693310E+01 
    1.6288690355658861E+01 
    1.1547492282228930E+01 
    6.1144140187651947E+00 
    1.2050266053864298E+01 
    6.3117004658901106E+00 
    1.1078198628101521E+01 
    1.0879198774716043E+01 
    1.2729026508358274E+01 
    6.6599139301512569E+00 
    1.3481479572398976E+01 
    1.0897440427845035E+01 
    1.5044294414296731E+01 
    1.1611159757135484E+01 
    9.1165628198561830E+00 
    1.0507591503843948E+01 
    1.1465270415913340E+01 
    1.1399743171331593E+01 
    1.5881283380483943E+01 
    9.2950069752196303E+00 
    9.1451829717782847E+00 
    6.9801554873525209E+00 
    1.5343758027605567E+01 
    1.0552417667527008E+01 
    1.4604897282337493E+01 
    1.0848652079991387E+01 
    7.5855590581942787E+00 
    1.4836665146651935E+01 
    1.0824572420603380E+01 
    8.2155896878284604E+00 
    8.6618957597017108E+00 
    8.9416471940247337E+00 
    1.5076590442365987E+01 
    1.0944189342672209E+01 
    1.5710873065159870E+01 
    1.0783949974618190E+01 
    1.0722208637199595E+01 
    1.0354297743537767E+01 
    1.4917159550290579E+01 
    1.0637025458783976E+01 
    8.9819593144036105E+00 
    1.6668381975780999E+01 
    1.4997622508127769E+01 
    7.5458384926429671E+00 
    3.1184459267934255E+00 
    1.0933377304347275E+01 
    1.0204199026605750E+01 
    9.4087219478160584E+00 
    1.0157530863836534E+01 
    1.4926645102608193E+01 
    1.0640053958826359E+01 
    9.7339640377356336E+00 
    1.4778219991095781E+01 
    7.4852387638639541E+00 
    1.4425832455658757E+01 
    9.8485232923509720E+00 
    8.9639240682478558E+00 
    9.4897970922057784E+00 
    1.5388080195589103E+01 
    1.0864543419600873E+01 
    1.0872786938943074E+01 
    6.7296341462954539E+00 
    7.2353233829296562E+00 
    1.3796498717372295E+01 
    1.0882626391391664E+01 
    1.0974215019726140E+01 
    1.6396763162071881E+01 
    9.1432788576943018E+00 
    1.0894913502868562E+01 
    7.7366696728407121E+00 
    7.9797150948488378E+00 
    1.4914376086894690E+01 
    1.0516956997013004E+01 
    7.9239724837168568E+00 
    1.1459722145849380E+01 
    1.0776213339619552E+01 
    1.4916737131742934E+01 
    1.6490040876550520E+01 
    1.1898827759178918E+00 
    1.0938332842420802E+01 
    1.1123189812762067E+01 
    1.4976362311722948E+01 
    1.0439457244981920E+01 
    1.0837692528958801E+01 
    1.5938214042328708E+01 
    9.5222782865109625E+00 
    7.9914274652192656E+00 
    1.3014688916792547E+01 
    1.4730393743858061E+01 
    1.5801361058197848E+01 
    1.6065708683967085E+01 
    1.0779241405247067E+01 
    1.0929905799534405E+01 
    1.2196731621885515E+01 
    7.1986215068565169E+00 
    1.4862669179762023E+01 
    8.5631066077664464E+00 
    7.4725883815076086E+00 
    1.3528553452701344E+01 
    1.2799224885260724E+01 
    7.3390221885610396E+00 
    1.4767664163362015E+01 
    1.5786549641549302E+01 
    1.1308326241639307E+01 
    1.6591636116452154E+01 
    1.4802353213602988E+01 
    1.0509858153423428E+01 
    1.5518240123780370E+01 
    7.9691757270616099E+00 
    1.4749606566195759E+01 
    1.0937339352486484E+01 
    1.0897573469019779E+01 
    1.6567309912649293E+01 
    1.0591096264881267E+01 
    1.3307153198046858E+01 
    9.4695510362190465E+00 
    1.5906160383831534E+01 
    1.4652798930530263E+01 
    9.8415642118502724E+00 
    1.4705184007665741E+01 
    9.8346016251608326E+00 
    1.0846106672485595E+01 
    1.5744709701007942E+01 
    1.5052576026396553E+01 
    1.5789892757380795E+01 
    1.4980403308762392E+01 
    1.0051984613267960E+01 
    1.0269247731977309E+01 
    1.5796834111785515E+01 
    1.0393205222910259E+01 
    1.4575275128461755E+01 
    1.0575814901770556E+01 
    4.5921897373803109E+00 
    7.5460083657019590E+00 
    7.0063346916916034E+00 
    1.5748238961314282E+01 
    1.6496133226911649E+01 
    1.4723991559797836E+01 
    1.2461066570696424E+01 
    1.5029734636523381E+01 
    1.4775330613768858E+01 
    1.5384173433698624E+01 
    6.5185965549075213E+00 
    4.2794939827201004E+00 
    1.2237246459772757E+01 
    1.0597491995135433E+01 
    1.4928663692673673E+01 
    1.4926046475524149E+01 
    1.1152203700484383E+01 
    1.4964781423084489E+01 
    1.0924196267396571E+01 
    1.0829076206225755E+01 
    5.9125545953639183E+00 
    4.2651121672153067E+00 
    1.6269126497273689E+01 
    8.4606020849395591E+00 
    9.7767550066222526E+00 
    1.1039220169177804E+01 
    1.7877106445680266E+01 
    1.1132713368149204E+01 
    1.1230958071552541E+01 
    4.8380030516476182E+00 
    1.1133809503310792E+01 
    1.1148731571766875E+01 
    1.5246996173778196E+01 
    9.4950999915147918E+00 
    1.0404950174907210E+01 
    1.6440236864272482E+01 
    1.0946728048342043E+01 
    1.4740565727023723E+01 
    1.4983871397606613E+01 
    1.3272602657299545E+01 
    9.2066341527060214E+00 
    1.4980774094936262E+01 
    1.0737644007826244E+01 
    1.4915438790941463E+01 
    1.4676918486756628E+01 
    1.5768177839297708E+01 
    1.4975184214042752E+01 
    1.4036369676249974E+01 
    1.0935427448225260E+01 
    7.2766357147074228E+00 
    1.7752147429097995E+01 
    8.7301951817921761E+00 
    1.5686817225287719E+01 
    1.0932794958128637E+01 
    9.1942212236376797E+00 
    5.5976187450128023E+00 
    1.1187601876263447E+01 
    1.4966633286973119E+01 
    1.4965008714046581E+01 
    1.0826504912538059E+01 
    1.0926870882838912E+01 
    1.6649741927355215E+01 
    1.6008451467772865E+01 
    1.1151747045720247E+01 
    3.9792328143330646E+00 
    1.3945950356743554E+01 
    1.8003020949734985E+01 
    1.0938799277600330E+01 
    1.2853107967733163E+01 
    1.0437177577346484E+01 
    1.7611261149492364E+01 
    1.6091272717526071E+01 
    1.5835549712676007E+01 
    1.1173779313890781E+01 
    5.1632173419485667E+00 
    1.0395916442536922E+01 
    1.0461640701245338E+01 
    1.0505686257340265E+01 
    4.3270493445739611E+00 