# vtk DataFile Version 2.0
Pressure Field Data 
ASCII 
DATASET UNSTRUCTURED_GRID 

POINTS 2860 double 

    0.0000000000000000E+00     0.0000000000000000E+00     0.0000000000000000E+00 
    1.0000000000000000E+00     0.0000000000000000E+00     0.0000000000000000E+00 
    1.0000000000000000E+00     1.0000000000000000E+00     0.0000000000000000E+00 
    0.0000000000000000E+00     1.0000000000000000E+00     0.0000000000000000E+00 
    2.5000000000000000E-01     2.5000000000000000E-01     0.0000000000000000E+00 
    7.5000000000000000E-01     2.5000000000000000E-01     0.0000000000000000E+00 
    7.5000000000000000E-01     7.5000000000000000E-01     0.0000000000000000E+00 
    2.5000000000000000E-01     7.5000000000000000E-01     0.0000000000000000E+00 
    3.1249999999942091E-02     0.0000000000000000E+00     0.0000000000000000E+00 
    6.2499999999873469E-02     0.0000000000000000E+00     0.0000000000000000E+00 
    9.3749999999826514E-02     0.0000000000000000E+00     0.0000000000000000E+00 
    1.2499999999977961E-01     0.0000000000000000E+00     0.0000000000000000E+00 
    1.5624999999968961E-01     0.0000000000000000E+00     0.0000000000000000E+00 
    1.8749999999959971E-01     0.0000000000000000E+00     0.0000000000000000E+00 
    2.1874999999950970E-01     0.0000000000000000E+00     0.0000000000000000E+00 
    2.4999999999941969E-01     0.0000000000000000E+00     0.0000000000000000E+00 
    2.8124999999932920E-01     0.0000000000000000E+00     0.0000000000000000E+00 
    3.1249999999923850E-01     0.0000000000000000E+00     0.0000000000000000E+00 
    3.4374999999914790E-01     0.0000000000000000E+00     0.0000000000000000E+00 
    3.7499999999905720E-01     0.0000000000000000E+00     0.0000000000000000E+00 
    4.0624999999896660E-01     0.0000000000000000E+00     0.0000000000000000E+00 
    4.3749999999887590E-01     0.0000000000000000E+00     0.0000000000000000E+00 
    4.6874999999878530E-01     0.0000000000000000E+00     0.0000000000000000E+00 
    4.9999999999869471E-01     0.0000000000000000E+00     0.0000000000000000E+00 
    5.3124999999877620E-01     0.0000000000000000E+00     0.0000000000000000E+00 
    5.6249999999885780E-01     0.0000000000000000E+00     0.0000000000000000E+00 
    5.9374999999893940E-01     0.0000000000000000E+00     0.0000000000000000E+00 
    6.2499999999902101E-01     0.0000000000000000E+00     0.0000000000000000E+00 
    6.5624999999910261E-01     0.0000000000000000E+00     0.0000000000000000E+00 
    6.8749999999918421E-01     0.0000000000000000E+00     0.0000000000000000E+00 
    7.1874999999926570E-01     0.0000000000000000E+00     0.0000000000000000E+00 
    7.4999999999934730E-01     0.0000000000000000E+00     0.0000000000000000E+00 
    7.8124999999942890E-01     0.0000000000000000E+00     0.0000000000000000E+00 
    8.1249999999951039E-01     0.0000000000000000E+00     0.0000000000000000E+00 
    8.4374999999959199E-01     0.0000000000000000E+00     0.0000000000000000E+00 
    8.7499999999967359E-01     0.0000000000000000E+00     0.0000000000000000E+00 
    9.0624999999975520E-01     0.0000000000000000E+00     0.0000000000000000E+00 
    9.3749999999983680E-01     0.0000000000000000E+00     0.0000000000000000E+00 
    9.6874999999991840E-01     0.0000000000000000E+00     0.0000000000000000E+00 
    1.0000000000000000E+00     3.1249999999942091E-02     0.0000000000000000E+00 
    1.0000000000000000E+00     6.2499999999873469E-02     0.0000000000000000E+00 
    1.0000000000000000E+00     9.3749999999826514E-02     0.0000000000000000E+00 
    1.0000000000000000E+00     1.2499999999977961E-01     0.0000000000000000E+00 
    1.0000000000000000E+00     1.5624999999968961E-01     0.0000000000000000E+00 
    1.0000000000000000E+00     1.8749999999959971E-01     0.0000000000000000E+00 
    1.0000000000000000E+00     2.1874999999950970E-01     0.0000000000000000E+00 
    1.0000000000000000E+00     2.4999999999941969E-01     0.0000000000000000E+00 
    1.0000000000000000E+00     2.8124999999932920E-01     0.0000000000000000E+00 
    1.0000000000000000E+00     3.1249999999923850E-01     0.0000000000000000E+00 
    1.0000000000000000E+00     3.4374999999914790E-01     0.0000000000000000E+00 
    1.0000000000000000E+00     3.7499999999905720E-01     0.0000000000000000E+00 
    1.0000000000000000E+00     4.0624999999896660E-01     0.0000000000000000E+00 
    1.0000000000000000E+00     4.3749999999887590E-01     0.0000000000000000E+00 
    1.0000000000000000E+00     4.6874999999878530E-01     0.0000000000000000E+00 
    1.0000000000000000E+00     4.9999999999869471E-01     0.0000000000000000E+00 
    1.0000000000000000E+00     5.3124999999877620E-01     0.0000000000000000E+00 
    1.0000000000000000E+00     5.6249999999885780E-01     0.0000000000000000E+00 
    1.0000000000000000E+00     5.9374999999893940E-01     0.0000000000000000E+00 
    1.0000000000000000E+00     6.2499999999902101E-01     0.0000000000000000E+00 
    1.0000000000000000E+00     6.5624999999910261E-01     0.0000000000000000E+00 
    1.0000000000000000E+00     6.8749999999918421E-01     0.0000000000000000E+00 
    1.0000000000000000E+00     7.1874999999926570E-01     0.0000000000000000E+00 
    1.0000000000000000E+00     7.4999999999934730E-01     0.0000000000000000E+00 
    1.0000000000000000E+00     7.8124999999942890E-01     0.0000000000000000E+00 
    1.0000000000000000E+00     8.1249999999951039E-01     0.0000000000000000E+00 
    1.0000000000000000E+00     8.4374999999959199E-01     0.0000000000000000E+00 
    1.0000000000000000E+00     8.7499999999967359E-01     0.0000000000000000E+00 
    1.0000000000000000E+00     9.0624999999975520E-01     0.0000000000000000E+00 
    1.0000000000000000E+00     9.3749999999983680E-01     0.0000000000000000E+00 
    1.0000000000000000E+00     9.6874999999991840E-01     0.0000000000000000E+00 
    9.6875000000003686E-01     1.0000000000000000E+00     0.0000000000000000E+00 
    9.3750000000011691E-01     1.0000000000000000E+00     0.0000000000000000E+00 
    9.0625000000015765E-01     1.0000000000000000E+00     0.0000000000000000E+00 
    8.7500000000017863E-01     1.0000000000000000E+00     0.0000000000000000E+00 
    8.4375000000028044E-01     1.0000000000000000E+00     0.0000000000000000E+00 
    8.1250000000040856E-01     1.0000000000000000E+00     0.0000000000000000E+00 
    7.8125000000054956E-01     1.0000000000000000E+00     0.0000000000000000E+00 
    7.5000000000066480E-01     1.0000000000000000E+00     0.0000000000000000E+00 
    7.1875000000086831E-01     1.0000000000000000E+00     0.0000000000000000E+00 
    6.8750000000102829E-01     1.0000000000000000E+00     0.0000000000000000E+00 
    6.5625000000114431E-01     1.0000000000000000E+00     0.0000000000000000E+00 
    6.2500000000129829E-01     1.0000000000000000E+00     0.0000000000000000E+00 
    5.9375000000147926E-01     1.0000000000000000E+00     0.0000000000000000E+00 
    5.6250000000168354E-01     1.0000000000000000E+00     0.0000000000000000E+00 
    5.3125000000188671E-01     1.0000000000000000E+00     0.0000000000000000E+00 
    5.0000000000205835E-01     1.0000000000000000E+00     0.0000000000000000E+00 
    4.6875000000192979E-01     1.0000000000000000E+00     0.0000000000000000E+00 
    4.3750000000180111E-01     1.0000000000000000E+00     0.0000000000000000E+00 
    4.0625000000167238E-01     1.0000000000000000E+00     0.0000000000000000E+00 
    3.7500000000154382E-01     1.0000000000000000E+00     0.0000000000000000E+00 
    3.4375000000141509E-01     1.0000000000000000E+00     0.0000000000000000E+00 
    3.1250000000128642E-01     1.0000000000000000E+00     0.0000000000000000E+00 
    2.8125000000115769E-01     1.0000000000000000E+00     0.0000000000000000E+00 
    2.5000000000102918E-01     1.0000000000000000E+00     0.0000000000000000E+00 
    2.1875000000090050E-01     1.0000000000000000E+00     0.0000000000000000E+00 
    1.8750000000077180E-01     1.0000000000000000E+00     0.0000000000000000E+00 
    1.5625000000064329E-01     1.0000000000000000E+00     0.0000000000000000E+00 
    1.2500000000051459E-01     1.0000000000000000E+00     0.0000000000000000E+00 
    9.3750000000385914E-02     1.0000000000000000E+00     0.0000000000000000E+00 
    6.2500000000257239E-02     1.0000000000000000E+00     0.0000000000000000E+00 
    3.1250000000128557E-02     1.0000000000000000E+00     0.0000000000000000E+00 
    0.0000000000000000E+00     9.6875000000003686E-01     0.0000000000000000E+00 
    0.0000000000000000E+00     9.3750000000011691E-01     0.0000000000000000E+00 
    0.0000000000000000E+00     9.0625000000015765E-01     0.0000000000000000E+00 
    0.0000000000000000E+00     8.7500000000017863E-01     0.0000000000000000E+00 
    0.0000000000000000E+00     8.4375000000028044E-01     0.0000000000000000E+00 
    0.0000000000000000E+00     8.1250000000040856E-01     0.0000000000000000E+00 
    0.0000000000000000E+00     7.8125000000054956E-01     0.0000000000000000E+00 
    0.0000000000000000E+00     7.5000000000066480E-01     0.0000000000000000E+00 
    0.0000000000000000E+00     7.1875000000086831E-01     0.0000000000000000E+00 
    0.0000000000000000E+00     6.8750000000102829E-01     0.0000000000000000E+00 
    0.0000000000000000E+00     6.5625000000114431E-01     0.0000000000000000E+00 
    0.0000000000000000E+00     6.2500000000129829E-01     0.0000000000000000E+00 
    0.0000000000000000E+00     5.9375000000147926E-01     0.0000000000000000E+00 
    0.0000000000000000E+00     5.6250000000168354E-01     0.0000000000000000E+00 
    0.0000000000000000E+00     5.3125000000188671E-01     0.0000000000000000E+00 
    0.0000000000000000E+00     5.0000000000205835E-01     0.0000000000000000E+00 
    0.0000000000000000E+00     4.6875000000192979E-01     0.0000000000000000E+00 
    0.0000000000000000E+00     4.3750000000180111E-01     0.0000000000000000E+00 
    0.0000000000000000E+00     4.0625000000167238E-01     0.0000000000000000E+00 
[...]
CELL_DATA 2795 
SCALARS Pressure double 1 
LOOKUP_TABLE default 

    6.0951680494438785E+00 
    1.3523166257876257E+01 
    9.5352399553356548E+00 
    9.2211099808225061E+00 
    7.4179869948309642E+00 
    1.3397558157491833E+01 
    1.4088712563374077E+01 
    5.4721199598923267E+00 
    1.0092015689653971E+01 
    7.6699695650963129E+00 
    6.5290440794783287E+00 
    1.3156872419368270E+01 
    1.3438562218233386E+01 
    1.3368603046614696E+01 
    8.7646243795762935E+00 
    5.3836009754027510E+00 
    8.5199312016723496E+00 
    6.9542232473670049E+00 
    1.2816637162588814E+01 
    9.5241206244852847E+00 
    9.4171819430404149E+00 
    1.3307003722910965E+01 
    8.9720173400159240E+00 
    3.6788418027037106E-01 
    1.3169894477573669E+01 
    1.3408235052604308E+01 
    1.4119094892492441E+01 
    6.2728806930898422E+00 
    1.3082277516509411E+01 
    1.4104516029812487E+01 
    9.6672201180453747E+00 
    9.7456033135279707E+00 
    6.7215918550508000E+00 
    9.4969271445517318E+00 
    3.1659275531298383E+00 
    8.5222446208793148E+00 
    9.4859516632745056E+00 
    1.4141795554961636E+01 
    1.4067452827159933E+01 
    1.3169234860614894E+01 
    7.3697518373581490E+00 
    1.3139275745740568E+01 
    7.6510177889142572E-01 
    9.4627044306336341E+00 
    1.3895221859165973E+01 
    1.3733718051937313E+01 
    1.3146763901598117E+01 
    1.0414044843309533E+01 
    1.3214998155199835E+01 
    8.7068155041521251E+00 
    8.3161133194596797E+00 
    9.7106918403050084E+00 
    9.3483788195006703E+00 
    8.5705074029895556E+00 
    9.7384167816955447E+00 
    1.2619872175838330E+01 
    1.1341543403626241E+01 
    7.4569959238283516E+00 
    1.3310744552056624E+01 
    1.3239791923739203E+01 
    9.2386437437408553E+00 
    9.1604181302444516E+00 
    9.1308812094582290E+00 
    1.4012507301961055E+01 
    1.4262420007276972E+01 
    8.5318279124020808E+00 
    9.7098510029314760E+00 
    1.3066611899366526E+01 
    1.1172856108859968E+01 
    9.1969752566858052E+00 
    1.4270464774803099E+01 
    1.3267130733174323E+01 
    8.4163760690809095E+00 
    1.3830732836204698E+01 
    9.9677568711464115E+00 
    1.3031548471875576E+01 
    1.4157378899807291E+01 
    9.9622067333638658E+00 
    6.2147832829529328E+00 
    9.7285703677932673E+00 
    1.4075320297441209E+01 
    1.4288832325179342E+01 
    8.5449087975663680E+00 
    9.6442580472593331E+00 
    1.4334828006022061E+01 
    9.4884930545840724E+00 
    9.0524969436585234E+00 
    1.1566006535149247E+01 
    5.9456399983672634E+00 
    8.3411368370819812E+00 
    9.6437221153051791E+00 
    1.0232660070809054E+01 
    1.5729603520260486E+01 
    7.2169312550661457E+00 
    9.7180307736081488E+00 
    1.3126257336658373E+01 
    1.3393060196178755E+01 
    6.3925948392130616E+00 
    9.3590671223842961E+00 
    9.6744969786651485E+00 
    1.3412080413459684E+01 
    9.6750612383539334E+00 
    1.3349278082086396E+01 
    3.9468799051367305E+00 
    6.3449459748072750E+00 
    9.9407826325516311E+00 
    1.3530696120604764E+01 
    8.4905344660833322E+00 
    9.0378604909411191E+00 
    9.6596945358014352E+00 
    9.0271307676333610E+00 
    1.0972923532209894E+01 
    8.7961304705038703E+00 
    8.4236558106646857E+00 
    6.7315018360490875E+00 
    1.1367419629810840E+01 
    9.7467992105948245E+00 
    1.3930954175966638E+01 
    8.3422344716669592E+00 
    9.2068503720788488E+00 
    1.3253821422294440E+01 
    7.7582165523615005E+00 
    1.3674858785677209E+01 
    9.5664439350605495E+00 
    9.1403012709286990E+00 
    1.3394962981892458E+01 
    9.7413180185688635E+00 
    1.4167408407942327E+01 
    1.1579314627732485E+01 
    1.2475413878495397E+01 
    1.4135097201228442E+01 
    7.2303106824073780E+00 
    9.9642278901350299E+00 
    1.3394546499227870E+01 
    2.9592752596030762E+00 
    9.7168530825247945E+00 
    1.4103302718944224E+01 
    9.1695070373438057E+00 
    1.0574353399015294E+01 
    6.3590445287610260E+00 
    1.3124729274067821E+01 
    1.6196677960101777E+01 
    1.2019631920254986E+01 
    9.1660299010037072E+00 
    8.2453978878758907E+00 
    1.0365460087984275E+01 
    9.5836105549219255E+00 
    6.5906798771377089E+00 
    1.4128746133202979E+01 
    1.3461343660788796E+01 
    1.3127904497620003E+01 
    1.0225330434978183E+01 
    8.3945996739493793E+00 
    9.4152686840149062E+00 
    1.3854592608127776E+01 
    8.6115897925527616E+00 
    9.6204516565941667E+00 
    8.7579193110804621E+00 
    1.1124307659984526E+01 
    1.6185274700159322E+01 
    1.3119780830362195E+01 
    8.3683071747285513E+00 
    1.3575470753625616E+01 
    1.3492548852144013E+01 
    1.3567578974805855E+01 
    1.4520808589769704E+01 
    1.5038330559725614E+01 
    1.3733896480778167E+01 
    9.7015221835412788E+00 
    1.0467921092357882E+01 
    1.3571775664998643E+01 
    1.3945383142491483E+01 
    6.8587910229998901E+00 
    1.3146313271072392E+01 
    1.3818375809057361E+01 
    6.6986185277022212E+00 
    1.4440058965694407E+01 
    1.4424594711649808E+01 
    1.2881670196825780E+01 
    1.0027867385090694E+01 
    2.5939736722035649E+00 
    1.4101659645463842E+01 
    9.8835442257094908E+00 
    1.4216998543399816E+01 
    9.1079228091720470E+00 
    1.3948428340477973E+01 
    9.3701679447257047E-01 
    1.2489028285517982E+01 
    9.2029310819047403E+00 
    8.3578392864886322E+00 
    8.1526911218533336E+00 
    9.5358434599606969E+00 
    1.0635157720742457E+01 
    9.9808986395131232E+00 
    6.8171584718784146E+00 
    1.3937261549996977E+01 
    1.3416502945167670E+01 
    1.1291060221075305E+01 
    9.9361299007431771E+00 
    1.5101272353205275E+00 
    7.5509716395332749E+00 
    5.3284574985897928E+00 
    1.4115513076381861E+01 
    1.0836503275294501E+01 
    1.3472427551194704E+01 
    1.3479193204616765E+01 
    8.6945778215942475E+00 
    1.1398430956225118E+01 
    1.3123256231681589E+01 
    1.4410222273144694E+01 
    6.3342744394581647E+00 
    1.1895706485174669E+01 
    1.0042166331199335E+01 
    5.6678669224295835E+00 
    8.6763007119225009E+00 
    1.1928534946686526E+01 
    1.3443027981093453E+01 
    9.5909866997063222E+00 
    1.3546859759056597E+01 
    1.3326545792434056E+01 
    1.3278639616046567E+01 
    9.4213744867579159E+00 
    8.2976124086981731E+00 
    1.3135695806224174E+01 
    8.4128592152299628E+00 
    9.6797031250068546E+00 
    8.2582794392671488E+00 
    9.5572373674110853E+00 
    1.3487808458903947E+01 
    5.9862931338372594E+00 
    8.5965757458001821E+00 
    1.4037572999869091E+01 
    9.4341191186182041E+00 
    1.0733929494831322E+01 
    6.1425298430176545E+00 
    8.4647581521862687E+00 
    1.3306491394247287E+01 
    1.3599333703090231E+01 
    5.0312214078136597E+00 
    9.4393078153559369E+00 
    8.3013842343399009E+00 
    1.4814945639832937E+01 
    1.4298243614895382E+01 
    1.5063198175909353E+01 
    9.4599742821419763E+00 
    1.3462347325419110E+01 
    1.3082531518928457E+01 
    9.3338527198031613E+00 
    1.3128091692982286E+01 
    9.9380807926066108E+00 
    5.7339147497148737E+00 
    9.7674735189719986E+00 
    1.4022536585227654E+01 
    1.3125052877100890E+01 
    6.4872958217136709E+00 
    1.3152875895057168E+01 
    1.0651070254394739E+01 
    9.6990505915632994E+00 
    9.2441170452592569E+00 
    1.2999705000881486E+01 
    1.0206118123399630E+01 
    1.3140509031059683E+01 
    9.3975872380485566E+00 
    5.9069874837796617E+00 
    9.7506247860317270E+00 
    8.1609439321568615E+00 
    1.2025031730875174E+01 
    1.4215202840118851E+01 
    1.3134146215720341E+01 
    1.4096538222929224E+01 
    9.3823394114447947E+00 
    6.3354399643496100E+00 
    6.4208873397069501E+00 
    9.8798837059058826E+00 
    9.6560240895369329E+00 
    1.4431283608983054E+00 
    1.2664773818223308E+01 
    1.4551434441973312E+01 
    9.1178699796225811E+00 
    5.9677434142672823E+00 
    1.1091344277880053E+01 
    1.3151546593361603E+01 
    7.0058146046379344E+00 
    4.8303164649062555E+00 
    9.6321489782478515E+00 
    1.3230065087721618E+01 
    1.3847186587796957E+01 
    1.3748355778771231E+01 
    1.3602282080475593E+01 
    6.8631870405375954E+00 
    9.6906389761789580E+00 
    1.2716854674161766E+01 
    7.5293947583823648E+00 
    1.3426289137358825E+01 
    1.1633139710351527E+01 
    6.5094222974677933E+00 
    1.3254616490595481E+01 
    1.4115954802834445E+01 
    1.3277117688429753E+01 
    6.7572371576018693E+00 
    9.7060486997788420E+00 
    7.3964047079065240E+00 
    9.1499567638774053E+00 
    1.3143440366099693E+01 
    1.3132339851558182E+01 
    6.7950301343673800E+00 
    1.3984020847037963E+01 
    1.0234369216144437E+01 
    1.3164722130745540E+01 
    1.3954169872762185E+01 
    1.3152572276298974E+01 
    1.2250126784294856E+01 
    1.4864571610614963E+01 
    9.0840782988912778E+00 
    1.4067429642611017E+01 
    1.3191402795854351E+01 
    1.4136430617563851E+01 
    1.3977041636426678E+01 
    9.1748815753410788E+00 
    9.5269800897283119E+00 
    9.1084770208340391E+00 
    1.1782339472814053E+01 
    3.9558138493709238E+00 
    9.8172618637109501E+00 
    1.4985729459837540E+01 
    9.9364789335045263E+00 
    1.0115936206242790E+01 
    1.4110339322858618E+01 
    1.4335969027779763E+01 
    9.0380979587347525E+00 
    1.3156974832555365E+01 
    1.3129049478175316E+01 
    1.0104071833452581E+01 
    1.3933523790778844E+01 
    6.8388288617584774E+00 
    4.3972432641906067E+00 
    1.0372937528734763E+01 
    9.9509209039350726E+00 
    1.3134253788666369E+01 
    6.3755998537476781E+00 
    1.3666947478766224E+01 
    4.4934873610041741E+00 
    9.8851523188015076E+00 
    9.2305147671091365E+00 
    9.6825797603805963E+00 
    1.6234228017522941E+01 
    3.8456970816504130E+00 
    9.7347802670088051E+00 
    1.1556028463267095E+01 
    9.2873120819316721E+00 
    7.4774741280415764E+00 
    1.3773740422611036E+01 
    1.5819208708169205E+01 
    1.3919307165920884E+01 
    9.6772362824256923E+00 
    5.6374450746587517E+00 
    1.5670756768775448E+01 
    1.3407137481061417E+01 
    7.1114151680647018E+00 
    9.3029404316073592E+00 
    1.4504641275007844E+01 
    3.2627681892630940E+00 
    9.9985611020799308E+00 
    1.3886540087874389E+01 
    9.6958478382329432E+00 
    8.4242710797416365E+00 
    9.7744419600822496E+00 
    1.2936033292670356E+01 
    9.6767564838513636E+00 
    5.0404322089809730E+00 
    9.2384727516012544E-01 
    7.1818606309255291E+00 
    1.4713074848027563E+01 
    9.1066118009089827E+00 
    1.1033720189665429E+01 
    1.0512663990724956E+01 
    1.2170471215223566E+01 
    9.7093726629451016E+00 
    1.3322169567009885E+01 
    1.6247976971903913E+01 
    1.1480320775843266E+01 
    1.4040840137354136E+01 
    5.4592689450740151E-01 
    1.3134180018787845E+01 
    5.5422003149406738E+00 
    1.5147472117946377E+01 
    9.7483617029226348E+00 
    8.5599635790305477E+00 
    7.5354668498943465E+00 
    5.2808602266561975E+00 
    1.0839491265168245E+01 
    7.6106387596354086E+00 
    1.1924885590297484E+01 
    2.1919558651962765E+00 
    1.0684393276687413E+01 
    1.3070375033988888E+01 
    5.8301440295037281E+00 
    1.3608543553969504E+01 
    1.4973411857186592E+01 
    1.3443066627039411E+01 
    9.6186828086804965E+00 
    9.6774270735705130E+00 
    9.7410842021444424E+00 
    5.7040132504247252E+00 
    8.8555080320900341E+00 
    8.7154544927624134E+00 
    9.7301946222909272E+00 
    9.0479859841391512E+00 
    6.9458200843516849E-01 
    6.3183163524167023E+00 
    9.4180464795992798E+00 
    9.7060258130829862E+00 
    1.2251631091562892E+01 
    2.1329404875620961E+00 
    1.0065583774468749E+01 
    9.9552510915025376E+00 
    3.7003435113931205E+00 
    1.3313941312606298E+01 
    8.4321584162052652E+00 
    9.8137214692406065E+00 
    1.3405266299160630E+01 
    5.3009107049055029E+00 
    1.3432749680705555E+01 
    8.5300478753605464E+00 
    9.6928130403385804E-01 
    9.1647165883344623E+00 
    1.3994619982093974E+01 
    1.3134373174453502E+01 
    1.3153188369867813E+01 
    1.0084760067032141E+01 
    9.8898956481148979E+00 
    8.4100435577781614E+00 
    6.8422548183803471E+00 
    1.3509190813641348E+01 
    9.3025291875122242E+00 
    6.6253225907449709E+00 
    1.3148040032202889E+01 
    1.3816744148926182E+01 
    9.9024052401052813E+00 
    9.4812126936217140E+00 
    1.6132570141660917E+01 
    1.0104911227648659E+01 
    1.3524897336489396E+01 
    8.0156251740278250E+00 
    1.6275915086722478E+01 
    6.3829926974723925E+00 
    8.7990793288759033E+00 
    7.1281512942100553E+00 
    1.0324886681705443E+01 
    8.1969259589757044E+00 
    1.6259915476291379E+01 
    1.0150654221908423E+01 
    1.2873898849906514E+01 
    6.5608318818540452E+00 
    9.7056180137475732E+00 
    1.3374568353681273E+01 
    8.2122858481511081E+00 
    7.1173854919102659E+00 
    1.0757441817144205E+01 
    1.3591475777803115E+01 
    7.0403100792842670E+00 
    9.2490019595868755E+00 
    9.5108008928405994E+00 
    1.3111055107697984E+01 
    9.3130721039041529E+00 
    1.3565519112342058E+01 
    1.4164153217909696E+01 
    8.4350850739575503E+00 
    8.2773818734508851E+00 
    7.6450165458067811E+00 
    1.3250532425948737E+01 
    9.9730113149108828E+00 
    1.5854484169586479E+01 
    1.2442102987555078E+01 
    1.3337098465917240E+01 
    1.5549403851594791E+01 
    1.4974895706086626E+01 
    9.7538808413489733E+00 
    9.7155041740106522E+00 
    1.2909278949326136E+01 
    1.3170028971734618E+01 
    1.3674355607163573E+01 
    1.3427252664228499E+01 
    1.6152202818401506E+01 
    1.0104467367296023E+01 
    8.5291303767032787E+00 
    1.0112104792744523E+01 
    1.4081139487420055E+01 
    9.8576151790319262E+00 
    5.7320049880015205E+00 
    9.6032230166238648E+00 
    1.4476137792847069E+01 
    9.9895526306408691E+00 
    8.5318947806489387E+00 
    9.4513049432930281E+00 
    1.4580266198548937E+01 
    1.3188557851148834E+01 
    8.1380586491699347E+00 
    1.4713200552371076E+01 
    9.7850385341982005E+00 
    1.3664886583423016E+01 
    1.4594830819982597E+01 
    1.0355869927627332E+01 
    5.3079812896810434E+00 
    1.0761345307600985E+01 
    5.4824537169111682E+00 
    9.9077974604636161E+00 
    9.6974193616271300E+00 
    1.1303255947887600E+01 
    5.7834268376922724E+00 
    1.1974752759994368E+01 
    9.7180688183146646E+00 
    1.3417544798364304E+01 
    1.0291570441517131E+01 
    7.9597826472161390E+00 
    9.3271620104922999E+00 
    1.0239283720074098E+01 
    1.0203875843045887E+01 
    1.4207036528315154E+01 
    8.1710479163932455E+00 
    8.0345844463081910E+00 
    6.0690132929408724E+00 
    1.3699169610784303E+01 
    9.3682784968307118E+00 
    1.3002559135886070E+01 
    9.6677605864401794E+00 
    6.6140829956902634E+00 
    1.3220011000836591E+01 
    9.6428336055979500E+00 
    7.1853421494034739E+00 
    7.5923762358113027E+00 
    7.8484369990696869E+00 
    1.3447099051572954E+01 
    9.7321409838301598E+00 
    1.4051535516563339E+01 
    9.6009650809129745E+00 
    9.5383590957125222E+00 
    9.1699542128621516E+00 
    1.3296358259665801E+01 
    9.4549229339437204E+00 
    7.8866271308936113E+00 
    1.4961887315323127E+01 
    1.3371804054538984E+01 
    6.6818421455694912E+00 
    2.7112459561809934E+00 
    9.7215796477561263E+00 
    9.0613375165119852E+00 
    8.2749616692377330E+00 
    8.9842180050034823E+00 
    1.3327142649297802E+01 
    9.4414201378067126E+00 
    8.5816769668993480E+00 
    1.3191187973700211E+01 
    6.6249837733526338E+00 
    1.2871940230218627E+01 
    8.7487980476889913E+00 
    7.8465746092200890E+00 
    8.3484876971495936E+00 
    1.3745677093198477E+01 
    9.6855962715510522E+00 
    9.6936224179968331E+00 
    5.8604184340873413E+00 
    6.3130957189536980E+00 
    1.2300820484868250E+01 
    9.7034055551320346E+00 
    9.7612692262425274E+00 
    1.4696985858412862E+01 
    8.0326820908857393E+00 
    9.7159025177804761E+00 
    6.8553940833141223E+00 
    7.0779718093354189E+00 
    1.3292172189234391E+01 
    9.3436400047657351E+00 
    6.9312146618604764E+00 
    1.0235682445306832E+01 
    9.5868559089350551E+00 
    1.3294392172681180E+01 
    1.4786380509109934E+01 
    1.0495684044170615E+00 
    9.7263685326578386E+00 
    9.9490437611812315E+00 
    1.3352467389805856E+01 
    9.2329697167217066E+00 
    9.6595647156742501E+00 
    1.4258974317268510E+01 
    8.3775870546892115E+00 
    6.9906349711733498E+00 
    1.1694362915733949E+01 
    1.3147438385069130E+01 
    1.4136672149301196E+01 
    1.4384481491957581E+01 
    9.5730478290817942E+00 
    9.7183786435893769E+00 
    1.0904951414967597E+01 
    6.3543303517515062E+00 
    1.3268251118546139E+01 
    7.5084915857252534E+00 
    6.6139632672309103E+00 
    1.2153287232418558E+01 
    1.1437728333400718E+01 
    6.4863764328763533E+00 
    1.3182313254230252E+01 
    1.4122452749861482E+01 
    1.0119509113848629E+01 
    1.4883519706159760E+01 
    1.3214022196773870E+01 
    9.3081509757663614E+00 
    1.3868893731499263E+01 
    7.0766997641601428E+00 
    1.3164779252597361E+01 
    9.7254701934893717E+00 
    9.6862817182431105E+00 
    1.4859151810502123E+01 
    9.4014718043464001E+00 
    1.1885108455713530E+01 
    8.3295811727625484E+00 
    1.4234295797910152E+01 
    1.3076360338799780E+01 
    8.6709802485581893E+00 
    1.3124492994158272E+01 
    8.7403134122879731E+00 
    9.6691491916231946E+00 
    1.4083425805917008E+01 
    1.3422756483035446E+01 
    1.4125711392259475E+01 
    1.3355870747614542E+01 
    8.8684881340205166E+00 
    9.0808683933668615E+00 
    1.4131879921580055E+01 
    9.1975685107355272E+00 
    1.3010497611576614E+01 
    9.3903101249190559E+00 
    3.9883973162036348E+00 
    6.6806269448845379E+00 
    6.1949440486519576E+00 
    1.4086566673878069E+01 
    1.4791901352505608E+01 
    1.3141968538268166E+01 
    1.1180829291902599E+01 
    1.3420745715297201E+01 
    1.3188304437623412E+01 
    1.3749086107288003E+01 
    5.6687883688793290E+00 
    3.7196931274616949E+00 
    1.0980757294728010E+01 
    9.3888089992542376E+00 
    1.3328689861815617E+01 
    1.3326275697721565E+01 
    9.9706715746547854E+00 
    1.3361753439669465E+01 
    9.7129005429937916E+00 
    9.6170545231854376E+00 
    5.1378628285843178E+00 
    3.7066101687982163E+00 
    1.4576301640079119E+01 
    7.5220582409615897E+00 
    8.6111834891956214E+00 
    9.8649112659077893E+00 
    1.6133579861959618E+01 
    9.9580999572895603E+00 
    1.0028510501440078E+01 
    4.1893412623545689E+00 
    9.9595432155158203E+00 
    9.9732069966449135E+00 
    1.3643337093645959E+01 
    8.3553755274435098E+00 
    9.2501559343352557E+00 
    1.4738890346430692E+01 
    9.7344899742612530E+00 
    1.3157236791377763E+01 
    1.3407531873087430E+01 
    1.1917094086385811E+01 
    8.1880819054396294E+00 
    1.3355745839052389E+01 
    9.5285127874712767E+00 
    1.3330273527837814E+01 
    1.3098101898147924E+01 
    1.4105196429088222E+01 
    1.3352556035937422E+01 
    1.2529138408694962E+01 
    9.7236496112700159E+00 
    6.4370645400291933E+00 
    1.6010842447675710E+01 
    7.6598910843434878E+00 
    1.4027879567624169E+01 
    9.7210804977433991E+00 
    8.0835695620199353E+00 
    4.8502081783334061E+00 
    1.0008651053348821E+01 
    1.3342960844337622E+01 
    1.3340209559576921E+01 
    9.6500125708222999E+00 
    9.7152908012083863E+00 
    1.4940357710146275E+01 
    1.4330320437006073E+01 
    9.9757929465746340E+00 
    3.4628822302417874E+00 
    1.2496215041972857E+01 
    1.6258096207293470E+01 
    9.7269426856854331E+00 
    1.1536451541422627E+01 
    9.2299828163909492E+00 
    1.5873548389784837E+01 
    1.4408204908790070E+01 
    1.4161257987062069E+01 
    9.9964946661465106E+00 
    4.5343124367933285E+00 
    9.1899897528695451E+00 
    9.2544115496816222E+00 
    9.2994719839996733E+00 
    3.7607903333236399E+00 