# vtk DataFile Version 2.0
Pressure Field Data 
ASCII 
DATASET UNSTRUCTURED_GRID 

POINTS 2860 double 

    0.0000000000000000E+00     0.0000000000000000E+00     0.0000000000000000E+00 
    1.0000000000000000E+00     0.0000000000000000E+00     0.0000000000000000E+00 
    1.0000000000000000E+00     1.0000000000000000E+00     0.0000000000000000E+00 
    0.0000000000000000E+00     1.0000000000000000E+00     0.0000000000000000E+00 
    2.5000000000000000E-01     2.5000000000000000E-01     0.0000000000000000E+00 
    7.5000000000000000E-01     2.5000000000000000E-01     0.0000000000000000E+00 
    7.5000000000000000E-01     7.5000000000000000E-01     0.0000000000000000E+00 
    2.5000000000000000E-01     7.5000000000000000E-01     0.0000000000000000E+00 
    3.1249999999942091E-02     0.0000000000000000E+00     0.0000000000000000E+00 
    6.2499999999873469E-02     0.0000000000000000E+00     0.0000000000000000E+00 
    9.3749999999826514E-02     0.0000000000000000E+00     0.0000000000000000E+00 
    1.2499999999977961E-01     0.0000000000000000E+00     0.0000000000000000E+00 
    1.5624999999968961E-01     0.0000000000000000E+00     0.0000000000000000E+00 
    1.8749999999959971E-01     0.0000000000000000E+00     0.0000000000000000E+00 
    2.1874999999950970E-01     0.0000000000000000E+00     0.0000000000000000E+00 
    2.4999999999941969E-01     0.0000000000000000E+00     0.0000000000000000E+00 
    2.8124999999932920E-01     0.0000000000000000E+00     0.0000000000000000E+00 
    3.1249999999923850E-01     0.0000000000000000E+00     0.0000000000000000E+00 
    3.4374999999914790E-01     0.0000000000000000E+00     0.0000000000000000E+00 
    3.7499999999905720E-01     0.0000000000000000E+00     0.0000000000000000E+00 
    4.0624999999896660E-01     0.0000000000000000E+00     0.0000000000000000E+00 
    4.3749999999887590E-01     0.0000000000000000E+00     0.0000000000000000E+00 
    4.6874999999878530E-01     0.0000000000000000E+00     0.0000000000000000E+00 
    4.9999999999869471E-01     0.0000000000000000E+00     0.0000000000000000E+00 
    5.3124999999877620E-01     0.0000000000000000E+00     0.0000000000000000E+00 
    5.6249999999885780E-01     0.0000000000000000E+00     0.0000000000000000E+00 
    5.9374999999893940E-01     0.0000000000000000E+00     0.0000000000000000E+00 
    6.2499999999902101E-01     0.0000000000000000E+00     0.0000000000000000E+00 
    6.5624999999910261E-01     0.0000000000000000E+00     0.0000000000000000E+00 
    6.8749999999918421E-01     0.0000000000000000E+00     0.0000000000000000E+00 
    7.1874999999926570E-01     0.0000000000000000E+00     0.0000000000000000E+00 
    7.4999999999934730E-01     0.0000000000000000E+00     0.0000000000000000E+00 
    7.8124999999942890E-01     0.0000000000000000E+00     0.0000000000000000E+00 
    8.1249999999951039E-01     0.0000000000000000E+00     0.0000000000000000E+00 
    8.4374999999959199E-01     0.0000000000000000E+00     0.0000000000000000E+00 
    8.7499999999967359E-01     0.0000000000000000E+00     0.0000000000000000E+00 
    9.0624999999975520E-01     0.0000000000000000E+00     0.0000000000000000E+00 
    9.3749999999983680E-01     0.0000000000000000E+00     0.0000000000000000E+00 
    9.6874999999991840E-01     0.0000000000000000E+00     0.0000000000000000E+00 
    1.0000000000000000E+00     3.1249999999942091E-02     0.0000000000000000E+00 
    1.0000000000000000E+00     6.2499999999873469E-02     0.0000000000000000E+00 
    1.0000000000000000E+00     9.3749999999826514E-02     0.0000000000000000E+00 
    1.0000000000000000E+00     1.2499999999977961E-01     0.0000000000000000E+00 
    1.0000000000000000E+00     1.5624999999968961E-01     0.0000000000000000E+00 
    1.0000000000000000E+00     1.8749999999959971E-01     0.0000000000000000E+00 
    1.0000000000000000E+00     2.1874999999950970E-01     0.0000000000000000E+00 
    1.0000000000000000E+00     2.4999999999941969E-01     0.0000000000000000E+00 
    1.0000000000000000E+00     2.8124999999932920E-01     0.0000000000000000E+00 
    1.0000000000000000E+00     3.1249999999923850E-01     0.0000000000000000E+00 
    1.0000000000000000E+00     3.4374999999914790E-01     0.0000000000000000E+00 
    1.0000000000000000E+00     3.7499999999905720E-01     0.0000000000000000E+00 
    1.0000000000000000E+00     4.0624999999896660E-01     0.0000000000000000E+00 
    1.0000000000000000E+00     4.3749999999887590E-01     0.0000000000000000E+00 
    1.0000000000000000E+00     4.6874999999878530E-01     0.0000000000000000E+00 
    1.0000000000000000E+00     4.9999999999869471E-01     0.0000000000000000E+00 
    1.0000000000000000E+00     5.3124999999877620E-01     0.0000000000000000E+00 
    1.0000000000000000E+00     5.6249999999885780E-01     0.0000000000000000E+00 
    1.0000000000000000E+00     5.9374999999893940E-01     0.0000000000000000E+00 
    1.0000000000000000E+00     6.2499999999902101E-01     0.0000000000000000E+00 
    1.0000000000000000E+00     6.5624999999910261E-01     0.0000000000000000E+00 
    1.0000000000000000E+00     6.8749999999918421E-01     0.0000000000000000E+00 
    1.0000000000000000E+00     7.1874999999926570E-01     0.0000000000000000E+00 
    1.0000000000000000E+00     7.4999999999934730E-01     0.0000000000000000E+00 
    1.0000000000000000E+00     7.8124999999942890E-01     0.0000000000000000E+00 
    1.0000000000000000E+00     8.1249999999951039E-01     0.0000000000000000E+00 
    1.0000000000000000E+00     8.4374999999959199E-01     0.0000000000000000E+00 
    1.0000000000000000E+00     8.7499999999967359E-01     0.0000000000000000E+00 
    1.0000000000000000E+00     9.0624999999975520E-01     0.0000000000000000E+00 
    1.0000000000000000E+00     9.3749999999983680E-01     0.0000000000000000E+00 
    1.0000000000000000E+00     9.6874999999991840E-01     0.0000000000000000E+00 
    9.6875000000003686E-01     1.0000000000000000E+00     0.0000000000000000E+00 
    9.3750000000011691E-01     1.0000000000000000E+00     0.0000000000000000E+00 
    9.0625000000015765E-01     1.0000000000000000E+00     0.0000000000000000E+00 
    8.7500000000017863E-01     1.0000000000000000E+00     0.0000000000000000E+00 
    8.4375000000028044E-01     1.0000000000000000E+00     0.0000000000000000E+00 
    8.1250000000040856E-01     1.0000000000000000E+00     0.0000000000000000E+00 
    7.8125000000054956E-01     1.0000000000000000E+00     0.0000000000000000E+00 
    7.5000000000066480E-01     1.0000000000000000E+00     0.0000000000000000E+00 
    7.1875000000086831E-01     1.0000000000000000E+00     0.0000000000000000E+00 
    6.8750000000102829E-01     1.0000000000000000E+00     0.0000000000000000E+00 
    6.5625000000114431E-01     1.0000000000000000E+00     0.0000000000000000E+00 
    6.2500000000129829E-01     1.0000000000000000E+00     0.0000000000000000E+00 
    5.9375000000147926E-01     1.0000000000000000E+00     0.0000000000000000E+00 
    5.6250000000168354E-01     1.0000000000000000E+00     0.0000000000000000E+00 
    5.3125000000188671E-01     1.0000000000000000E+00     0.0000000000000000E+00 
    5.0000000000205835E-01     1.0000000000000000E+00     0.0000000000000000E+00 
    4.6875000000192979E-01     1.0000000000000000E+00     0.0000000000000000E+00 
    4.3750000000180111E-01     1.0000000000000000E+00     0.0000000000000000E+00 
    4.0625000000167238E-01     1.0000000000000000E+00     0.0000000000000000E+00 
    3.7500000000154382E-01     1.0000000000000000E+00     0.0000000000000000E+00 
    3.4375000000141509E-01     1.0000000000000000E+00     0.0000000000000000E+00 
    3.1250000000128642E-01     1.0000000000000000E+00     0.0000000000000000E+00 
    2.8125000000115769E-01     1.0000000000000000E+00     0.0000000000000000E+00 
    2.5000000000102918E-01     1.0000000000000000E+00     0.0000000000000000E+00 
    2.1875000000090050E-01     1.0000000000000000E+00     0.0000000000000000E+00 
    1.8750000000077180E-01     1.0000000000000000E+00     0.0000000000000000E+00 
    1.5625000000064329E-01     1.0000000000000000E+00     0.0000000000000000E+00 
    1.2500000000051459E-01     1.0000000000000000E+00     0.0000000000000000E+00 
    9.3750000000385914E-02     1.0000000000000000E+00     0.0000000000000000E+00 
    6.2500000000257239E-02     1.0000000000000000E+00     0.0000000000000000E+00 
    3.1250000000128557E-02     1.0000000000000000E+00     0.0000000000000000E+00 
    0.0000000000000000E+00     9.6875000000003686E-01     0.0000000000000000E+00 
    0.0000000000000000E+00     9.3750000000011691E-01     0.0000000000000000E+00 
    0.0000000000000000E+00     9.0625000000015765E-01     0.0000000000000000E+00 
    0.0000000000000000E+00     8.7500000000017863E-01     0.0000000000000000E+00 
    0.0000000000000000E+00     8.4375000000028044E-01     0.0000000000000000E+00 
    0.0000000000000000E+00     8.1250000000040856E-01     0.0000000000000000E+00 
    0.0000000000000000E+00     7.8125000000054956E-01     0.0000000000000000E+00 
    0.0000000000000000E+00     7.5000000000066480E-01     0.0000000000000000E+00 
    0.0000000000000000E+00     7.1875000000086831E-01     0.0000000000000000E+00 
    0.0000000000000000E+00     6.8750000000102829E-01     0.0000000000000000E+00 
    0.0000000000000000E+00     6.5625000000114431E-01     0.0000000000000000E+00 
    0.0000000000000000E+00     6.2500000000129829E-01     0.0000000000000000E+00 
    0.0000000000000000E+00     5.9375000000147926E-01     0.0000000000000000E+00 
    0.0000000000000000E+00     5.6250000000168354E-01     0.0000000000000000E+00 
    0.0000000000000000E+00     5.3125000000188671E-01     0.0000000000000000E+00 
    0.0000000000000000E+00     5.0000000000205835E-01     0.0000000000000000E+00 
    0.0000000000000000E+00     4.6875000000192979E-01     0.0000000000000000E+00 
    0.0000000000000000E+00     4.3750000000180111E-01     0.0000000000000000E+00 
    0.0000000000000000E+00     4.0625000000167238E-01     0.0000000000000000E+00 
[...]
CELL_DATA 2795 
SCALARS Pressure double 1 
LOOKUP_TABLE default 

    5.5016318630433005E+00 
    1.2363907259951997E+01 
    8.7206488643539206E+00 
    8.3773044923505342E+00 
    6.7151799882492709E+00 
    1.2256127514888188E+01 
    1.2901289958661321E+01 
    4.9288375756070284E+00 
    9.2298593660141535E+00 
    7.0193977236336993E+00 
    5.9660710402184183E+00 
    1.2033515183160111E+01 
    1.2279450607866734E+01 
    1.2228951204436585E+01 
    8.0108697315841155E+00 
    4.8457236618487993E+00 
    7.7245402789642590E+00 
    6.3584059854522001E+00 
    1.1719661439873212E+01 
    8.7142683387286350E+00 
    8.6033008465368805E+00 
    1.2172158634578368E+01 
    8.1462254113135355E+00 
    3.3298348014512852E-01 
    1.2021558859008303E+01 
    1.2255228559015665E+01 
    1.2930230346288328E+01 
    5.7322955793953865E+00 
    1.1964285578868711E+01 
    1.2916503869884348E+01 
    8.8284448646507983E+00 
    8.9494548376789549E+00 
    6.1486655206358982E+00 
    8.6810781606060772E+00 
    2.8568636752071308E+00 
    7.7267605536695312E+00 
    8.6711712870454836E+00 
    1.2952039179958133E+01 
    1.2881729100983479E+01 
    1.2045047912676184E+01 
    6.6608319234885904E+00 
    1.1999209354755504E+01 
    6.9022243289978313E-01 
    8.6031316698954257E+00 
    1.2712925147137684E+01 
    1.2570495226430189E+01 
    1.2024112034190898E+01 
    9.5404590509256728E+00 
    1.2087502826841931E+01 
    7.8970532568685581E+00 
    7.5353342582787057E+00 
    8.9161745129538659E+00 
    8.4918010043848167E+00 
    7.7703915844662497E+00 
    8.9006532081128853E+00 
    1.1538418007627495E+01 
    1.0414821721702765E+01 
    6.7503597054674804E+00 
    1.2175416978938802E+01 
    1.2109964131793593E+01 
    8.4147479463648676E+00 
    8.3719484728814511E+00 
    8.2930733722868517E+00 
    1.2829367987019943E+01 
    1.3062477877799514E+01 
    7.7350590074407952E+00 
    8.9142425660038711E+00 
    1.1951825867126868E+01 
    1.0223812237773622E+01 
    8.4029805482454876E+00 
    1.3074450264009869E+01 
    1.2117509939210720E+01 
    7.6280034388234714E+00 
    1.2653535022912902E+01 
    9.1276193350694417E+00 
    1.1891846732926057E+01 
    1.2965743255173081E+01 
    9.0477838378453885E+00 
    5.5700134900834382E+00 
    8.9309516891424909E+00 
    1.2888761965677100E+01 
    1.3091868830264534E+01 
    7.7505628233760664E+00 
    8.8427255668057860E+00 
    1.3134798688389505E+01 
    8.6758033817888158E+00 
    8.2205308533802199E+00 
    1.0580945225785761E+01 
    5.3422427175442984E+00 
    7.5576396337986100E+00 
    8.8445101740042524E+00 
    9.3531929481170906E+00 
    1.4485071730431057E+01 
    6.5304923344433252E+00 
    8.9214384928383375E+00 
    1.2005148367058094E+01 
    1.2236280040605918E+01 
    5.7709178569049602E+00 
    8.5500438586837255E+00 
    8.8719831476862812E+00 
    1.2254546310180391E+01 
    8.8806796783157047E+00 
    1.2194534430716200E+01 
    3.5444295118255611E+00 
    5.7979110774925626E+00 
    9.1189019664678810E+00 
    1.2371591814463148E+01 
    7.6968170341563074E+00 
    8.2277481296075390E+00 
    8.8664025450765500E+00 
    8.1969011314090885E+00 
    1.0087493094057459E+01 
    7.9984173706977826E+00 
    7.6348847485678339E+00 
    6.0621730591724230E+00 
    1.0346148315693949E+01 
    8.9512702038686687E+00 
    1.2751682555515265E+01 
    7.6429875144257098E+00 
    8.3661154102402975E+00 
    1.2106933536558213E+01 
    7.0210718143513260E+00 
    1.2505960125201570E+01 
    8.7597092147890674E+00 
    8.3022905071245106E+00 
    1.2238312184052990E+01 
    8.9427636307469491E+00 
    1.2975625039136792E+01 
    1.0591762935900089E+01 
    1.1408058089117011E+01 
    1.2945352144408560E+01 
    6.5427775200649343E+00 
    9.1360946062074539E+00 
    1.2240296994607826E+01 
    2.6607750128402659E+00 
    8.8790687669263288E+00 
    1.2915467530817434E+01 
    8.3312474073622731E+00 
    9.6104606672906669E+00 
    5.7177718376345332E+00 
    1.2004493461399433E+01 
    1.4944531366727288E+01 
    1.0994450746403965E+01 
    8.3259928108260901E+00 
    7.4705093786942838E+00 
    9.5511347797955626E+00 
    8.7763322404580926E+00 
    6.0284820214426356E+00 
    1.2938960028204848E+01 
    1.2340584303363464E+01 
    1.2006720495772671E+01 
    9.3620042712555644E+00 
    7.6079927419209019E+00 
    8.6021939361960360E+00 
    1.2676427086046882E+01 
    7.8092775075892167E+00 
    8.7368446213466591E+00 
    7.9470807137650556E+00 
    1.0133945877696643E+01 
    1.4933360481884876E+01 
    1.1999079347977428E+01 
    7.5704417926133614E+00 
    1.2408661778902866E+01 
    1.2335113543000412E+01 
    1.2406527638396804E+01 
    1.3312414174597221E+01 
    1.3811540933337172E+01 
    1.2564448392817699E+01 
    8.9065402813525392E+00 
    9.5054604576864978E+00 
    1.2409697030654719E+01 
    1.2765128965663260E+01 
    6.2813235313534275E+00 
    1.2023607552356372E+01 
    1.2641434795409973E+01 
    6.1273192139220116E+00 
    1.3231325560078838E+01 
    1.3220844722172190E+01 
    1.1779968741104247E+01 
    9.1925916245280082E+00 
    2.3645693134892363E+00 
    1.2913261034442629E+01 
    9.0688811507549563E+00 
    1.3021550867599844E+01 
    8.2741254110952802E+00 
    1.2764540678822238E+01 
    8.4103000101511904E-01 
    1.1423459346788853E+01 
    8.4124285357255069E+00 
    7.5733549449274431E+00 
    7.3846565814087857E+00 
    8.7301658867824283E+00 
    9.7755614852167980E+00 
    9.0688364135861494E+00 
    6.1264127458835205E+00 
    1.2758159292745027E+01 
    1.2262141831289750E+01 
    1.0332716398107287E+01 
    9.1120133361927849E+00 
    1.3600062088769587E+00 
    6.8366397059739574E+00 
    4.7678059332024612E+00 
    1.2926917922730905E+01 
    1.0004209954198275E+01 
    1.2317950576380955E+01 
    1.2321076870044379E+01 
    7.8920407794318352E+00 
    1.0427111943217533E+01 
    1.2002266714814477E+01 
    1.3206552991511797E+01 
    5.7068213083728612E+00 
    1.0831206243047612E+01 
    9.1176260994797609E+00 
    5.0873891417315331E+00 
    7.8714482455495469E+00 
    1.0853709447217911E+01 
    1.2287071775776516E+01 
    8.7911156061058229E+00 
    1.2386303457882946E+01 
    1.2176184517077091E+01 
    1.2131462105596068E+01 
    8.6090728921788102E+00 
    7.5305726917778975E+00 
    1.2014247528226731E+01 
    7.6252054235916598E+00 
    8.8829901891823688E+00 
    7.4812187827594929E+00 
    8.6805618525541277E+00 
    1.2328938026649308E+01 
    5.4687524120550952E+00 
    7.7981543386114680E+00 
    1.2852689507432899E+01 
    8.6236675668758771E+00 
    9.8987655872668956E+00 
    5.6107283397445418E+00 
    7.6742218656334744E+00 
    1.2156976917363744E+01 
    1.2436330678989368E+01 
    4.5971525278992162E+00 
    8.6256471211298873E+00 
    7.5210388970427253E+00 
    1.3594824494209227E+01 
    1.3100290118729461E+01 
    1.3834907107299967E+01 
    8.6463394045847846E+00 
    1.2305251565802330E+01 
    1.1964966670410211E+01 
    8.5275461675618391E+00 
    1.2006819203368252E+01 
    9.1131547115121307E+00 
    5.1271187870186345E+00 
    8.8981252755095515E+00 
    1.2838297112767567E+01 
    1.2003985504264930E+01 
    5.9334462889610329E+00 
    1.2029704711505827E+01 
    9.7856868106450818E+00 
    8.8623830698804955E+00 
    8.4059379490392416E+00 
    1.1887937341347891E+01 
    9.3901642269756351E+00 
    1.2018604113829696E+01 
    8.5508437038490133E+00 
    5.2602876450812124E+00 
    8.9497307325261382E+00 
    7.3928395938435907E+00 
    1.0997142807912878E+01 
    1.3021021365920197E+01 
    1.2013213499152446E+01 
    1.2908848054922798E+01 
    8.5746216670097901E+00 
    5.7859066180586920E+00 
    5.8662013432696662E+00 
    9.0419381595425001E+00 
    8.8605951760774886E+00 
    1.2997195931590977E+00 
    1.1582198727826038E+01 
    1.3339912574399603E+01 
    8.2816256949451255E+00 
    5.3705113568783238E+00 
    1.0080994116163900E+01 
    1.2028428608456226E+01 
    6.3340751285618815E+00 
    4.3464990884839878E+00 
    8.8340250276032020E+00 
    1.2113974751211192E+01 
    1.2672072937811301E+01 
    1.2575990672251690E+01 
    1.2439747575727658E+01 
    6.1927128887730332E+00 
    8.8525827297442081E+00 
    1.1602222619843930E+01 
    6.8904699632113875E+00 
    1.2267886008478790E+01 
    1.0618321500251451E+01 
    5.9484555445535294E+00 
    1.2123863289407293E+01 
    1.2921758868902261E+01 
    1.2124899844161334E+01 
    6.1087195296486314E+00 
    8.9106122240552388E+00 
    6.6949649680067598E+00 
    8.3926417315203370E+00 
    1.2020976247797453E+01 
    1.2010730187020279E+01 
    6.1430391849599202E+00 
    1.2800316810605789E+01 
    9.3945985243803953E+00 
    1.2044934671754053E+01 
    1.2771568136601477E+01 
    1.2031893792611561E+01 
    1.1208499584077000E+01 
    1.3641205997375923E+01 
    8.2556079845832517E+00 
    1.2881738632929478E+01 
    1.2072080514973219E+01 
    1.2946412926807859E+01 
    1.2794265179989768E+01 
    8.3405482823046349E+00 
    8.7137048389862226E+00 
    8.2721495790969186E+00 
    1.0780307859821740E+01 
    3.5541160756011392E+00 
    8.9789920225031672E+00 
    1.3759060634300674E+01 
    9.1152327888588349E+00 
    9.2833903785030536E+00 
    1.2921628865820034E+01 
    1.3137338411201879E+01 
    8.2288328198822924E+00 
    1.2033459446454714E+01 
    1.2007854628702660E+01 
    9.2722524963537420E+00 
    1.2753541654665852E+01 
    6.2537554220291476E+00 
    4.0211014920636954E+00 
    9.5247551995041597E+00 
    9.1278931322758901E+00 
    1.2012442869304600E+01 
    5.7563841911278546E+00 
    1.2500622972264306E+01 
    4.0981096548150573E+00 
    9.0693122528727788E+00 
    8.4125566989015752E+00 
    8.8881638171567925E+00 
    1.4982220697197638E+01 
    3.4539042154462325E+00 
    8.8971026821869668E+00 
    1.0527285913676224E+01 
    8.4847990243214522E+00 
    6.7457774925956739E+00 
    1.2606979078640338E+01 
    1.4572260364862332E+01 
    1.2737155643168826E+01 
    8.8414015507192314E+00 
    5.0692533703044020E+00 
    1.4428914916731388E+01 
    1.2252049599926021E+01 
    6.3617331726629498E+00 
    8.4505329251597985E+00 
    1.3297264808648590E+01 
    2.9312874964108584E+00 
    9.1732085184554322E+00 
    1.2706123921117145E+01 
    8.9005470210604738E+00 
    7.7195799691937337E+00 
    8.9363281538163086E+00 
    1.1796470744986467E+01 
    8.8812928592119018E+00 
    4.5317567698097134E+00 
    8.2663724958061469E-01 
    6.5644649620739219E+00 
    1.3493987733119267E+01 
    8.2705042296623343E+00 
    1.0172530250176701E+01 
    9.7011142666500838E+00 
    1.1073559861807661E+01 
    8.9135938097162892E+00 
    1.2171100455914299E+01 
    1.4995811292382857E+01 
    1.0500523573505808E+01 
    1.2856822026565215E+01 
    4.9223956869501728E-01 
    1.2012405398663169E+01 
    4.9280551037286724E+00 
    1.3916974337026229E+01 
    8.9105601535173662E+00 
    7.8258658441395816E+00 
    6.8221976314946913E+00 
    4.7565883160578393E+00 
    9.9237801740963771E+00 
    6.9563525305739020E+00 
    1.0904402367327801E+01 
    2.0094376559916021E+00 
    9.8168176703397947E+00 
    1.1953507591480221E+01 
    5.3280252978092628E+00 
    1.2454827793957518E+01 
    1.3750342186446751E+01 
    1.2326034808567389E+01 
    8.7850252056142466E+00 
    8.8827255646088883E+00 
    8.9033185190134603E+00 
    5.1410180798302223E+00 
    8.0374365517082058E+00 
    7.9063624145722367E+00 
    8.8925781826818504E+00 
    8.2163520568935180E+00 
    6.2140003563603130E-01 
    5.6478616819520084E+00 
    8.5542359443227198E+00 
    8.8691556043765463E+00 
    1.1204596222986448E+01 
    1.9158071984118543E+00 
    9.2361183650081085E+00 
    9.1326178412990480E+00 
    3.3249297168487484E+00 
    1.2203015105267314E+01 
    7.6469311598017855E+00 
    9.0061405419813934E+00 
    1.2249245344883464E+01 
    4.7715622071254984E+00 
    1.2310379704174368E+01 
    7.7335180605381248E+00 
    8.7023442683466712E-01 
    8.3253805946128772E+00 
    1.2811011787285160E+01 
    1.2012755136876423E+01 
    1.2031525181231636E+01 
    9.2453292219929928E+00 
    9.0726552225753565E+00 
    7.6227482361236429E+00 
    6.1381464012728149E+00 
    1.2346937849509514E+01 
    8.4510344449724748E+00 
    5.9072929403578929E+00 
    1.2025921031347895E+01 
    1.2642825813734316E+01 
    9.0683876882611170E+00 
    8.6705151191532721E+00 
    1.4882502498303264E+01 
    9.2730394970544125E+00 
    1.2363874977148607E+01 
    7.2588446624875314E+00 
    1.5023786837343128E+01 
    5.8319059798154074E+00 
    8.0021009900543945E+00 
    6.5232828041316742E+00 
    9.4795036676263145E+00 
    7.4933394356684149E+00 
    1.5007925474412932E+01 
    9.3159793592790585E+00 
    1.1739827714788985E+01 
    5.9964466147462483E+00 
    8.9111380024803761E+00 
    1.2221692827806510E+01 
    7.5105349633150231E+00 
    6.4083910278241705E+00 
    9.7858050704466653E+00 
    1.2436209449148667E+01 
    6.4384943864960569E+00 
    8.4293470447109247E+00 
    8.6971607361186027E+00 
    1.1990991212152373E+01 
    8.5106062196190742E+00 
    1.2404924452867638E+01 
    1.2972700704160323E+01 
    7.6457225551184411E+00 
    7.4999918257236704E+00 
    6.9978810270190293E+00 
    1.2119001239685007E+01 
    9.1458012596205460E+00 
    1.4607368818003023E+01 
    1.1435046144087002E+01 
    1.2185358486752012E+01 
    1.4310211910538213E+01 
    1.3752358752243046E+01 
    8.9563984821248006E+00 
    8.8782836923673667E+00 
    1.1807271281270427E+01 
    1.2045484489830045E+01 
    1.2503094612415261E+01 
    1.2270752488208849E+01 
    1.4900710746219858E+01 
    9.2726227641901744E+00 
    7.7339133422050672E+00 
    9.2558146968782911E+00 
    1.2894421854963694E+01 
    9.0441593766902884E+00 
    5.2194404014488445E+00 
    8.7700763502849135E+00 
    1.3268894383324215E+01 
    9.1647256173875924E+00 
    7.7361322728494430E+00 
    8.6366419511533206E+00 
    1.3369003206124001E+01 
    1.2047449939139593E+01 
    7.3672971950872803E+00 
    1.3496730764803489E+01 
    8.9845483441141525E+00 
    1.2498618916738529E+01 
    1.3383063499345054E+01 
    9.4192050793266233E+00 
    4.7684946613206778E+00 
    9.7738116997558038E+00 
    4.9296786092282918E+00 
    9.0870227420773215E+00 
    8.8998982986301041E+00 
    1.0270943892797309E+01 
    5.2079577049172627E+00 
    1.0897016410992251E+01 
    8.9230013747334418E+00 
    1.2261756657615326E+01 
    9.3611333160018617E+00 
    7.1815726696906497E+00 
    8.5209458144170416E+00 
    9.4226468191418284E+00 
    9.3660056984889337E+00 
    1.3010753009909211E+01 
    7.4006498151963171E+00 
    7.2758610809485180E+00 
    5.4699090645545079E+00 
    1.2527845540536886E+01 
    8.5589442446782744E+00 
    1.1867993096534279E+01 
    8.8727062257817710E+00 
    5.9694494286294271E+00 
    1.2074235853711709E+01 
    8.8473374449519167E+00 
    6.4952707873976694E+00 
    6.8704325729337805E+00 
    7.1060043225261786E+00 
    1.2289288206450381E+01 
    8.8944828733715635E+00 
    1.2866487288015392E+01 
    8.8021941350890813E+00 
    8.7334016276950646E+00 
    8.3521739854258765E+00 
    1.2146535785011880E+01 
    8.6488801178396741E+00 
    7.1409690581547176E+00 
    1.3739297412515523E+01 
    1.2217506529829176E+01 
    6.1085969760009604E+00 
    2.4378566480382577E+00 
    8.8839721998395582E+00 
    8.2795020698689878E+00 
    7.4965956741067972E+00 
    8.1750970330665638E+00 
    1.2190784464262421E+01 
    8.6130014132287229E+00 
    7.7890059022587392E+00 
    1.2064997702389130E+01 
    6.0538830481535149E+00 
    1.1772068805120622E+01 
    8.0008747047155868E+00 
    7.0926280922702185E+00 
    7.5647440463443631E+00 
    1.2575250150186223E+01 
    8.8911513727157647E+00 
    8.8990991942749247E+00 
    5.2847486557941492E+00 
    5.7000148343023547E+00 
    1.1196111880179300E+01 
    8.9086217994417289E+00 
    8.9232174115520912E+00 
    1.3480794701137894E+01 
    7.2749726438831486E+00 
    8.9201137767189973E+00 
    6.2652751089238361E+00 
    6.4688515467645802E+00 
    1.2140129635805852E+01 
    8.5430522202971346E+00 
    6.2672194401525942E+00 
    9.3657714903414018E+00 
    8.7779352353605304E+00 
    1.2143034172630875E+01 
    1.3566985728678008E+01 
    9.4912218512316016E-01 
    8.8886746460579307E+00 
    9.1264221776467576E+00 
    1.2199619414224712E+01 
    8.3909356771158645E+00 
    8.8644488837981346E+00 
    1.3058945377835636E+01 
    7.5920115604851448E+00 
    6.3209459470373197E+00 
    1.0768232904682232E+01 
    1.2024895303461648E+01 
    1.2947165036735337E+01 
    1.3182905864036050E+01 
    8.7387478448991054E+00 
    8.8810184119900271E+00 
    9.9831743163178999E+00 
    5.8045806437288281E+00 
    1.2136263931697934E+01 
    6.7981926508322683E+00 
    6.0449115827948301E+00 
    1.1146863640656258E+01 
    1.0467552963672226E+01 
    5.9276635335485883E+00 
    1.2057635016166193E+01 
    1.2933470225906468E+01 
    9.2867438800491922E+00 
    1.3660578784525439E+01 
    1.2085858916570745E+01 
    8.4735429113122791E+00 
    1.2693416510698354E+01 
    6.4702926742023621E+00 
    1.2040641130063232E+01 
    8.8878676769990772E+00 
    8.8484372091142998E+00 
    1.3636140845804471E+01 
    8.5887077648717938E+00 
    1.0878901038001347E+01 
    7.5482604582731359E+00 
    1.3039259903471583E+01 
    1.1958870720221405E+01 
    7.8644093105569670E+00 
    1.2004060422298771E+01 
    7.9913734814455646E+00 
    8.8755764040103031E+00 
    1.2896763476367942E+01 
    1.2264762862305552E+01 
    1.2936645159709803E+01 
    1.2202642799546826E+01 
    8.0498818863174417E+00 
    8.2572452840296027E+00 
    1.2942237609190954E+01 
    8.3678499059518678E+00 
    1.1899815637983437E+01 
    8.5800874116389796E+00 
    3.5793764376143713E+00 
    6.1061262034228170E+00 
    5.6603395276698754E+00 
    1.2899588363274619E+01 
    1.3571986970770977E+01 
    1.2020467370151257E+01 
    1.0291705345407248E+01 
    1.2273802143604684E+01 
    1.2062339016563381E+01 
    1.2584082922543296E+01 
    5.1070374626357085E+00 
    3.3402644397266994E+00 
    1.0103062405582500E+01 
    8.5438198751717529E+00 
    1.2192194179413196E+01 
    1.2189940023715232E+01 
    9.1430927989639539E+00 
    1.2222842529101198E+01 
    8.8756883785622875E+00 
    8.7780714467289815E+00 
    4.6245253344853969E+00 
    3.3295105789894786E+00 
    1.3365564445956451E+01 
    6.8756398937133243E+00 
    7.8095192861618363E+00 
    9.0509542953255799E+00 
    1.4883024219026762E+01 
    9.1350426247291487E+00 
    9.1721943614550909E+00 
    3.7554330009688002E+00 
    9.1359271161238613E+00 
    9.1481676424428020E+00 
    1.2479222628956357E+01 
    7.5727975639159189E+00 
    8.4642759930754305E+00 
    1.3521365713696982E+01 
    8.8966681896862028E+00 
    1.2034778225703645E+01 
    1.2271849015976802E+01 
    1.0988741919098427E+01 
    7.4796554942005429E+00 
    1.2202269571015886E+01 
    8.6896290044007323E+00 
    1.2216416063779519E+01 
    1.1978944328891668E+01 
    1.2917136649754379E+01 
    1.2200250775760807E+01 
    1.1464430289977022E+01 
    8.8861138031736289E+00 
    5.8817543395637930E+00 
    1.4762004673616559E+01 
    6.9360212278560107E+00 
    1.2844077136052727E+01 
    8.8835607456172898E+00 
    7.3255169745756419E+00 
    4.3657703051382537E+00 
    9.1790653537687934E+00 
    1.2190494044744749E+01 
    1.2187086844369240E+01 
    8.8557697553662269E+00 
    8.8777975453167262E+00 
    1.3716160953696097E+01 
    1.3131152971059555E+01 
    9.1517783883447041E+00 
    3.1098901371900949E+00 
    1.1445775910006921E+01 
    1.5006454848828300E+01 
    8.8893914069970492E+00 
    1.0629439879632786E+01 
    8.3867684275947472E+00 
    1.4627553401905770E+01 
    1.3204977732548269E+01 
    1.2965593477467692E+01 
    9.1710812502342733E+00 
    4.0991936612717517E+00 
    8.3484153123016256E+00 
    8.4115342303199494E+00 
    8.4591100728816908E+00 
    3.3767814028375924E+00 