# vtk DataFile Version 2.0
Pressure Field Data 
ASCII 
DATASET UNSTRUCTURED_GRID 

POINTS 2860 double 

    0.0000000000000000E+00     0.0000000000000000E+00     0.0000000000000000E+00 
    1.0000000000000000E+00     0.0000000000000000E+00     0.0000000000000000E+00 
    1.0000000000000000E+00     1.0000000000000000E+00     0.0000000000000000E+00 
    0.0000000000000000E+00     1.0000000000000000E+00     0.0000000000000000E+00 
    2.5000000000000000E-01     2.5000000000000000E-01     0.0000000000000000E+00 
    7.5000000000000000E-01     2.5000000000000000E-01     0.0000000000000000E+00 
    7.5000000000000000E-01     7.5000000000000000E-01     0.0000000000000000E+00 
    2.5000000000000000E-01     7.5000000000000000E-01     0.0000000000000000E+00 
    3.1249999999942091E-02     0.0000000000000000E+00     0.0000000000000000E+00 
    6.2499999999873469E-02     0.0000000000000000E+00     0.0000000000000000E+00 
    9.3749999999826514E-02     0.0000000000000000E+00     0.0000000000000000E+00 
    1.2499999999977961E-01     0.0000000000000000E+00     0.0000000000000000E+00 
    1.5624999999968961E-01     0.0000000000000000E+00     0.0000000000000000E+00 
    1.8749999999959971E-01     0.0000000000000000E+00     0.0000000000000000E+00 
    2.1874999999950970E-01     0.0000000000000000E+00     0.0000000000000000E+00 
    2.4999999999941969E-01     0.0000000000000000E+00     0.0000000000000000E+00 
    2.8124999999932920E-01     0.0000000000000000E+00     0.0000000000000000E+00 
    3.1249999999923850E-01     0.0000000000000000E+00     0.0000000000000000E+00 
    3.4374999999914790E-01     0.0000000000000000E+00     0.0000000000000000E+00 
    3.7499999999905720E-01     0.0000000000000000E+00     0.0000000000000000E+00 
    4.0624999999896660E-01     0.0000000000000000E+00     0.0000000000000000E+00 
    4.3749999999887590E-01     0.0000000000000000E+00     0.0000000000000000E+00 
    4.6874999999878530E-01     0.0000000000000000E+00     0.0000000000000000E+00 
    4.9999999999869471E-01     0.0000000000000000E+00     0.0000000000000000E+00 
    5.3124999999877620E-01     0.0000000000000000E+00     0.0000000000000000E+00 
    5.6249999999885780E-01     0.0000000000000000E+00     0.0000000000000000E+00 
    5.9374999999893940E-01     0.0000000000000000E+00     0.0000000000000000E+00 
    6.2499999999902101E-01     0.0000000000000000E+00     0.0000000000000000E+00 
    6.5624999999910261E-01     0.0000000000000000E+00     0.0000000000000000E+00 
    6.8749999999918421E-01     0.0000000000000000E+00     0.0000000000000000E+00 
    7.1874999999926570E-01     0.0000000000000000E+00     0.0000000000000000E+00 
    7.4999999999934730E-01     0.0000000000000000E+00     0.0000000000000000E+00 
    7.8124999999942890E-01     0.0000000000000000E+00     0.0000000000000000E+00 
    8.1249999999951039E-01     0.0000000000000000E+00     0.0000000000000000E+00 
    8.4374999999959199E-01     0.0000000000000000E+00     0.0000000000000000E+00 
    8.7499999999967359E-01     0.0000000000000000E+00     0.0000000000000000E+00 
    9.0624999999975520E-01     0.0000000000000000E+00     0.0000000000000000E+00 
    9.3749999999983680E-01     0.0000000000000000E+00     0.0000000000000000E+00 
    9.6874999999991840E-01     0.0000000000000000E+00     0.0000000000000000E+00 
    1.0000000000000000E+00     3.1249999999942091E-02     0.0000000000000000E+00 
    1.0000000000000000E+00     6.2499999999873469E-02     0.0000000000000000E+00 
    1.0000000000000000E+00     9.3749999999826514E-02     0.0000000000000000E+00 
    1.0000000000000000E+00     1.2499999999977961E-01     0.0000000000000000E+00 
    1.0000000000000000E+00     1.5624999999968961E-01     0.0000000000000000E+00 
    1.0000000000000000E+00     1.8749999999959971E-01     0.0000000000000000E+00 
    1.0000000000000000E+00     2.1874999999950970E-01     0.0000000000000000E+00 
    1.0000000000000000E+00     2.4999999999941969E-01     0.0000000000000000E+00 
    1.0000000000000000E+00     2.8124999999932920E-01     0.0000000000000000E+00 
    1.0000000000000000E+00     3.1249999999923850E-01     0.0000000000000000E+00 
    1.0000000000000000E+00     3.4374999999914790E-01     0.0000000000000000E+00 
    1.0000000000000000E+00     3.7499999999905720E-01     0.0000000000000000E+00 
    1.0000000000000000E+00     4.0624999999896660E-01     0.0000000000000000E+00 
    1.0000000000000000E+00     4.3749999999887590E-01     0.0000000000000000E+00 
    1.0000000000000000E+00     4.6874999999878530E-01     0.0000000000000000E+00 
    1.0000000000000000E+00     4.9999999999869471E-01     0.0000000000000000E+00 
    1.0000000000000000E+00     5.3124999999877620E-01     0.0000000000000000E+00 
    1.0000000000000000E+00     5.6249999999885780E-01     0.0000000000000000E+00 
    1.0000000000000000E+00     5.9374999999893940E-01     0.0000000000000000E+00 
    1.0000000000000000E+00     6.2499999999902101E-01     0.0000000000000000E+00 
    1.0000000000000000E+00     6.5624999999910261E-01     0.0000000000000000E+00 
    1.0000000000000000E+00     6.8749999999918421E-01     0.0000000000000000E+00 
    1.0000000000000000E+00     7.1874999999926570E-01     0.0000000000000000E+00 
    1.0000000000000000E+00     7.4999999999934730E-01     0.0000000000000000E+00 
    1.0000000000000000E+00     7.8124999999942890E-01     0.0000000000000000E+00 
    1.0000000000000000E+00     8.1249999999951039E-01     0.0000000000000000E+00 
    1.0000000000000000E+00     8.4374999999959199E-01     0.0000000000000000E+00 
    1.0000000000000000E+00     8.7499999999967359E-01     0.0000000000000000E+00 
    1.0000000000000000E+00     9.0624999999975520E-01     0.0000000000000000E+00 
    1.0000000000000000E+00     9.3749999999983680E-01     0.0000000000000000E+00 
    1.0000000000000000E+00     9.6874999999991840E-01     0.0000000000000000E+00 
    9.6875000000003686E-01     1.0000000000000000E+00     0.0000000000000000E+00 
    9.3750000000011691E-01     1.0000000000000000E+00     0.0000000000000000E+00 
    9.0625000000015765E-01     1.0000000000000000E+00     0.0000000000000000E+00 
    8.7500000000017863E-01     1.0000000000000000E+00     0.0000000000000000E+00 
    8.4375000000028044E-01     1.0000000000000000E+00     0.0000000000000000E+00 
    8.1250000000040856E-01     1.0000000000000000E+00     0.0000000000000000E+00 
    7.8125000000054956E-01     1.0000000000000000E+00     0.0000000000000000E+00 
    7.5000000000066480E-01     1.0000000000000000E+00     0.0000000000000000E+00 
    7.1875000000086831E-01     1.0000000000000000E+00     0.0000000000000000E+00 
    6.8750000000102829E-01     1.0000000000000000E+00     0.0000000000000000E+00 
    6.5625000000114431E-01     1.0000000000000000E+00     0.0000000000000000E+00 
    6.2500000000129829E-01     1.0000000000000000E+00     0.0000000000000000E+00 
    5.9375000000147926E-01     1.0000000000000000E+00     0.0000000000000000E+00 
    5.6250000000168354E-01     1.0000000000000000E+00     0.0000000000000000E+00 
    5.3125000000188671E-01     1.0000000000000000E+00     0.0000000000000000E+00 
    5.0000000000205835E-01     1.0000000000000000E+00     0.0000000000000000E+00 
    4.6875000000192979E-01     1.0000000000000000E+00     0.0000000000000000E+00 
    4.3750000000180111E-01     1.0000000000000000E+00     0.0000000000000000E+00 
    4.0625000000167238E-01     1.0000000000000000E+00     0.0000000000000000E+00 
    3.7500000000154382E-01     1.0000000000000000E+00     0.0000000000000000E+00 
    3.4375000000141509E-01     1.0000000000000000E+00     0.0000000000000000E+00 
    3.1250000000128642E-01     1.0000000000000000E+00     0.0000000000000000E+00 
    2.8125000000115769E-01     1.0000000000000000E+00     0.0000000000000000E+00 
    2.5000000000102918E-01     1.0000000000000000E+00     0.0000000000000000E+00 
    2.1875000000090050E-01     1.0000000000000000E+00     0.0000000000000000E+00 
    1.8750000000077180E-01     1.0000000000000000E+00     0.0000000000000000E+00 
    1.5625000000064329E-01     1.0000000000000000E+00     0.0000000000000000E+00 
    1.2500000000051459E-01     1.0000000000000000E+00     0.0000000000000000E+00 
    9.3750000000385914E-02     1.0000000000000000E+00     0.0000000000000000E+00 
    6.2500000000257239E-02     1.0000000000000000E+00     0.0000000000000000E+00 
    3.1250000000128557E-02     1.0000000000000000E+00     0.0000000000000000E+00 
    0.0000000000000000E+00     9.6875000000003686E-01     0.0000000000000000E+00 
    0.0000000000000000E+00     9.3750000000011691E-01     0.0000000000000000E+00 
    0.0000000000000000E+00     9.0625000000015765E-01     0.0000000000000000E+00 
    0.0000000000000000E+00     8.7500000000017863E-01     0.0000000000000000E+00 
    0.0000000000000000E+00     8.4375000000028044E-01     0.0000000000000000E+00 
    0.0000000000000000E+00     8.1250000000040856E-01     0.0000000000000000E+00 
    0.0000000000000000E+00     7.8125000000054956E-01     0.0000000000000000E+00 
    0.0000000000000000E+00     7.5000000000066480E-01     0.0000000000000000E+00 
    0.0000000000000000E+00     7.1875000000086831E-01     0.0000000000000000E+00 
    0.0000000000000000E+00     6.8750000000102829E-01     0.0000000000000000E+00 
    0.0000000000000000E+00     6.5625000000114431E-01     0.0000000000000000E+00 
    0.0000000000000000E+00     6.2500000000129829E-01     0.0000000000000000E+00 
    0.0000000000000000E+00     5.9375000000147926E-01     0.0000000000000000E+00 
    0.0000000000000000E+00     5.6250000000168354E-01     0.0000000000000000E+00 
    0.0000000000000000E+00     5.3125000000188671E-01     0.0000000000000000E+00 
    0.0000000000000000E+00     5.0000000000205835E-01     0.0000000000000000E+00 
    0.0000000000000000E+00     4.6875000000192979E-01     0.0000000000000000E+00 
    0.0000000000000000E+00     4.3750000000180111E-01     0.0000000000000000E+00 
    0.0000000000000000E+00     4.0625000000167238E-01     0.0000000000000000E+00 
[...]
CELL_DATA 2795 
SCALARS Pressure double 1 
LOOKUP_TABLE default 

    5.2498068780015874E+00 
    1.1837019539632387E+01 
    8.3683583663695558E+00 
    8.0067478457696186E+00 
    6.4112569426738055E+00 
    1.1738100817754908E+01 
    1.2359257393520075E+01 
    4.7012983720262156E+00 
    8.8429237399506295E+00 
    6.7365329231908415E+00 
    5.7300398472925895E+00 
    1.1524808596336293E+01 
    1.1753047203794889E+01 
    1.1711924843777757E+01 
    7.6875917634220361E+00 
    4.6212570011977192E+00 
    7.3777243724359973E+00 
    6.1054174059928163E+00 
    1.1223654703933670E+01 
    8.3638727483356590E+00 
    8.2549972822116224E+00 
    1.1657404163603184E+01 
    7.7841841434020287E+00 
    3.1868717903653443E-01 
    1.1501395540637994E+01 
    1.1731538151923496E+01 
    1.2387495453480362E+01 
    5.5134952212431187E+00 
    1.1458416653559256E+01 
    1.2374689783438104E+01 
    8.4705505666301892E+00 
    8.5892694302169872E+00 
    5.9204666706513853E+00 
    8.3301923501605994E+00 
    2.7317757260521196E+00 
    7.3799002081015344E+00 
    8.3222021811304518E+00 
    1.2409404043659711E+01 
    1.2340606959133551E+01 
    1.1535762062139721E+01 
    6.3534838845942945E+00 
    1.1483081677522097E+01 
    6.6069429933323509E-01 
    8.2197456775487119E+00 
    1.2174127039880712E+01 
    1.2031425720491997E+01 
    1.1515831807865386E+01 
    9.1463160786433644E+00 
    1.1575629105397624E+01 
    7.5430526763967327E+00 
    7.1951384599944443E+00 
    8.5543459495199077E+00 
    8.1152567517658927E+00 
    7.4206789230422974E+00 
    8.5458620603429445E+00 
    1.1049678342213891E+01 
    9.9876005522084714E+00 
    6.4446686721964488E+00 
    1.1660568084717358E+01 
    1.1597749935298516E+01 
    8.0598950091929336E+00 
    8.0260462682940066E+00 
    7.9254545384611372E+00 
    1.2289986665097492E+01 
    1.2514676473102714E+01 
    7.3874264728763102E+00 
    8.5524678695308207E+00 
    1.1443789494170513E+01 
    9.7961500021042998E+00 
    8.0606145037871375E+00 
    1.2528106013009197E+01 
    1.1596520525787884E+01 
    7.2843866413134384E+00 
    1.2114135392262874E+01 
    8.7880199085263797E+00 
    1.1376918317196088E+01 
    1.2422207831486970E+01 
    8.6439675092239590E+00 
    5.2992504162787926E+00 
    8.5685358576201676E+00 
    1.2347177839473980E+01 
    1.2545738373091961E+01 
    7.4046098837742980E+00 
    8.4862454780434096E+00 
    1.2586768803311246E+01 
    8.3276539815051915E+00 
    7.8555723661692625E+00 
    1.0136334027358780E+01 
    5.0895591258424560E+00 
    7.2163561702563133E+00 
    8.4874716851079306E+00 
    8.9597066677918171E+00 
    1.3914895277064698E+01 
    6.2344344879654203E+00 
    8.5593895411507912E+00 
    1.1497748039633903E+01 
    1.1711087746790682E+01 
    5.5064418569531171E+00 
    8.2023564663584292E+00 
    8.5168316469760210E+00 
    1.1728945036052574E+01 
    8.5202677474936621E+00 
    1.1670518999754965E+01 
    3.3806254249756802E+00 
    5.5682095499226882E+00 
    8.7466798598434998E+00 
    1.1844725860629312E+01 
    7.3507954888327616E+00 
    7.8790553118053328E+00 
    8.5064113022492265E+00 
    7.8333052476964475E+00 
    9.6961899298932970E+00 
    7.6539645664664553E+00 
    7.2910790366416016E+00 
    5.7721262556011217E+00 
    9.8920884009726660E+00 
    8.5912576890317194E+00 
    1.2214347913320788E+01 
    7.3333471948244595E+00 
    7.9976628502871421E+00 
    1.1587044213367804E+01 
    6.7008440466772763E+00 
    1.1974051411055941E+01 
    8.4071764432203704E+00 
    7.9345767597033658E+00 
    1.1713214214330957E+01 
    8.5798717588535460E+00 
    1.2431621955500180E+01 
    1.0146138464046853E+01 
    1.0924816582440927E+01 
    1.2402175577893736E+01 
    6.2463059613346266E+00 
    8.7617049494915928E+00 
    1.1716275243267463E+01 
    2.5394331456793444E+00 
    8.5237124409859089E+00 
    1.2373251043352914E+01 
    7.9640209134710958E+00 
    9.1845256442066407E+00 
    5.4434538543235211E+00 
    1.1497911035930564E+01 
    1.4370682979761781E+01 
    1.0530416540368497E+01 
    7.9574023844821573E+00 
    7.1330598419335143E+00 
    9.1798647568296694E+00 
    8.4238737366176331E+00 
    5.7926676841362079E+00 
    1.2395864746716846E+01 
    1.1812863921497925E+01 
    1.1499304410236579E+01 
    8.9734769942440238E+00 
    7.2649128199927944E+00 
    8.2547157796155659E+00 
    1.2137537527533702E+01 
    7.4592252526162746E+00 
    8.3463625279401210E+00 
    7.5924885588643329E+00 
    9.6912098346787339E+00 
    1.4359631785533345E+01 
    1.1491826788989167E+01 
    7.2106382679296477E+00 
    1.1878201694530155E+01 
    1.1809150494040844E+01 
    1.1878650551122632E+01 
    1.2760572873410469E+01 
    1.3250378815722261E+01 
    1.2026328433167365E+01 
    8.5451411637768810E+00 
    9.0786648586015648E+00 
    1.1879227139680195E+01 
    1.2227032672033904E+01 
    6.0356738074482239E+00 
    1.1515269087531705E+01 
    1.2104406512944923E+01 
    5.8873110044797459E+00 
    1.2679102205776591E+01 
    1.2671347712574395E+01 
    1.1281475374367686E+01 
    8.8152193762802522E+00 
    2.2644754966525684E+00 
    1.2370847798825299E+01 
    8.6963452642082455E+00 
    1.2476082091803194E+01 
    7.9091992671331610E+00 
    1.2224275152845642E+01 
    8.0321303349411322E-01 
    1.0940107884947546E+01 
    8.0662473275020510E+00 
    7.2315421177078152E+00 
    7.0504937299881547E+00 
    8.3782425977801402E+00 
    9.3927380058823822E+00 
    8.6668612815588251E+00 
    5.8243829868930312E+00 
    1.2220750638198639E+01 
    1.1737888250469467E+01 
    9.9002666056840507E+00 
    8.7392420038256855E+00 
    1.2997587938972039E+00 
    6.5272147764240991E+00 
    4.5447518053395575E+00 
    1.2384924465689663E+01 
    9.5515242833583986E+00 
    1.1793236707899178E+01 
    1.1794928527473179E+01 
    7.5425195596131926E+00 
    9.9486533764079823E+00 
    1.1494790567811030E+01 
    1.2657031001553907E+01 
    5.4392623003858533E+00 
    1.0357197672610843E+01 
    8.7055530920353696E+00 
    4.8484741243269358E+00 
    7.5196070284264067E+00 
    1.0362234165637989E+01 
    1.1762019815697503E+01 
    8.4344202279339875E+00 
    1.1858737751016941E+01 
    1.1654191887496886E+01 
    1.1611073560747409E+01 
    8.2622149433326690E+00 
    7.1983752209155787E+00 
    1.1506769975635470E+01 
    7.2818947975324448E+00 
    8.5239768735263741E+00 
    7.1429071116337388E+00 
    8.2947173243788299E+00 
    1.1802425907578487E+01 
    5.2507045446220264E+00 
    7.4491083143778631E+00 
    1.2312238799070713E+01 
    8.2768272948916319E+00 
    9.4489335286461174E+00 
    5.3879165108920555E+00 
    7.3292633474673492E+00 
    1.1635512946205044E+01 
    1.1907450876934004E+01 
    4.4116547418569834E+00 
    8.2783110643958651E+00 
    7.1795865256341420E+00 
    1.3036968446132249E+01 
    1.2553647667595513E+01 
    1.3273058580951187E+01 
    8.2993209510743338E+00 
    1.1779622512679502E+01 
    1.1458881943674861E+01 
    8.1806946131471747E+00 
    1.1499297306172346E+01 
    8.7393332967457749E+00 
    4.8839647206082155E+00 
    8.4973513964397753E+00 
    1.2298467178467069E+01 
    1.1496554866010614E+01 
    5.7027051561861581E+00 
    1.1521148734037844E+01 
    9.3997325872065254E+00 
    8.5075614368742407E+00 
    8.0401857304336204E+00 
    1.1385220589304556E+01 
    9.0090755383527128E+00 
    1.1510749572986299E+01 
    8.1754548992820890E+00 
    5.0094652286091081E+00 
    8.5894589202431941E+00 
    7.0585932833232237E+00 
    1.0532172404185905E+01 
    1.2475742970169852E+01 
    1.1506158204141663E+01 
    1.2366705091011884E+01 
    8.2269587660019159E+00 
    5.5568317422703171E+00 
    5.6340816427753406E+00 
    8.6984418676461797E+00 
    8.5017700387248141E+00 
    1.2411070336062744E+00 
    1.1091697999078633E+01 
    1.2786331792095266E+01 
    7.9150786349000564E+00 
    5.1188147762801446E+00 
    9.6339169866465362E+00 
    1.1519846524888269E+01 
    6.0455469234583958E+00 
    4.1452757208457172E+00 
    8.4764424693818885E+00 
    1.1610486008055354E+01 
    1.2136877524112997E+01 
    1.2042044449568444E+01 
    1.1911069895097553E+01 
    5.9037728626096113E+00 
    8.4962961108486290E+00 
    1.1100360981272978E+01 
    6.6139076430935688E+00 
    1.1741842543411009E+01 
    1.0131290186333796E+01 
    5.7129533445388079E+00 
    1.1610487939008868E+01 
    1.2376984102144270E+01 
    1.1602179007268074E+01 
    5.8307950454498974E+00 
    8.5489826962766617E+00 
    6.3916573099669840E+00 
    8.0518187574831508E+00 
    1.1512789640465561E+01 
    1.1503010470760298E+01 
    5.8636903862591909E+00 
    1.2259652496398944E+01 
    9.0165272565773780E+00 
    1.1540716253416591E+01 
    1.2232558209011875E+01 
    1.1525130095461984E+01 
    1.0735522993789568E+01 
    1.3081758361332131E+01 
    7.8941974888408168E+00 
    1.2340630290265127E+01 
    1.1567867709563542E+01 
    1.2403123957933380E+01 
    1.2254177466541185E+01 
    7.9764231886521850E+00 
    8.3626869086729556E+00 
    7.9054837371934630E+00 
    1.0327188358171879E+01 
    3.3894217975740206E+00 
    8.6241716937384414E+00 
    1.3198084056248980E+01 
    8.7433129058357348E+00 
    8.9077363435277235E+00 
    1.2378990935041573E+01 
    1.2589624967115851E+01 
    7.8807627481631988E+00 
    1.1524706881747843E+01 
    1.1500468443006074E+01 
    8.8968387218599805E+00 
    1.2215142793847196E+01 
    6.0078022013401187E+00 
    3.8587128585650952E+00 
    9.1438579076101067E+00 
    8.7552702621992751E+00 
    1.1504498225607986E+01 
    5.4930654696219454E+00 
    1.1970776874488806E+01 
    3.9306758383891882E+00 
    8.6996076657887773E+00 
    8.0619860285797635E+00 
    8.5275735645640793E+00 
    1.4408464233255916E+01 
    3.2949015377994328E+00 
    8.5422249000338262E+00 
    1.0067510451820517E+01 
    8.1384348108051281E+00 
    6.4220344073043707E+00 
    1.2075813002657409E+01 
    1.4000798696119778E+01 
    1.2197958453022029E+01 
    8.4867486685546041E+00 
    4.8330314950800801E+00 
    1.3860115379192575E+01 
    1.1727615504702655E+01 
    6.0350625527742574E+00 
    8.0758615006185934E+00 
    1.2745913908924349E+01 
    2.7960416645332447E+00 
    8.7999392144587691E+00 
    1.2168219404197991E+01 
    8.5405007389544956E+00 
    7.4071243269841389E+00 
    8.5816982909993609E+00 
    1.1280854734922992E+01 
    8.5216500335657148E+00 
    4.3206290250214598E+00 
    7.8845556200933131E-01 
    6.3016843819334492E+00 
    1.2936735808664833E+01 
    7.9037729323403179E+00 
    9.7080320403354481E+00 
    9.3165405342385483E+00 
    1.0574659985142812E+01 
    8.5542612997020946E+00 
    1.1648957512041424E+01 
    1.4421976192915052E+01 
    1.0058719356010240E+01 
    1.2316578747030110E+01 
    4.7079709831530897E-01 
    1.1504577800196710E+01 
    4.6929381913228836E+00 
    1.3354078348401748E+01 
    8.5557284986980857E+00 
    7.5039437483975133E+00 
    6.5134457022871421E+00 
    4.5372004700314132E+00 
    9.5108753891725684E+00 
    6.6748122613049112E+00 
    1.0443255505053672E+01 
    1.9246369138392410E+00 
    9.4297264421763476E+00 
    1.1447966352424823E+01 
    5.1160471232866565E+00 
    1.1919643378878410E+01 
    1.3190486372119668E+01 
    1.1802249086227103E+01 
    8.4307820702431933E+00 
    8.5225883520274621E+00 
    8.5485040812859605E+00 
    4.9042687867120902E+00 
    7.6793524947574969E+00 
    7.5528495961719457E+00 
    8.5376777400837263E+00 
    7.8525015924394426E+00 
    5.9340128977631046E-01 
    5.3685288701567053E+00 
    8.1739348609549349E+00 
    8.5143268945485477E+00 
    1.0730344323966047E+01 
    1.8280182807389465E+00 
    8.8614916924792535E+00 
    8.7602227168575322E+00 
    3.1713557426677537E+00 
    1.1692152079108389E+01 
    7.3051844581351908E+00 
    8.6398357048971182E+00 
    1.1724456383425844E+01 
    4.5506092827082822E+00 
    1.1784332794865801E+01 
    7.3861772248922124E+00 
    8.3179290404760098E-01 
    7.9572466576878806E+00 
    1.2271049935469408E+01 
    1.1505082832775374E+01 
    1.1524093741672660E+01 
    8.9065051844860026E+00 
    8.7026303337979058E+00 
    7.2794403944374544E+00 
    5.8306529555872357E+00 
    1.1818810111695250E+01 
    8.0762895825911496E+00 
    5.6183219787212542E+00 
    1.1517967856967301E+01 
    1.2104230581868130E+01 
    8.7186073095177434E+00 
    8.3234685079908335E+00 
    1.4309702024697694E+01 
    8.8976105618095556E+00 
    1.1836222125987563E+01 
    6.9298001695142455E+00 
    1.4449974272071412E+01 
    5.6009599465102458E+00 
    7.6582209774268541E+00 
    6.2664372223099010E+00 
    9.0996395150907539E+00 
    7.1929721753156945E+00 
    1.4434181708833901E+01 
    8.9396228561149922E+00 
    1.1227596038358758E+01 
    5.7603868236090490E+00 
    8.5494780528897536E+00 
    1.1698338754242172E+01 
    7.2102612305517546E+00 
    6.0957418057523842E+00 
    9.3550978785756467E+00 
    1.1911245809495870E+01 
    6.1819250225624636E+00 
    8.0778950280909996E+00 
    8.3469415227995469E+00 
    1.1484084712769020E+01 
    8.1630479540538357E+00 
    1.1877253112404365E+01 
    1.2428703137226416E+01 
    7.3016466395295092E+00 
    7.1613178173308247E+00 
    6.7167509743587983E+00 
    1.1604710943449735E+01 
    8.7620687974458935E+00 
    1.4035882076508832E+01 
    1.0954095193046571E+01 
    1.1662800481564346E+01 
    1.3742871836082362E+01 
    1.3192883520861731E+01 
    8.5943926005919486E+00 
    8.5233905133259693E+00 
    1.1307344947269387E+01 
    1.1536214465769660E+01 
    1.1970163589588802E+01 
    1.1745619655558597E+01 
    1.4327192430836169E+01 
    8.8972027383008001E+00 
    7.3869074041755729E+00 
    8.8666212926048704E+00 
    1.2352780157580035E+01 
    8.6744626257075019E+00 
    5.0091011232182359E+00 
    8.4158929205031097E+00 
    1.2717539878372868E+01 
    8.7916534958314401E+00 
    7.3889226291000947E+00 
    8.2887465144102404E+00 
    1.2815684393858550E+01 
    1.1530140303721328E+01 
    7.0286818440178518E+00 
    1.2940659530165288E+01 
    8.6186429713323847E+00 
    1.1968013519618149E+01 
    1.2829314213627137E+01 
    8.9903958416251157E+00 
    4.5466938121366134E+00 
    9.3319719050854992E+00 
    4.7004686823232236E+00 
    8.7157032472474540E+00 
    8.5423179467501740E+00 
    9.8131296429800674E+00 
    4.9663089187010190E+00 
    1.0417993634824613E+01 
    8.5620404644206811E+00 
    1.1736976567407108E+01 
    8.9488076140880626E+00 
    6.8281786862245788E+00 
    8.1739093494242709E+00 
    9.0532403802242101E+00 
    8.9885100356924230E+00 
    1.2464819896257159E+01 
    7.0655304539315145E+00 
    6.9461768455191715E+00 
    5.2165464465923712E+00 
    1.1994697298348711E+01 
    8.2122094435950146E+00 
    1.1355860655634142E+01 
    8.5128721500657321E+00 
    5.6939738614512612E+00 
    1.1555216079582888E+01 
    8.4879025335782750E+00 
    6.1977552578455075E+00 
    6.5578609060105055E+00 
    6.7838210004263919E+00 
    1.1763471188321363E+01 
    8.5395964605677062E+00 
    1.2325695704839525E+01 
    8.4459845265008635E+00 
    8.3843038157224896E+00 
    8.0004947611818196E+00 
    1.1625144887102310E+01 
    8.3008385016080961E+00 
    6.8173078611455429E+00 
    1.3179798429090928E+01 
    1.1693663896709728E+01 
    5.8685339159250960E+00 
    2.3267307649193838E+00 
    8.5289150665095317E+00 
    7.9410326704392915E+00 
    7.1576521420359640E+00 
    7.8260670570198236E+00 
    1.1675247827968184E+01 
    8.2589785412749368E+00 
    7.4444374379090039E+00 
    1.1554783837438290E+01 
    5.8146937755733434E+00 
    1.1273680737022728E+01 
    7.6718502881945208E+00 
    6.7599073024288634E+00 
    7.2232204423682811E+00 
    1.2042484603473467E+01 
    8.5304391289415946E+00 
    8.5379481013818204E+00 
    5.0419414573948291E+00 
    5.4394446107536636E+00 
    1.0699248188258993E+01 
    8.5471055569174244E+00 
    8.5693839374529173E+00 
    1.2924907357936425E+01 
    6.9456344307356579E+00 
    8.5580674323450694E+00 
    6.0170016475851593E+00 
    6.2111079768515207E+00 
    1.1617845999993079E+01 
    8.1929327965916006E+00 
    5.9823089711871358E+00 
    8.9750753530712064E+00 
    8.4243211251536270E+00 
    1.1621073353169415E+01 
    1.3009496580448927E+01 
    9.0900769641939583E-01 
    8.5336664113812244E+00 
    8.7539704520292378E+00 
    1.1676511769589155E+01 
    8.0218488501248313E+00 
    8.5055018543543941E+00 
    1.2511140126349188E+01 
    7.2496365884704757E+00 
    6.0334243159886878E+00 
    1.0334591755082208E+01 
    1.1516610333534691E+01 
    1.2404086307902530E+01 
    1.2634447735254444E+01 
    8.3830227473219505E+00 
    8.5260819185192620E+00 
    9.5671270781939892E+00 
    5.5768417429303154E+00 
    1.1623106185724856E+01 
    6.4907393916205205E+00 
    5.8068768542224420E+00 
    1.0680781870761059E+01 
    1.0030313034213396E+01 
    5.6945853055048783E+00 
    1.1547556073621797E+01 
    1.2390671197740403E+01 
    8.9110178560797060E+00 
    1.3101360127462613E+01 
    1.1574369764855055E+01 
    8.1119046707527556E+00 
    1.2157716109555114E+01 
    6.2144399727007134E+00 
    1.1531555031970848E+01 
    8.5329063081206709E+00 
    8.4923098626377094E+00 
    1.3076858027274380E+01 
    8.2408994143761500E+00 
    1.0423033191190333E+01 
    7.2078782405783199E+00 
    1.2493501389615608E+01 
    1.1453176862935921E+01 
    7.5122765023739104E+00 
    1.1497287380004197E+01 
    7.6699147963758572E+00 
    8.5152826783522801E+00 
    1.2355150893197475E+01 
    1.1738931592675330E+01 
    1.2393799828117789E+01 
    1.1679361738708167E+01 
    7.6916131908063798E+00 
    7.8994018998582067E+00 
    1.2399118111229916E+01 
    8.0077147328274965E+00 
    1.1396154704871137E+01 
    8.2335779173009929E+00 
    3.4125694063386232E+00 
    5.8640509655993469E+00 
    5.4355674076329707E+00 
    1.2357816688838684E+01 
    1.3014199887230310E+01 
    1.1513086881094502E+01 
    9.8960106370772003E+00 
    1.1753954144156999E+01 
    1.1552320232657772E+01 
    1.2053786936790901E+01 
    4.8711904600402631E+00 
    3.1863425472376301E+00 
    9.7105004797585099E+00 
    8.1728092294578154E+00 
    1.1676703793092718E+01 
    1.1674540800090941E+01 
    8.7687999794513871E+00 
    1.1706087401242110E+01 
    8.5207479186660908E+00 
    8.3998284823669103E+00 
    4.4104879457033466E+00 
    3.1765128951437847E+00 
    1.2812513501038366E+01 
    6.6003748773426816E+00 
    7.4595720988509591E+00 
    8.6821909772665116E+00 
    1.4309994998009204E+01 
    8.7624651713062374E+00 
    8.7605051587719647E+00 
    3.5875703986032375E+00 
    8.7629518186718851E+00 
    8.7746646177412977E+00 
    1.1945095895464158E+01 
    7.2317420640974897E+00 
    8.1134891668624309E+00 
    1.2964808229971451E+01 
    8.5417665139666195E+00 
    1.1526817270699697E+01 
    1.1744925002823283E+01 
    1.0561057708960067E+01 
    7.1710039632682951E+00 
    1.1678891723404506E+01 
    8.3291545969707190E+00 
    1.1701402192471480E+01 
    1.1472509826211507E+01 
    1.2374809837278059E+01 
    1.1677322798718681E+01 
    1.0979902051308489E+01 
    8.5311587753669578E+00 
    5.6489291167327558E+00 
    1.4189828424522780E+01 
    6.6222136035298496E+00 
    1.2304437859839837E+01 
    8.5285626606504348E+00 
    6.9959313478310152E+00 
    4.1928479600149453E+00 
    8.8040080673067553E+00 
    1.1667628742985494E+01 
    1.1663986906142588E+01 
    8.4965058663614421E+00 
    8.5226862054320858E+00 
    1.3156152800786460E+01 
    1.2583789192872056E+01 
    8.7788904107743733E+00 
    2.9665398249237631E+00 
    1.0962764401863918E+01 
    1.4432884524118764E+01 
    8.5344812199505249E+00 
    1.0221998604100015E+01 
    8.0166384816707499E+00 
    1.4056805932257628E+01 
    1.2655503041510569E+01 
    1.2420095590789854E+01 
    8.7975783652169142E+00 
    3.9253751118290299E+00 
    7.9791640684311309E+00 
    8.0420018064247447E+00 
    8.0926454545692899E+00 
    3.2227819769162087E+00 