# vtk DataFile Version 2.0
Pressure Field Data 
ASCII 
DATASET UNSTRUCTURED_GRID 

POINTS 2860 double 

    0.0000000000000000E+00     0.0000000000000000E+00     0.0000000000000000E+00 
    1.0000000000000000E+00     0.0000000000000000E+00     0.0000000000000000E+00 
    1.0000000000000000E+00     1.0000000000000000E+00     0.0000000000000000E+00 
    0.0000000000000000E+00     1.0000000000000000E+00     0.0000000000000000E+00 
    2.5000000000000000E-01     2.5000000000000000E-01     0.0000000000000000E+00 
    7.5000000000000000E-01     2.5000000000000000E-01     0.0000000000000000E+00 
    7.5000000000000000E-01     7.5000000000000000E-01     0.0000000000000000E+00 
    2.5000000000000000E-01     7.5000000000000000E-01     0.0000000000000000E+00 
    3.1249999999942091E-02     0.0000000000000000E+00     0.0000000000000000E+00 
    6.2499999999873469E-02     0.0000000000000000E+00     0.0000000000000000E+00 
    9.3749999999826514E-02     0.0000000000000000E+00     0.0000000000000000E+00 
    1.2499999999977961E-01     0.0000000000000000E+00     0.0000000000000000E+00 
    1.5624999999968961E-01     0.0000000000000000E+00     0.0000000000000000E+00 
    1.8749999999959971E-01     0.0000000000000000E+00     0.0000000000000000E+00 
    2.1874999999950970E-01     0.0000000000000000E+00     0.0000000000000000E+00 
    2.4999999999941969E-01     0.0000000000000000E+00     0.0000000000000000E+00 
    2.8124999999932920E-01     0.0000000000000000E+00     0.0000000000000000E+00 
    3.1249999999923850E-01     0.0000000000000000E+00     0.0000000000000000E+00 
    3.4374999999914790E-01     0.0000000000000000E+00     0.0000000000000000E+00 
    3.7499999999905720E-01     0.0000000000000000E+00     0.0000000000000000E+00 
    4.0624999999896660E-01     0.0000000000000000E+00     0.0000000000000000E+00 
    4.3749999999887590E-01     0.0000000000000000E+00     0.0000000000000000E+00 
    4.6874999999878530E-01     0.0000000000000000E+00     0.0000000000000000E+00 
    4.9999999999869471E-01     0.0000000000000000E+00     0.0000000000000000E+00 
    5.3124999999877620E-01     0.0000000000000000E+00     0.0000000000000000E+00 
    5.6249999999885780E-01     0.0000000000000000E+00     0.0000000000000000E+00 
    5.9374999999893940E-01     0.0000000000000000E+00     0.0000000000000000E+00 
    6.2499999999902101E-01     0.0000000000000000E+00     0.0000000000000000E+00 
    6.5624999999910261E-01     0.0000000000000000E+00     0.0000000000000000E+00 
    6.8749999999918421E-01     0.0000000000000000E+00     0.0000000000000000E+00 
    7.1874999999926570E-01     0.0000000000000000E+00     0.0000000000000000E+00 
    7.4999999999934730E-01     0.0000000000000000E+00     0.0000000000000000E+00 
    7.8124999999942890E-01     0.0000000000000000E+00     0.0000000000000000E+00 
    8.1249999999951039E-01     0.0000000000000000E+00     0.0000000000000000E+00 
    8.4374999999959199E-01     0.0000000000000000E+00     0.0000000000000000E+00 
    8.7499999999967359E-01     0.0000000000000000E+00     0.0000000000000000E+00 
    9.0624999999975520E-01     0.0000000000000000E+00     0.0000000000000000E+00 
    9.3749999999983680E-01     0.0000000000000000E+00     0.0000000000000000E+00 
    9.6874999999991840E-01     0.0000000000000000E+00     0.0000000000000000E+00 
    1.0000000000000000E+00     3.1249999999942091E-02     0.0000000000000000E+00 
    1.0000000000000000E+00     6.2499999999873469E-02     0.0000000000000000E+00 
    1.0000000000000000E+00     9.3749999999826514E-02     0.0000000000000000E+00 
    1.0000000000000000E+00     1.2499999999977961E-01     0.0000000000000000E+00 
    1.0000000000000000E+00     1.5624999999968961E-01     0.0000000000000000E+00 
    1.0000000000000000E+00     1.8749999999959971E-01     0.0000000000000000E+00 
    1.0000000000000000E+00     2.1874999999950970E-01     0.0000000000000000E+00 
    1.0000000000000000E+00     2.4999999999941969E-01     0.0000000000000000E+00 
    1.0000000000000000E+00     2.8124999999932920E-01     0.0000000000000000E+00 
    1.0000000000000000E+00     3.1249999999923850E-01     0.0000000000000000E+00 
    1.0000000000000000E+00     3.4374999999914790E-01     0.0000000000000000E+00 
    1.0000000000000000E+00     3.7499999999905720E-01     0.0000000000000000E+00 
    1.0000000000000000E+00     4.0624999999896660E-01     0.0000000000000000E+00 
    1.0000000000000000E+00     4.3749999999887590E-01     0.0000000000000000E+00 
    1.0000000000000000E+00     4.6874999999878530E-01     0.0000000000000000E+00 
    1.0000000000000000E+00     4.9999999999869471E-01     0.0000000000000000E+00 
    1.0000000000000000E+00     5.3124999999877620E-01     0.0000000000000000E+00 
    1.0000000000000000E+00     5.6249999999885780E-01     0.0000000000000000E+00 
    1.0000000000000000E+00     5.9374999999893940E-01     0.0000000000000000E+00 
    1.0000000000000000E+00     6.2499999999902101E-01     0.0000000000000000E+00 
    1.0000000000000000E+00     6.5624999999910261E-01     0.0000000000000000E+00 
    1.0000000000000000E+00     6.8749999999918421E-01     0.0000000000000000E+00 
    1.0000000000000000E+00     7.1874999999926570E-01     0.0000000000000000E+00 
    1.0000000000000000E+00     7.4999999999934730E-01     0.0000000000000000E+00 
    1.0000000000000000E+00     7.8124999999942890E-01     0.0000000000000000E+00 
    1.0000000000000000E+00     8.1249999999951039E-01     0.0000000000000000E+00 
    1.0000000000000000E+00     8.4374999999959199E-01     0.0000000000000000E+00 
    1.0000000000000000E+00     8.7499999999967359E-01     0.0000000000000000E+00 
    1.0000000000000000E+00     9.0624999999975520E-01     0.0000000000000000E+00 
    1.0000000000000000E+00     9.3749999999983680E-01     0.0000000000000000E+00 
    1.0000000000000000E+00     9.6874999999991840E-01     0.0000000000000000E+00 
    9.6875000000003686E-01     1.0000000000000000E+00     0.0000000000000000E+00 
    9.3750000000011691E-01     1.0000000000000000E+00     0.0000000000000000E+00 
    9.0625000000015765E-01     1.0000000000000000E+00     0.0000000000000000E+00 
    8.7500000000017863E-01     1.0000000000000000E+00     0.0000000000000000E+00 
    8.4375000000028044E-01     1.0000000000000000E+00     0.0000000000000000E+00 
    8.1250000000040856E-01     1.0000000000000000E+00     0.0000000000000000E+00 
    7.8125000000054956E-01     1.0000000000000000E+00     0.0000000000000000E+00 
    7.5000000000066480E-01     1.0000000000000000E+00     0.0000000000000000E+00 
    7.1875000000086831E-01     1.0000000000000000E+00     0.0000000000000000E+00 
    6.8750000000102829E-01     1.0000000000000000E+00     0.0000000000000000E+00 
    6.5625000000114431E-01     1.0000000000000000E+00     0.0000000000000000E+00 
    6.2500000000129829E-01     1.0000000000000000E+00     0.0000000000000000E+00 
    5.9375000000147926E-01     1.0000000000000000E+00     0.0000000000000000E+00 
    5.6250000000168354E-01     1.0000000000000000E+00     0.0000000000000000E+00 
    5.3125000000188671E-01     1.0000000000000000E+00     0.0000000000000000E+00 
    5.0000000000205835E-01     1.0000000000000000E+00     0.0000000000000000E+00 
    4.6875000000192979E-01     1.0000000000000000E+00     0.0000000000000000E+00 
    4.3750000000180111E-01     1.0000000000000000E+00     0.0000000000000000E+00 
    4.0625000000167238E-01     1.0000000000000000E+00     0.0000000000000000E+00 
    3.7500000000154382E-01     1.0000000000000000E+00     0.0000000000000000E+00 
    3.4375000000141509E-01     1.0000000000000000E+00     0.0000000000000000E+00 
    3.1250000000128642E-01     1.0000000000000000E+00     0.0000000000000000E+00 
    2.8125000000115769E-01     1.0000000000000000E+00     0.0000000000000000E+00 
    2.5000000000102918E-01     1.0000000000000000E+00     0.0000000000000000E+00 
    2.1875000000090050E-01     1.0000000000000000E+00     0.0000000000000000E+00 
    1.8750000000077180E-01     1.0000000000000000E+00     0.0000000000000000E+00 
    1.5625000000064329E-01     1.0000000000000000E+00     0.0000000000000000E+00 
    1.2500000000051459E-01     1.0000000000000000E+00     0.0000000000000000E+00 
    9.3750000000385914E-02     1.0000000000000000E+00     0.0000000000000000E+00 
    6.2500000000257239E-02     1.0000000000000000E+00     0.0000000000000000E+00 
    3.1250000000128557E-02     1.0000000000000000E+00     0.0000000000000000E+00 
    0.0000000000000000E+00     9.6875000000003686E-01     0.0000000000000000E+00 
    0.0000000000000000E+00     9.3750000000011691E-01     0.0000000000000000E+00 
    0.0000000000000000E+00     9.0625000000015765E-01     0.0000000000000000E+00 
    0.0000000000000000E+00     8.7500000000017863E-01     0.0000000000000000E+00 
    0.0000000000000000E+00     8.4375000000028044E-01     0.0000000000000000E+00 
    0.0000000000000000E+00     8.1250000000040856E-01     0.0000000000000000E+00 
    0.0000000000000000E+00     7.8125000000054956E-01     0.0000000000000000E+00 
    0.0000000000000000E+00     7.5000000000066480E-01     0.0000000000000000E+00 
    0.0000000000000000E+00     7.1875000000086831E-01     0.0000000000000000E+00 
    0.0000000000000000E+00     6.8750000000102829E-01     0.0000000000000000E+00 
    0.0000000000000000E+00     6.5625000000114431E-01     0.0000000000000000E+00 
    0.0000000000000000E+00     6.2500000000129829E-01     0.0000000000000000E+00 
    0.0000000000000000E+00     5.9375000000147926E-01     0.0000000000000000E+00 
    0.0000000000000000E+00     5.6250000000168354E-01     0.0000000000000000E+00 
    0.0000000000000000E+00     5.3125000000188671E-01     0.0000000000000000E+00 
    0.0000000000000000E+00     5.0000000000205835E-01     0.0000000000000000E+00 
    0.0000000000000000E+00     4.6875000000192979E-01     0.0000000000000000E+00 
    0.0000000000000000E+00     4.3750000000180111E-01     0.0000000000000000E+00 
    0.0000000000000000E+00     4.0625000000167238E-01     0.0000000000000000E+00 
[...]
CELL_DATA 2795 
SCALARS Pressure double 1 
LOOKUP_TABLE default 

    6.9146656323333300E+00 
    1.5008860755422976E+01 
    1.0628130587772732E+01 
    1.0324111633422834E+01 
    8.3709337000910153E+00 
    1.4862618104397063E+01 
    1.5604394749438109E+01 
    6.2297900533455586E+00 
    1.1183448503875585E+01 
    8.5511259429915736E+00 
    7.2967289820673802E+00 
    1.4601546255125925E+01 
    1.4925820948639908E+01 
    1.4831650913816468E+01 
    9.7798638699423321E+00 
    6.1337268258143922E+00 
    9.5759345452054792E+00 
    7.7636059473593049E+00 
    1.4232335489921944E+01 
    1.0613317652209268E+01 
    1.0508420801975308E+01 
    1.4764147020035390E+01 
    1.0061254840575184E+01 
    4.1481041112443956E-01 
    1.4640258145615975E+01 
    1.4886794103868450E+01 
    1.5636479359420562E+01 
    7.0663716769891591E+00 
    1.4520872035000261E+01 
    1.5621935790053755E+01 
    1.0774516399335436E+01 
    1.0825480445631941E+01 
    7.7056859950652008E+00 
    1.0590660027896895E+01 
    3.5652997495751571E+00 
    9.5782286059813622E+00 
    1.0578003105370387E+01 
    1.5661284753293026E+01 
    1.5581380345748663E+01 
    1.4614740181348873E+01 
    8.3368513021295705E+00 
    1.4607125605462745E+01 
    8.6708029062871872E-01 
    1.0565425286487754E+01 
    1.5406899559279513E+01 
    1.5199471031260520E+01 
    1.4590658351005558E+01 
    1.1561388249596339E+01 
    1.4660897064030779E+01 
    9.7784214650343184E+00 
    9.3548584929651959E+00 
    1.0790357330203427E+01 
    1.0465327925058418E+01 
    9.6316040336287525E+00 
    1.0846497427877935E+01 
    1.4018934682185503E+01 
    1.2505109206429935E+01 
    8.4140138575859247E+00 
    1.4768606169956682E+01 
    1.4691189632964015E+01 
    1.0326700611859941E+01 
    1.0217859643561093E+01 
    1.0229453046645753E+01 
    1.5524412896902497E+01 
    1.5793332227776160E+01 
    9.5892853173123385E+00 
    1.0789106477788884E+01 
    1.4478108653045876E+01 
    1.2410631584513949E+01 
    1.0264119214216546E+01 
    1.5795844875312156E+01 
    1.4745280526088560E+01 
    9.4640863707884932E+00 
    1.5317168543409059E+01 
    1.1082059193010631E+01 
    1.4494804296507466E+01 
    1.5678991572876324E+01 
    1.1142622527224461E+01 
    7.1356132389051048E+00 
    1.0807346477397591E+01 
    1.5590077250386784E+01 
    1.5816543669643726E+01 
    9.5987575913273577E+00 
    1.0728593769729812E+01 
    1.5865548700542128E+01 
    1.0578607578335747E+01 
    1.0145307187131733E+01 
    1.2847776022071782E+01 
    6.7970521599036360E+00 
    9.3822457414163374E+00 
    1.0726944401607577E+01 
    1.1347153477331569E+01 
    1.7311613279540659E+01 
    8.1501512074598708E+00 
    1.0797015584799153E+01 
    1.4568429369986857E+01 
    1.4877367539416948E+01 
    7.2503378219841554E+00 
    1.0444596301863081E+01 
    1.0759138622265109E+01 
    1.4897664411095040E+01 
    1.0754864137796980E+01 
    1.4831403407808526E+01 
    4.5048614983175215E+00 
    7.0931345125687635E+00 
    1.1015120886389608E+01 
    1.5015915903797199E+01 
    9.5446562017204748E+00 
    1.0111076160018012E+01 
    1.0736419232317074E+01 
    1.0116904121833414E+01 
    1.2127726357070101E+01 
    9.8549137105014708E+00 
    9.4721081852797457E+00 
    7.6837816383271260E+00 
    1.2693642739418403E+01 
    1.0829230255574577E+01 
    1.5438644441101104E+01 
    9.2899735571527735E+00 
    1.0307640892082704E+01 
    1.4728367997116710E+01 
    8.7529913740762524E+00 
    1.5171632696474292E+01 
    1.0653968305192629E+01 
    1.0239050945209204E+01 
    1.4879549922564030E+01 
    1.0819728083364268E+01 
    1.5688534477553901E+01 
    1.2865282185919455E+01 
    1.3857650492726611E+01 
    1.5653477072606201E+01 
    8.1653149128601292E+00 
    1.1042480615285580E+01 
    1.4876004039588501E+01 
    3.3720895519435650E+00 
    1.0824527424050576E+01 
    1.5619527311235164E+01 
    1.0268040054822551E+01 
    1.1826229100683829E+01 
    7.2883788391224300E+00 
    1.4566388362859009E+01 
    1.7787914528594861E+01 
    1.3350505830472615E+01 
    1.0266051558136571E+01 
    9.2776334978139925E+00 
    1.1490522660709191E+01 
    1.0671007040139784E+01 
    7.3782328654747138E+00 
    1.5647401287731704E+01 
    1.4907411524104949E+01 
    1.4570155807892474E+01 
    1.1359457744732456E+01 
    9.4409511950317757E+00 
    1.0505218902176706E+01 
    1.5350879299928414E+01 
    9.6753624580395936E+00 
    1.0739158112588719E+01 
    9.8330291752816770E+00 
    1.2402709198957664E+01 
    1.7776256267885195E+01 
    1.4561538820289663E+01 
    9.4332000058599750E+00 
    1.5071127374386315E+01 
    1.4976062580372211E+01 
    1.5055003381629612E+01 
    1.6061582673403894E+01 
    1.6600279668719718E+01 
    1.5198246264613267E+01 
    1.0780847217524418E+01 
    1.1682502942427913E+01 
    1.5032000691796011E+01 
    1.5454302680958756E+01 
    7.6964317561799911E+00 
    1.4590253749787344E+01 
    1.5315547606496009E+01 
    7.4884185817638604E+00 
    1.5981294602573724E+01 
    1.5960023031032257E+01 
    1.4302018803077278E+01 
    1.1122327363706175E+01 
    2.9197799344891231E+00 
    1.5618705640973978E+01 
    1.0955542898577452E+01 
    1.5742856696285802E+01 
    1.0202138208203358E+01 
    1.5454141113819508E+01 
    1.0733518736561189E+00 
    1.3867388289419960E+01 
    1.0263377615880552E+01 
    9.3997683938490457E+00 
    9.1766465948702507E+00 
    1.0622703609627191E+01 
    1.1760103111353409E+01 
    1.1169155245144566E+01 
    7.8230664028945025E+00 
    1.5444569895105211E+01 
    1.4897196367333201E+01 
    1.2540272419105788E+01 
    1.1009160079386364E+01 
    1.7145112263511886E+00 
    8.5168150594725098E+00 
    6.0868855248915805E+00 
    1.5633704613088200E+01 
    1.1965993751677361E+01 
    1.4932664778434857E+01 
    1.4964418094211689E+01 
    9.7570701112357217E+00 
    1.2512125082497139E+01 
    1.4565106367078814E+01 
    1.5945544729853962E+01 
    7.2199183346675184E+00 
    1.3271597687797918E+01 
    1.1153656352688301E+01 
    6.4669186975880661E+00 
    9.7442250415881215E+00 
    1.3120433280416455E+01 
    1.4925619029345889E+01 
    1.0675952306623168E+01 
    1.5034028674871045E+01 
    1.4803732314608277E+01 
    1.4752005095267094E+01 
    1.0510210472440560E+01 
    9.3219403954953410E+00 
    1.4578344740850044E+01 
    9.4601840005291109E+00 
    1.0761238995562282E+01 
    9.2919495912350225E+00 
    1.0698534647691250E+01 
    1.4974088748879289E+01 
    6.6997589421298187E+00 
    9.6575904698136075E+00 
    1.5551071028940829E+01 
    1.0520888978637142E+01 
    1.1861672321510113E+01 
    6.8712318646233825E+00 
    9.5161397720104137E+00 
    1.4783095158647951E+01 
    1.5089049244264210E+01 
    5.6379445562697272E+00 
    1.0529767556754091E+01 
    9.3422238384406491E+00 
    1.6369161754466614E+01 
    1.5827043651559347E+01 
    1.6626986536576197E+01 
    1.0550211039327850E+01 
    1.4946309955653756E+01 
    1.4519544451642840E+01 
    1.0415379508177594E+01 
    1.4570474822980149E+01 
    1.1010407075238639E+01 
    6.5509734490074889E+00 
    1.0863966706022191E+01 
    1.5535801460149443E+01 
    1.4567220601036306E+01 
    7.2769629259660507E+00 
    1.4597321524509354E+01 
    1.1780339219676369E+01 
    1.0805534013868440E+01 
    1.0343524580026406E+01 
    1.4431513431269440E+01 
    1.1326913150715784E+01 
    1.4583617642704839E+01 
    1.0502055300664352E+01 
    6.7719376192078755E+00 
    1.0835852846476069E+01 
    9.1861408939830387E+00 
    1.3360985149645353E+01 
    1.5738895044493246E+01 
    1.4576463341070424E+01 
    1.5612600488823800E+01 
    1.0465324259326851E+01 
    7.0884413484225073E+00 
    7.1802857249166445E+00 
    1.0991892923220963E+01 
    1.0735521510383464E+01 
    1.6472930669951453E+00 
    1.4063376979341763E+01 
    1.6095687863280023E+01 
    1.0214325841341019E+01 
    6.8132715159112678E+00 
    1.2395154344301345E+01 
    1.4595875460274669E+01 
    7.9234907265012176E+00 
    5.5063059703845232E+00 
    1.0715405437618021E+01 
    1.4674913270333533E+01 
    1.5350189456122548E+01 
    1.5244426151960671E+01 
    1.5091225438482020E+01 
    7.7923696162818903E+00 
    1.0797975805887628E+01 
    1.4156860828610808E+01 
    8.3961618305175669E+00 
    1.4912762613837883E+01 
    1.2752578803423985E+01 
    7.2746948230873629E+00 
    1.4704507483067474E+01 
    1.5641402262797744E+01 
    1.4753124115797968E+01 
    7.6441946957016524E+00 
    1.0785254841889584E+01 
    8.3472164830405848E+00 
    1.0177025827460175E+01 
    1.4587126031518006E+01 
    1.4575103619457344E+01 
    7.6868620664457232E+00 
    1.5493745378011852E+01 
    1.1331007783862065E+01 
    1.4607875395092300E+01 
    1.5465456671146256E+01 
    1.4595459288200416E+01 
    1.3599550957300567E+01 
    1.6422470367693379E+01 
    1.0173487268370215E+01 
    1.5581319185421124E+01 
    1.4635280804515592E+01 
    1.5655178161148472E+01 
    1.5486376300478137E+01 
    1.0270309181206640E+01 
    1.0618573076796396E+01 
    1.0204886015330221E+01 
    1.3084138093777229E+01 
    4.5156942723784814E+00 
    1.0927481014973759E+01 
    1.6547686276317069E+01 
    1.1011148473253851E+01 
    1.1203414266694228E+01 
    1.5627581929884549E+01 
    1.5864131672840720E+01 
    1.0110585601697691E+01 
    1.4601795714705279E+01 
    1.4571339845857656E+01 
    1.1190613676692060E+01 
    1.5441064742638613E+01 
    7.6330051595466406E+00 
    4.9303545693325468E+00 
    1.1480199298346012E+01 
    1.1025350022972487E+01 
    1.4576868159640057E+01 
    7.2293581550884669E+00 
    1.5160119921510965E+01 
    5.0388233091472028E+00 
    1.0960001978391761E+01 
    1.0313496514435823E+01 
    1.0762026893804295E+01 
    1.7825375741801540E+01 
    4.3880866751224641E+00 
    1.0842735973324592E+01 
    1.2890857269617838E+01 
    1.0363934123330258E+01 
    8.4855488723884136E+00 
    1.5266906876223583E+01 
    1.7403808461431730E+01 
    1.5422898048612049E+01 
    1.0782657490321423E+01 
    6.4290457894253290E+00 
    1.7249925786981077E+01 
    1.4889664458453066E+01 
    8.1956031808265077E+00 
    1.0413769402355577E+01 
    1.6044279572141754E+01 
    3.7279393500589282E+00 
    1.1077204091198139E+01 
    1.5395574984681545E+01 
    1.0776200563437582E+01 
    9.3798328068578716E+00 
    1.0883503068347874E+01 
    1.4382932413858759E+01 
    1.0757781487884115E+01 
    5.7484545529987008E+00 
    1.0608644571416161E+00 
    8.0004233261013020E+00 
    1.6266022606046221E+01 
    1.0203446820277462E+01 
    1.2157540951112805E+01 
    1.1641809783659474E+01 
    1.3431621327548612E+01 
    1.0789712624558440E+01 
    1.4801142794808007E+01 
    1.7839308256216984E+01 
    1.2757403851333708E+01 
    1.5552914862714870E+01 
    6.1859618180504483E-01 
    1.4577122744378805E+01 
    6.3536751656891406E+00 
    1.6714168665828566E+01 
    1.0856698468248764E+01 
    9.5433135540848042E+00 
    8.5001457883597702E+00 
    6.0124232467908216E+00 
    1.2040441610933941E+01 
    8.4805666735146144E+00 
    1.3252832899653017E+01 
    2.4753095936342229E+00 
    1.1816960193151482E+01 
    1.4507126243320249E+01 
    6.5224331845087500E+00 
    1.5056081280368083E+01 
    1.6529659976797980E+01 
    1.4897850901552800E+01 
    1.0721298580703456E+01 
    1.0756431553716597E+01 
    1.0849226938310705E+01 
    6.4873685717943452E+00 
    9.9378330759082179E+00 
    9.7875078521385053E+00 
    1.0838010667210192E+01 
    1.0139479340965673E+01 
    7.9388233248523177E-01 
    7.2723401470032014E+00 
    1.0533335364160351E+01 
    1.0812799209854029E+01 
    1.3609892137345083E+01 
    2.4379020690203643E+00 
    1.1149225410134154E+01 
    1.1030860026870585E+01 
    4.2238013717163900E+00 
    1.4759875307468693E+01 
    9.4754701120754312E+00 
    1.0890188923594819E+01 
    1.4889494695955632E+01 
    6.0395594986631949E+00 
    1.4873916719196774E+01 
    9.5875976737078066E+00 
    1.1062743461907005E+00 
    1.0264162410043140E+01 
    1.5506706373850724E+01 
    1.4577124157944388E+01 
    1.4596603000565855E+01 
    1.1202252088139783E+01 
    1.0963322399784865E+01 
    9.4569443929691079E+00 
    7.8781856907363323E+00 
    1.5000018121096963E+01 
    1.0408545275619357E+01 
    7.6595347705311205E+00 
    1.4591556823721142E+01 
    1.5297636044283921E+01 
    1.1014906788810402E+01 
    1.0569012984338411E+01 
    1.7721465652090171E+01 
    1.1191543368097815E+01 
    1.5013589869304404E+01 
    9.0297391109037690E+00 
    1.7867216275604196E+01 
    7.1379583783499410E+00 
    9.8572427605416575E+00 
    7.9566720970683287E+00 
    1.1428810936759378E+01 
    9.1490317058981088E+00 
    1.7851057124985164E+01 
    1.1240850686553975E+01 
    1.4320695189810616E+01 
    7.3333893015174754E+00 
    1.0785287037702178E+01 
    1.4854285365112579E+01 
    9.1565904301523471E+00 
    8.1205923819043750E+00 
    1.2021705501226657E+01 
    1.5074075348694118E+01 
    7.8583450734024538E+00 
    1.0333716600109012E+01 
    1.0602365764893035E+01 
    1.4552095694421581E+01 
    1.0388906021199759E+01 
    1.5052278448726014E+01 
    1.5684555180064594E+01 
    9.4842541544820325E+00 
    9.3134452954757450E+00 
    8.5232151361760504E+00 
    1.4698632696195993E+01 
    1.1055417888991375E+01 
    1.7439464813591055E+01 
    1.3708247456685456E+01 
    1.4816517063096571E+01 
    1.7125800328136474E+01 
    1.6530860562547833E+01 
    1.0831977170924661E+01 
    1.0822729963008992E+01 
    1.4327734028468127E+01 
    1.4615916146768042E+01 
    1.5174607164410494E+01 
    1.4911593416568518E+01 
    1.7742696045223955E+01 
    1.1191059371261735E+01 
    9.5850552512452012E+00 
    1.1197102360966063E+01 
    1.5596149204335967E+01 
    1.0928139977300491E+01 
    6.4304029009901864E+00 
    1.0705149942950989E+01 
    1.6015536984069296E+01 
    1.1067392694680839E+01 
    9.5896362599534655E+00 
    1.0542893467120781E+01 
    1.6124367184781892E+01 
    1.4654726162100431E+01 
    9.1710780521502873E+00 
    1.6263126989592710E+01 
    1.0860803600559565E+01 
    1.5158079807905056E+01 
    1.6139309445538665E+01 
    1.1445825093187350E+01 
    6.0539712288741745E+00 
    1.1952287976899489E+01 
    6.2489311441131896E+00 
    1.0978490842064787E+01 
    1.0779233443668835E+01 
    1.2611292304194865E+01 
    6.5918440280169159E+00 
    1.3351746105252545E+01 
    1.0797649190698795E+01 
    1.4900968091876516E+01 
    1.1497485303079237E+01 
    9.0162829674974319E+00 
    1.0409392623718293E+01 
    1.1360741253887168E+01 
    1.1297981778408660E+01 
    1.5733716832158073E+01 
    9.1962563002465068E+00 
    9.0474411549145461E+00 
    6.9070106552463733E+00 
    1.5198825876999647E+01 
    1.0453441676670328E+01 
    1.4464247893458463E+01 
    1.0748804136065779E+01 
    7.5049547676170754E+00 
    1.4694377783864377E+01 
    1.0724684492195976E+01 
    8.1275242185363261E+00 
    8.5688490243963020E+00 
    8.8458133980569240E+00 
    1.4932990053420424E+01 
    1.0840025572843450E+01 
    1.5564711725644893E+01 
    1.0684017632479671E+01 
    1.0622298009283822E+01 
    1.0251796904972608E+01 
    1.4774392356306842E+01 
    1.0537360358112515E+01 
    8.8855959180736033E+00 
    1.6517866226016274E+01 
    1.4854331441355136E+01 
    7.4615849386774613E+00 
    3.0933377678836682E+00 
    1.0829218057502386E+01 
    1.0111917999311048E+01 
    9.3093218478904483E+00 
    1.0055761941187688E+01 
    1.4786021857616303E+01 
    1.0536661078898744E+01 
    9.6335011928542063E+00 
    1.4638660745439033E+01 
    7.4017527804486916E+00 
    1.4289205219744053E+01 
    9.7529085245994231E+00 
    8.8669862015121979E+00 
    9.3899701903742994E+00 
    1.5243415242935070E+01 
    1.0764815100963000E+01 
    1.0773048211965376E+01 
    6.6596196980353026E+00 
    7.1583717600280572E+00 
    1.3673615035274448E+01 
    1.0782888202761397E+01 
    1.0870020455061907E+01 
    1.6246827072796968E+01 
    9.0456964665949080E+00 
    1.0795181533624907E+01 
    7.6499533544793952E+00 
    7.8923972716779858E+00 
    1.4771506126911790E+01 
    1.0418002836899934E+01 
    7.8383626473600252E+00 
    1.1359879317089236E+01 
    1.0675734177423914E+01 
    1.4773862699123598E+01 
    1.6339744016921539E+01 
    1.1815287109083770E+00 
    1.0834166188130927E+01 
    1.1023605814650791E+01 
    1.4833277141940512E+01 
    1.0334912878190270E+01 
    1.0738008063436778E+01 
    1.5790169183058731E+01 
    9.4220367618383598E+00 
    7.9050947447328994E+00 
    1.2899455917441548E+01 
    1.4591216569249852E+01 
    1.5654714409237901E+01 
    1.5917482072522294E+01 
    1.0675354291515696E+01 
    1.0825767271157661E+01 
    1.2087367852524984E+01 
    7.1178577093881863E+00 
    1.4722390724356849E+01 
    8.4703441513338547E+00 
    7.3890668100235999E+00 
    1.3410430518667910E+01 
    1.2683682086225463E+01 
    7.2567861491123651E+00 
    1.4628306807725748E+01 
    1.5639954510056736E+01 
    1.1207269264266609E+01 
    1.6440935577019193E+01 
    1.4662679383544516E+01 
    1.0405919600619828E+01 
    1.5372996572818392E+01 
    7.8925869419136525E+00 
    1.4610243474100104E+01 
    1.0833180580028504E+01 
    1.0793396638272277E+01 
    1.6416604676980409E+01 
    1.0491286817254407E+01 
    1.3185139700242413E+01 
    9.3695313102003208E+00 
    1.5758841518944593E+01 
    1.4514184306024283E+01 
    9.7393819326454114E+00 
    1.4566217567908302E+01 
    9.7415016081623786E+00 
    1.0746480906239221E+01 
    1.5598370345580284E+01 
    1.4908938653207320E+01 
    1.5643290927789156E+01 
    1.4837244866621946E+01 
    9.9492193771531650E+00 
    1.0166194991664463E+01 
    1.5650158081393498E+01 
    1.0289656500197419E+01 
    1.4437724880657807E+01 
    1.0476386352319679E+01 
    4.5514248968436171E+00 
    7.4629619864942525E+00 
    6.9287025881909221E+00 
    1.5601864806621084E+01 
    1.6345781006962017E+01 
    1.4584897232078468E+01 
    1.2350721189981966E+01 
    1.4888094628275764E+01 
    1.4635725732461944E+01 
    1.5240265412431281E+01 
    6.4517258696638899E+00 
    4.2422445632598986E+00 
    1.2129210890381797E+01 
    1.0492969527154544E+01 
    1.4787979615465396E+01 
    1.4785378272364785E+01 
    1.1052940020877459E+01 
    1.4823829894620411E+01 
    1.0820070148328330E+01 
    1.0724718743947356E+01 
    5.8543342745698483E+00 
    4.2285068236171979E+00 
    1.6119835392329854E+01 
    8.3937351873406776E+00 
    9.6753711462512584E+00 
    1.0939613157972897E+01 
    1.7723059483279819E+01 
    1.1033094992547506E+01 
    1.1126651956330649E+01 
    4.7920063560975610E+00 
    1.1034259867906171E+01 
    1.1049152779904052E+01 
    1.5106472468313202E+01 
    9.3954104297320686E+00 
    1.0306691007646808E+01 
    1.6290154268570483E+01 
    1.0842549570403591E+01 
    1.4601369022499512E+01 
    1.4843981474358763E+01 
    1.3154197040226364E+01 
    9.1338254543771278E+00 
    1.4837556320290087E+01 
    1.0633385532793902E+01 
    1.4775600384379807E+01 
    1.4538111457233311E+01 
    1.5621683824731429E+01 
    1.4832249330195893E+01 
    1.3904123851964659E+01 
    1.0831274227954472E+01 
    7.1957629887154555E+00 
    1.7598312765616821E+01 
    8.6360368571041892E+00 
    1.5540643754753837E+01 
    1.0828643083280063E+01 
    9.0968159567099196E+00 
    5.5385338028840998E+00 
    1.1088129925605363E+01 
    1.4823562753163515E+01 
    1.4821822059537205E+01 
    1.0726903525821909E+01 
    1.0822721208693713E+01 
    1.6498927121397188E+01 
    1.5860515468421552E+01 
    1.1052017952846999E+01 
    3.9442898127946875E+00 
    1.3821792839395314E+01 
    1.7848839614663749E+01 
    1.0834644527574952E+01 
    1.2738971249712050E+01 
    1.0332558935711338E+01 
    1.7457761955496803E+01 
    1.5942888249317919E+01 
    1.5687933082808204E+01 
    1.1073968179239879E+01 
    5.1114907703088184E+00 
    1.0291342804354166E+01 
    1.0357062786183649E+01 
    1.0401290505125248E+01 
    4.2873207092722838E+00 