# vtk DataFile Version 2.0
Pressure Field Data 
ASCII 
DATASET UNSTRUCTURED_GRID 

POINTS 2860 double 

    0.0000000000000000E+00     0.0000000000000000E+00     0.0000000000000000E+00 
    1.0000000000000000E+00     0.0000000000000000E+00     0.0000000000000000E+00 
    1.0000000000000000E+00     1.0000000000000000E+00     0.0000000000000000E+00 
    0.0000000000000000E+00     1.0000000000000000E+00     0.0000000000000000E+00 
    2.5000000000000000E-01     2.5000000000000000E-01     0.0000000000000000E+00 
    7.5000000000000000E-01     2.5000000000000000E-01     0.0000000000000000E+00 
    7.5000000000000000E-01     7.5000000000000000E-01     0.0000000000000000E+00 
    2.5000000000000000E-01     7.5000000000000000E-01     0.0000000000000000E+00 
    3.1249999999942091E-02     0.0000000000000000E+00     0.0000000000000000E+00 
    6.2499999999873469E-02     0.0000000000000000E+00     0.0000000000000000E+00 
    9.3749999999826514E-02     0.0000000000000000E+00     0.0000000000000000E+00 
    1.2499999999977961E-01     0.0000000000000000E+00     0.0000000000000000E+00 
    1.5624999999968961E-01     0.0000000000000000E+00     0.0000000000000000E+00 
    1.8749999999959971E-01     0.0000000000000000E+00     0.0000000000000000E+00 
    2.1874999999950970E-01     0.0000000000000000E+00     0.0000000000000000E+00 
    2.4999999999941969E-01     0.0000000000000000E+00     0.0000000000000000E+00 
    2.8124999999932920E-01     0.0000000000000000E+00     0.0000000000000000E+00 
    3.1249999999923850E-01     0.0000000000000000E+00     0.0000000000000000E+00 
    3.4374999999914790E-01     0.0000000000000000E+00     0.0000000000000000E+00 
    3.7499999999905720E-01     0.0000000000000000E+00     0.0000000000000000E+00 
    4.0624999999896660E-01     0.0000000000000000E+00     0.0000000000000000E+00 
    4.3749999999887590E-01     0.0000000000000000E+00     0.0000000000000000E+00 
    4.6874999999878530E-01     0.0000000000000000E+00     0.0000000000000000E+00 
    4.9999999999869471E-01     0.0000000000000000E+00     0.0000000000000000E+00 
    5.3124999999877620E-01     0.0000000000000000E+00     0.0000000000000000E+00 
    5.6249999999885780E-01     0.0000000000000000E+00     0.0000000000000000E+00 
    5.9374999999893940E-01     0.0000000000000000E+00     0.0000000000000000E+00 
    6.2499999999902101E-01     0.0000000000000000E+00     0.0000000000000000E+00 
    6.5624999999910261E-01     0.0000000000000000E+00     0.0000000000000000E+00 
    6.8749999999918421E-01     0.0000000000000000E+00     0.0000000000000000E+00 
    7.1874999999926570E-01     0.0000000000000000E+00     0.0000000000000000E+00 
    7.4999999999934730E-01     0.0000000000000000E+00     0.0000000000000000E+00 
    7.8124999999942890E-01     0.0000000000000000E+00     0.0000000000000000E+00 
    8.1249999999951039E-01     0.0000000000000000E+00     0.0000000000000000E+00 
    8.4374999999959199E-01     0.0000000000000000E+00     0.0000000000000000E+00 
    8.7499999999967359E-01     0.0000000000000000E+00     0.0000000000000000E+00 
    9.0624999999975520E-01     0.0000000000000000E+00     0.0000000000000000E+00 
    9.3749999999983680E-01     0.0000000000000000E+00     0.0000000000000000E+00 
    9.6874999999991840E-01     0.0000000000000000E+00     0.0000000000000000E+00 
    1.0000000000000000E+00     3.1249999999942091E-02     0.0000000000000000E+00 
    1.0000000000000000E+00     6.2499999999873469E-02     0.0000000000000000E+00 
    1.0000000000000000E+00     9.3749999999826514E-02     0.0000000000000000E+00 
    1.0000000000000000E+00     1.2499999999977961E-01     0.0000000000000000E+00 
    1.0000000000000000E+00     1.5624999999968961E-01     0.0000000000000000E+00 
    1.0000000000000000E+00     1.8749999999959971E-01     0.0000000000000000E+00 
    1.0000000000000000E+00     2.1874999999950970E-01     0.0000000000000000E+00 
    1.0000000000000000E+00     2.4999999999941969E-01     0.0000000000000000E+00 
    1.0000000000000000E+00     2.8124999999932920E-01     0.0000000000000000E+00 
    1.0000000000000000E+00     3.1249999999923850E-01     0.0000000000000000E+00 
    1.0000000000000000E+00     3.4374999999914790E-01     0.0000000000000000E+00 
    1.0000000000000000E+00     3.7499999999905720E-01     0.0000000000000000E+00 
    1.0000000000000000E+00     4.0624999999896660E-01     0.0000000000000000E+00 
    1.0000000000000000E+00     4.3749999999887590E-01     0.0000000000000000E+00 
    1.0000000000000000E+00     4.6874999999878530E-01     0.0000000000000000E+00 
    1.0000000000000000E+00     4.9999999999869471E-01     0.0000000000000000E+00 
    1.0000000000000000E+00     5.3124999999877620E-01     0.0000000000000000E+00 
    1.0000000000000000E+00     5.6249999999885780E-01     0.0000000000000000E+00 
    1.0000000000000000E+00     5.9374999999893940E-01     0.0000000000000000E+00 
    1.0000000000000000E+00     6.2499999999902101E-01     0.0000000000000000E+00 
    1.0000000000000000E+00     6.5624999999910261E-01     0.0000000000000000E+00 
    1.0000000000000000E+00     6.8749999999918421E-01     0.0000000000000000E+00 
    1.0000000000000000E+00     7.1874999999926570E-01     0.0000000000000000E+00 
    1.0000000000000000E+00     7.4999999999934730E-01     0.0000000000000000E+00 
    1.0000000000000000E+00     7.8124999999942890E-01     0.0000000000000000E+00 
    1.0000000000000000E+00     8.1249999999951039E-01     0.0000000000000000E+00 
    1.0000000000000000E+00     8.4374999999959199E-01     0.0000000000000000E+00 
    1.0000000000000000E+00     8.7499999999967359E-01     0.0000000000000000E+00 
    1.0000000000000000E+00     9.0624999999975520E-01     0.0000000000000000E+00 
    1.0000000000000000E+00     9.3749999999983680E-01     0.0000000000000000E+00 
    1.0000000000000000E+00     9.6874999999991840E-01     0.0000000000000000E+00 
    9.6875000000003686E-01     1.0000000000000000E+00     0.0000000000000000E+00 
    9.3750000000011691E-01     1.0000000000000000E+00     0.0000000000000000E+00 
    9.0625000000015765E-01     1.0000000000000000E+00     0.0000000000000000E+00 
    8.7500000000017863E-01     1.0000000000000000E+00     0.0000000000000000E+00 
    8.4375000000028044E-01     1.0000000000000000E+00     0.0000000000000000E+00 
    8.1250000000040856E-01     1.0000000000000000E+00     0.0000000000000000E+00 
    7.8125000000054956E-01     1.0000000000000000E+00     0.0000000000000000E+00 
    7.5000000000066480E-01     1.0000000000000000E+00     0.0000000000000000E+00 
    7.1875000000086831E-01     1.0000000000000000E+00     0.0000000000000000E+00 
    6.8750000000102829E-01     1.0000000000000000E+00     0.0000000000000000E+00 
    6.5625000000114431E-01     1.0000000000000000E+00     0.0000000000000000E+00 
    6.2500000000129829E-01     1.0000000000000000E+00     0.0000000000000000E+00 
    5.9375000000147926E-01     1.0000000000000000E+00     0.0000000000000000E+00 
    5.6250000000168354E-01     1.0000000000000000E+00     0.0000000000000000E+00 
    5.3125000000188671E-01     1.0000000000000000E+00     0.0000000000000000E+00 
    5.0000000000205835E-01     1.0000000000000000E+00     0.0000000000000000E+00 
    4.6875000000192979E-01     1.0000000000000000E+00     0.0000000000000000E+00 
    4.3750000000180111E-01     1.0000000000000000E+00     0.0000000000000000E+00 
    4.0625000000167238E-01     1.0000000000000000E+00     0.0000000000000000E+00 
    3.7500000000154382E-01     1.0000000000000000E+00     0.0000000000000000E+00 
    3.4375000000141509E-01     1.0000000000000000E+00     0.0000000000000000E+00 
    3.1250000000128642E-01     1.0000000000000000E+00     0.0000000000000000E+00 
    2.8125000000115769E-01     1.0000000000000000E+00     0.0000000000000000E+00 
    2.5000000000102918E-01     1.0000000000000000E+00     0.0000000000000000E+00 
    2.1875000000090050E-01     1.0000000000000000E+00     0.0000000000000000E+00 
    1.8750000000077180E-01     1.0000000000000000E+00     0.0000000000000000E+00 
    1.5625000000064329E-01     1.0000000000000000E+00     0.0000000000000000E+00 
    1.2500000000051459E-01     1.0000000000000000E+00     0.0000000000000000E+00 
    9.3750000000385914E-02     1.0000000000000000E+00     0.0000000000000000E+00 
    6.2500000000257239E-02     1.0000000000000000E+00     0.0000000000000000E+00 
    3.1250000000128557E-02     1.0000000000000000E+00     0.0000000000000000E+00 
    0.0000000000000000E+00     9.6875000000003686E-01     0.0000000000000000E+00 
    0.0000000000000000E+00     9.3750000000011691E-01     0.0000000000000000E+00 
    0.0000000000000000E+00     9.0625000000015765E-01     0.0000000000000000E+00 
    0.0000000000000000E+00     8.7500000000017863E-01     0.0000000000000000E+00 
    0.0000000000000000E+00     8.4375000000028044E-01     0.0000000000000000E+00 
    0.0000000000000000E+00     8.1250000000040856E-01     0.0000000000000000E+00 
    0.0000000000000000E+00     7.8125000000054956E-01     0.0000000000000000E+00 
    0.0000000000000000E+00     7.5000000000066480E-01     0.0000000000000000E+00 
    0.0000000000000000E+00     7.1875000000086831E-01     0.0000000000000000E+00 
    0.0000000000000000E+00     6.8750000000102829E-01     0.0000000000000000E+00 
    0.0000000000000000E+00     6.5625000000114431E-01     0.0000000000000000E+00 
    0.0000000000000000E+00     6.2500000000129829E-01     0.0000000000000000E+00 
    0.0000000000000000E+00     5.9375000000147926E-01     0.0000000000000000E+00 
    0.0000000000000000E+00     5.6250000000168354E-01     0.0000000000000000E+00 
    0.0000000000000000E+00     5.3125000000188671E-01     0.0000000000000000E+00 
    0.0000000000000000E+00     5.0000000000205835E-01     0.0000000000000000E+00 
    0.0000000000000000E+00     4.6875000000192979E-01     0.0000000000000000E+00 
    0.0000000000000000E+00     4.3750000000180111E-01     0.0000000000000000E+00 
    0.0000000000000000E+00     4.0625000000167238E-01     0.0000000000000000E+00 
[...]
CELL_DATA 2795 
SCALARS Pressure double 1 
LOOKUP_TABLE default 

    7.7724619895642313E+00 
    2.1498231568980302E+01 
    1.3082745789242741E+01 
    1.2553796340086702E+01 
    9.6764736359061096E+00 
    2.0579568704861281E+01 
    2.2333541865017061E+01 
    6.8845800922818743E+00 
    1.3870039776596151E+01 
    1.0363849833786118E+01 
    8.7144146622848773E+00 
    2.0070073063637363E+01 
    2.1074501720472817E+01 
    2.0516275946645994E+01 
    1.1947442935126828E+01 
    6.7618044541439737E+00 
    1.1367224119121301E+01 
    9.3261889961696873E+00 
    1.9300854889537902E+01 
    1.3063964888238427E+01 
    1.2908392257671650E+01 
    2.0359815839525464E+01 
    1.2134135587358145E+01 
    4.4729132290585921E-01 
    2.0361970462930508E+01 
    2.1186317807536792E+01 
    2.2413956271780457E+01 
    8.3535215682128836E+00 
    1.9898172706143157E+01 
    2.2994713291855042E+01 
    1.3346128721786258E+01 
    1.3377841541758961E+01 
    9.0460894023484304E+00 
    1.3027487050145718E+01 
    4.0278231533487716E+00 
    1.1372691187283293E+01 
    1.3010064869655860E+01 
    2.3132943474607629E+01 
    2.2257050627161590E+01 
    2.0095027350472684E+01 
    9.5902084030505392E+00 
    2.0463099364039159E+01 
    9.2843339999091423E-01 
    1.2958174568124443E+01 
    2.2192516606950530E+01 
    2.1593164429068963E+01 
    2.0049817317484273E+01 
    1.4471057172079467E+01 
    2.0081706108843143E+01 
    1.1668377803556671E+01 
    1.1034796862730296E+01 
    1.3329388913252224E+01 
    1.2781574097393491E+01 
    1.1445584105506766E+01 
    1.3474706606826938E+01 
    1.8873990405051728E+01 
    1.6128712399402588E+01 
    9.7316412318524836E+00 
    2.0385849893706411E+01 
    2.0208494101469295E+01 
    1.2614848766690288E+01 
    1.2529648617912942E+01 
    1.2401314214519175E+01 
    2.2754520894823170E+01 
    2.3195542306574286E+01 
    1.1383963120745925E+01 
    1.3328012757143668E+01 
    1.9639462401238774E+01 
    1.5881152393048241E+01 
    1.2578895371010681E+01 
    2.2867239513611167E+01 
    2.0712160026807975E+01 
    1.1196284004916784E+01 
    2.1744609042332360E+01 
    1.3878856319217206E+01 
    2.0132155747774718E+01 
    2.3203053074712710E+01 
    1.3890039918298141E+01 
    7.9198680415577902E+00 
    1.3354279209605961E+01 
    2.2287448092279003E+01 
    2.3532057728759764E+01 
    1.1424296801913034E+01 
    1.3235383202141950E+01 
    2.3415186835402313E+01 
    1.3012532179518047E+01 
    1.2268628698180269E+01 
    1.6637316721369050E+01 
    7.5392035015746490E+00 
    1.1068092531355580E+01 
    1.3234258322465459E+01 
    1.4092963419344679E+01 
    2.6457648676378007E+01 
    9.3880764705654993E+00 
    1.3339446049272421E+01 
    2.0013409011989300E+01 
    2.0959939059628038E+01 
    8.1909413067930359E+00 
    1.2820433075545074E+01 
    1.3278555801199799E+01 
    2.1017588464975091E+01 
    1.3278334383816771E+01 
    2.0852319480436933E+01 
    4.8590834392952376E+00 
    8.4619858372194514E+00 
    1.3655733979266820E+01 
    2.1545430015658010E+01 
    1.1314452723161430E+01 
    1.2284751239435556E+01 
    1.3255689171884269E+01 
    1.2226642908442454E+01 
    1.5536349277766931E+01 
    1.1879798836279427E+01 
    1.1206411109923751E+01 
    8.6447782857271314E+00 
    1.6723481614257118E+01 
    1.3380976896329985E+01 
    2.2636576265750112E+01 
    1.1341591741680856E+01 
    1.2532042011002028E+01 
    2.0719964197420602E+01 
    1.0178898541760812E+01 
    2.1783352182119344E+01 
    1.3124603510295131E+01 
    1.2417461492695361E+01 
    2.0976403076711353E+01 
    1.3372057172352775E+01 
    2.2810531929095987E+01 
    1.6678318274908779E+01 
    1.8541914977925007E+01 
    2.2467352175859997E+01 
    9.4062149824761345E+00 
    1.3684209289070631E+01 
    2.1081627400216675E+01 
    3.6119152654741207E+00 
    1.3436290787387643E+01 
    2.2356844126746573E+01 
    1.2469288393612585E+01 
    1.5102721929059156E+01 
    8.1195991589428065E+00 
    2.0053121103783603E+01 
    2.7337068451478899E+01 
    1.7546971441940247E+01 
    1.2460492123210047E+01 
    1.0927953837122367E+01 
    1.4580257228578752E+01 
    1.3149407172385313E+01 
    8.8048352298619097E+00 
    2.2585360101724550E+01 
    2.0850076743819567E+01 
    2.0019375216066503E+01 
    1.4108133210168107E+01 
    1.1162820530723927E+01 
    1.2905065435253540E+01 
    2.1729908342254870E+01 
    1.1514553199902602E+01 
    1.3234966217659082E+01 
    1.1772520392351540E+01 
    1.6335648497077301E+01 
    2.7317959848511123E+01 
    1.9990837174415528E+01 
    1.1102389444680455E+01 
    2.1386681555404397E+01 
    2.1423714336979863E+01 
    2.1645248352399747E+01 
    2.4102552681192890E+01 
    2.5217671082512759E+01 
    2.1436332286493542E+01 
    1.3316187727693050E+01 
    1.4790289787430655E+01 
    2.0942759167935836E+01 
    2.2421418633520609E+01 
    9.2061031247577390E+00 
    2.0040886274257826E+01 
    2.1584347412176548E+01 
    8.9569392857809227E+00 
    2.3740426723102416E+01 
    2.3869956615698168E+01 
    1.9431709441641118E+01 
    1.3788994338795618E+01 
    3.3271131141540349E+00 
    2.2506511447146693E+01 
    1.3564562653828318E+01 
    2.3311829621791546E+01 
    1.2366609470742034E+01 
    2.2081531511759572E+01 
    1.1627856303515554E+00 
    1.8532817536041637E+01 
    1.2592527882005381E+01 
    1.1099037613890328E+01 
    1.0778635097405195E+01 
    1.3079780323234912E+01 
    1.4902243095169108E+01 
    1.3977733505075959E+01 
    8.7816518944826960E+00 
    2.2532791445284388E+01 
    2.1179275188493204E+01 
    1.6080968945833327E+01 
    1.3642004101693924E+01 
    1.8146031136871241E+00 
    9.8710715408453105E+00 
    6.6983629126388538E+00 
    2.3105825967372052E+01 
    1.5397720550535483E+01 
    2.0719012333282823E+01 
    2.1328330560516349E+01 
    1.1680295697102769E+01 
    1.6335964629503085E+01 
    1.9983690248888283E+01 
    2.3828070780594675E+01 
    8.0887410404895963E+00 
    1.7761866404901212E+01 
    1.3946182665473907E+01 
    7.1515405875496389E+00 
    1.1636842760568610E+01 
    1.7352919559630667E+01 
    2.1244645781271764E+01 
    1.3158859178023677E+01 
    2.1557684416543331E+01 
    2.0908889695131194E+01 
    2.0800475187920522E+01 
    1.2913920767644630E+01 
    1.1059772405674710E+01 
    2.0040537604956238E+01 
    1.1193563497827693E+01 
    1.3285273680988892E+01 
    1.0938154377200066E+01 
    1.3154845380991395E+01 
    2.1334165348049556E+01 
    7.9647166962890337E+00 
    1.1505951725763747E+01 
    2.2594928088105412E+01 
    1.2932121019691628E+01 
    1.5214632424749256E+01 
    8.1706073630522091E+00 
    1.1286612440960152E+01 
    2.0851301138928417E+01 
    2.1711571455676989E+01 
    6.6658051554682176E+00 
    1.2940804975318054E+01 
    1.1011878915104793E+01 
    2.4756279452564076E+01 
    2.3561496457670177E+01 
    2.5296878156194211E+01 
    1.2970961512118874E+01 
    2.1291507452038715E+01 
    1.9871206966401786E+01 
    1.2782838711610253E+01 
    2.0013328003380199E+01 
    1.3642105402937739E+01 
    7.2516431151172043E+00 
    1.3473172989376268E+01 
    2.2869637465765980E+01 
    2.0004760714265679E+01 
    8.6599746901791370E+00 
    2.0059132143930562E+01 
    1.4947584948939406E+01 
    1.3406965124911881E+01 
    1.2601597826458150E+01 
    1.9712606249536226E+01 
    1.4294930029273843E+01 
    2.0044591619050788E+01 
    1.2854096895523293E+01 
    7.5230929661330945E+00 
    1.3386521229404028E+01 
    1.0798412305331768E+01 
    1.7587294203039455E+01 
    2.2859653379291700E+01 
    2.0049690933866472E+01 
    2.2350078315360207E+01 
    1.2855714796612910E+01 
    8.4362511094855073E+00 
    8.5610999093852662E+00 
    1.3722558107511563E+01 
    1.3250906426604054E+01 
    1.8267983512657069E+00 
    1.8932613928184374E+01 
    2.4108519831484262E+01 
    1.2380546641968923E+01 
    7.5740880229647205E+00 
    1.6066019063261013E+01 
    2.0046576023065892E+01 
    9.0778566257555422E+00 
    6.0340642941814879E+00 
    1.3217637517281410E+01 
    2.0294923515830821E+01 
    2.2416447154290754E+01 
    2.1386062239056422E+01 
    2.1758236468514973E+01 
    8.8456075117142667E+00 
    1.3389395598480453E+01 
    1.9532431018017871E+01 
    1.0161091388641287E+01 
    2.1047499731359199E+01 
    1.6748221118145022E+01 
    8.6895459781740580E+00 
    2.0175267286202264E+01 
    2.2869919211639733E+01 
    2.0630160521171298E+01 
    8.7257534339675988E+00 
    1.3322559256599151E+01 
    9.6454540688064121E+00 
    1.2515203518838529E+01 
    2.0039334475183388E+01 
    2.0019157176153438E+01 
    8.7775685051882633E+00 
    2.2084959466273038E+01 
    1.4187322760742145E+01 
    2.0168198716538779E+01 
    2.2581151533645109E+01 
    2.0098498706710092E+01 
    1.7989617286511994E+01 
    2.4914411069789587E+01 
    1.2332894197929685E+01 
    2.2255991705426581E+01 
    2.0178064433617653E+01 
    2.2503655408681915E+01 
    2.2020803800391711E+01 
    1.2484872078934620E+01 
    1.3069768121159825E+01 
    1.2363977725098566E+01 
    1.7033782030587844E+01 
    4.8822409354394312E+00 
    1.3613761727591717E+01 
    2.5152009265582372E+01 
    1.3650901931415358E+01 
    1.3971935838522167E+01 
    2.2437790227777761E+01 
    2.2998333475350361E+01 
    1.2287033882596335E+01 
    2.0063998711261618E+01 
    2.0024749507127957E+01 
    1.3950252753005607E+01 
    2.1882815425449429E+01 
    9.1526085071868515E+00 
    5.7997767018914681E+00 
    1.4438804831995936E+01 
    1.3670523515229513E+01 
    2.0001616398791839E+01 
    8.1699502412767728E+00 
    2.1185981940354601E+01 
    5.9139239520859013E+00 
    1.3575223802312074E+01 
    1.2611670374930288E+01 
    1.3289059786138592E+01 
    2.7396354890957127E+01 
    4.7354149828630838E+00 
    1.3468421737681000E+01 
    1.7149274410602864E+01 
    1.2713667604977919E+01 
    9.7324523776529190E+00 
    2.1501872535323415E+01 
    2.6587816282215297E+01 
    2.2155663751194012E+01 
    1.3369865007514182E+01 
    7.1090518920604264E+00 
    2.6428215395889879E+01 
    2.1108007301490026E+01 
    9.2844960574917401E+00 
    1.2695768153886435E+01 
    2.4059916295881727E+01 
    4.0138602084049015E+00 
    1.3759795565559934E+01 
    2.2297724422513657E+01 
    1.3308055612606708E+01 
    1.1461104887665336E+01 
    1.3538149057571337E+01 
    1.9712909628899119E+01 
    1.3281000573447713E+01 
    6.2916605176835487E+00 
    1.1483027556471952E+00 
    9.6423638412793533E+00 
    2.4557117251754701E+01 
    1.2361136394602429E+01 
    1.5729209583085490E+01 
    1.4841354966580482E+01 
    1.7855407266749417E+01 
    1.3327126746837235E+01 
    2.0872366546916066E+01 
    2.7417398064930133E+01 
    1.6491790481195977E+01 
    2.2186115200214768E+01 
    6.6960653882819909E-01 
    2.0019016743568166E+01 
    7.0139437986124653E+00 
    2.5463683300931947E+01 
    1.3492309298234060E+01 
    1.1653242973664922E+01 
    9.8511096218293925E+00 
    6.6280281050691325E+00 
    1.5242389208669417E+01 
    1.0262105596121875E+01 
    1.7389566130955366E+01 
    2.7912537429312123E+00 
    1.5012329426142125E+01 
    1.9854192670470241E+01 
    7.7571700312341170E+00 
    2.1105445827273062E+01 
    2.4651084445023773E+01 
    2.0899664657986165E+01 
    1.3270172055713092E+01 
    1.3281568105868631E+01 
    1.3479457055733315E+01 
    7.2083451748075058E+00 
    1.1935032282809633E+01 
    1.1692797956573935E+01 
    1.3460395565518144E+01 
    1.2263226512346810E+01 
    8.5870581728556383E-01 
    8.0878710463383321E+00 
    1.2890497073171126E+01 
    1.3418948201433373E+01 
    1.8047419376708412E+01 
    2.6219236838238920E+00 
    1.3880686259446561E+01 
    1.3682636861221729E+01 
    4.5508782279926541E+00 
    2.0508819562115011E+01 
    1.1243581037402924E+01 
    1.3474051400255275E+01 
    2.1054436249195739E+01 
    6.6479400172755492E+00 
    2.0722319249627802E+01 
    1.1380420888769653E+01 
    1.1801814009117253E+00 
    1.2459038975948101E+01 
    2.2357516122871051E+01 
    2.0031536987798887E+01 
    2.0080868791384088E+01 
    1.4085715000967344E+01 
    1.3579304863059523E+01 
    1.1197762790744651E+01 
    8.8278229941810960E+00 
    2.1259041411173527E+01 
    1.2689882558679486E+01 
    8.5896045461829615E+00 
    2.0060844772039331E+01 
    2.1931406729862395E+01 
    1.3759549026148720E+01 
    1.3000913101562112E+01 
    2.7224771314199991E+01 
    1.3951923877801578E+01 
    2.1414017937422184E+01 
    1.0574027575986506E+01 
    2.7453506210370225E+01 
    8.5109648776715989E+00 
    1.1887068166304230E+01 
    9.5807553189901604E+00 
    1.4353613622516454E+01 
    1.1111617251336419E+01 
    2.7430878627706957E+01 
    1.4035268967092460E+01 
    1.9693849490907606E+01 
    8.7556487709822655E+00 
    1.3322271488571477E+01 
    2.1039301117486801E+01 
    1.1150125561346789E+01 
    9.2066005198609755E+00 
    1.5522290552658113E+01 
    2.1040499616172927E+01 
    9.4529787065760118E+00 
    1.2641148784289745E+01 
    1.3046130480595245E+01 
    1.9974069543202180E+01 
    1.2753260201358524E+01 
    2.1660090747653104E+01 
    2.2595607361577510E+01 
    1.1227958860337891E+01 
    1.0979275755760440E+01 
    1.0329745594408513E+01 
    2.0251418221798758E+01 
    1.3694596244340596E+01 
    2.6660267479741346E+01 
    1.8275486616255421E+01 
    2.0912825903282226E+01 
    2.6196922147804525E+01 
    2.4667160361255824E+01 
    1.3388284629112611E+01 
    1.3435089859814541E+01 
    1.9453481813968903E+01 
    2.0089892496429606E+01 
    2.1633715558168952E+01 
    2.1141813967355429E+01 
    2.7263678095557008E+01 
    1.3951084318607990E+01 
    1.1393875968753843E+01 
    1.3892982725637639E+01 
    2.2301574824059305E+01 
    1.3527024431657077E+01 
    7.5641907451351900E+00 
    1.3243730931648892E+01 
    2.3976891111747626E+01 
    1.3742885724261612E+01 
    1.1391500877256654E+01 
    1.2958967548760103E+01 
    2.4244526235712257E+01 
    2.0600998751313377E+01 
    1.0748416660704711E+01 
    2.4514904116782706E+01 
    1.3430133661201509E+01 
    2.1894928618209295E+01 
    2.4223342946921196E+01 
    1.4469465279859472E+01 
    6.6615710325404320E+00 
    1.5267456473779207E+01 
    6.8991740232515859E+00 
    1.3599791842261249E+01 
    1.3310536218202111E+01 
    1.6397898703635175E+01 
    7.3153599151722091E+00 
    1.7837095643319003E+01 
    1.3339285247285988E+01 
    2.1127661673372575E+01 
    1.4638168864430554E+01 
    1.0462404005771829E+01 
    1.2772807937760962E+01 
    1.4355581659083615E+01 
    1.4130799567952808E+01 
    2.3186954373024694E+01 
    1.0802008002759491E+01 
    1.0593260279158674E+01 
    7.7175208332126104E+00 
    2.1767365532086245E+01 
    1.2834001626997896E+01 
    2.0130978069603309E+01 
    1.3268141744760550E+01 
    8.4943240584917952E+00 
    2.0629615903183186E+01 
    1.3232524250932272E+01 
    9.3293288325743404E+00 
    9.9355671760679591E+00 
    1.0321115080687655E+01 
    2.1174785436918558E+01 
    1.3463769956409500E+01 
    2.2216877768768132E+01 
    1.3172525860203992E+01 
    1.3082398673829207E+01 
    1.2504334540328674E+01 
    2.0807486813474142E+01 
    1.2961423301380927E+01 
    1.0372734349254623E+01 
    2.4685621601919824E+01 
    2.0973136298014378E+01 
    8.9272793263182955E+00 
    3.3108128092259581E+00 
    1.3445100686037101E+01 
    1.2375908358297263E+01 
    1.0967354281354146E+01 
    1.2190978397114334E+01 
    2.0402051525876757E+01 
    1.2965835804298569E+01 
    1.1500086819761195E+01 
    2.0136494466317906E+01 
    8.8473193287970631E+00 
    1.9388527629530614E+01 
    1.1929681448457680E+01 
    1.0291184335533364E+01 
    1.1094488795485503E+01 
    2.2116411735215266E+01 
    1.3293342028656062E+01 
    1.3304911981328516E+01 
    7.4335387727469966E+00 
    8.0817682625872589E+00 
    1.8321585293320936E+01 
    1.3318991321122985E+01 
    1.3514541818970432E+01 
    2.4518988377200941E+01 
    1.0599030062062697E+01 
    1.3336670784401047E+01 
    9.1750128598001446E+00 
    9.4900921246603467E+00 
    2.0731516169889243E+01 
    1.2798725223945102E+01 
    8.9716245096953742E+00 
    1.4108613513043752E+01 
    1.3154874177573495E+01 
    2.0764471051904110E+01 
    2.4711837220639385E+01 
    1.2473476798290919E+00 
    1.3453388546500317E+01 
    1.3668748862572526E+01 
    2.0942071477302036E+01 
    1.2576354572152985E+01 
    1.3255792837346073E+01 
    2.3154967046319889E+01 
    1.1130095505191719E+01 
    9.0566827906501111E+00 
    1.6842030401997711E+01 
    2.0054248855825470E+01 
    2.2447255875339334E+01 
    2.3764260796892927E+01 
    1.3188331176752596E+01 
    1.3439920337723283E+01 
    1.5328316067427046E+01 
    8.4606196440393795E+00 
    2.0293170697701420E+01 
    9.8116058930138390E+00 
    8.8300043261638184E+00 
    1.7698673785721841E+01 
    1.6321444439163333E+01 
    8.6503235084233800E+00 
    2.0121756546059594E+01 
    2.2420771253137367E+01 
    1.3978467117649910E+01 
    2.4927702791310612E+01 
    2.0181756371854544E+01 
    1.2720118936686367E+01 
    2.1709559331792949E+01 
    9.4885836424366836E+00 
    2.0076458858089332E+01 
    1.3452021060091722E+01 
    1.3382227081618531E+01 
    2.4899434621263349E+01 
    1.2884510742453305E+01 
    1.7202006862161806E+01 
    1.1061762012773343E+01 
    2.2857281472313062E+01 
    1.9876706943260608E+01 
    1.1611550881474166E+01 
    2.0038338729153359E+01 
    1.1922284021150057E+01 
    1.3269372460683236E+01 
    2.2298900321422870E+01 
    2.1048654103451465E+01 
    2.2427562481624570E+01 
    2.0943604653668938E+01 
    1.1963579272972945E+01 
    1.2335307468710136E+01 
    2.2464829534412470E+01 
    1.2532315039797840E+01 
    1.9676395121225809E+01 
    1.2867392923533469E+01 
    4.9322814149491716E+00 
    8.9332819680552280E+00 
    8.2551157657781733E+00 
    2.2314927093194768E+01 
    2.4736765800446001E+01 
    2.0056247059482381E+01 
    1.5908761710653263E+01 
    2.0623375720298014E+01 
    2.0126646953743936E+01 
    2.1442546758269419E+01 
    7.1575232723804012E+00 
    4.5812758982137689E+00 
    1.5523687831464269E+01 
    1.2842467188406832E+01 
    2.0421553313816272E+01 
    2.0418691285388118E+01 
    1.3697396698993478E+01 
    2.0490684878120852E+01 
    1.3430489696324205E+01 
    1.3240766246216548E+01 
    6.4296486567481823E+00 
    4.5544971400098415E+00 
    2.4233274003422043E+01 
    1.0132015625707481E+01 
    1.1519632333021077E+01 
    1.3545225980044028E+01 
    2.7234102620718101E+01 
    1.3683656450827115E+01 
    1.3933356612339304E+01 
    5.2503164948983185E+00 
    1.3683398388755071E+01 
    1.3704945170092200E+01 
    2.1137909556608083E+01 
    1.1107780067620476E+01 
    1.2661739309959328E+01 
    2.4602458678425894E+01 
    1.3467411176629525E+01 
    2.0080329764712047E+01 
    2.0590389572359982E+01 
    1.7313870014599068E+01 
    1.1104292513726389E+01 
    2.0934542996423129E+01 
    1.3102143461839781E+01 
    2.0489440006618146E+01 
    1.9941981554031834E+01 
    2.2368880097644098E+01 
    2.0960638240844290E+01 
    1.8575606954993006E+01 
    1.3448929411412395E+01 
    8.5869126278272034E+00 
    2.7029210843860735E+01 
    1.0034584145960059E+01 
    2.2852126748617192E+01 
    1.3444401898642020E+01 
    1.0686204081776888E+01 
    6.2296122818979622E+00 
    1.3761244886469008E+01 
    2.0914974953636282E+01 
    2.0883787508465630E+01 
    1.3241791936670568E+01 
    1.3434193940387003E+01 
    2.4970336438040409E+01 
    2.3602806017106708E+01 
    1.3714577510923935E+01 
    4.2635195551832590E+00 
    1.8409817587054516E+01 
    2.7420539946431351E+01 
    1.3454748490956311E+01 
    1.6581557528141218E+01 
    1.2569583663068366E+01 
    2.6784561104505123E+01 
    2.3752323653324794E+01 
    2.2886633248379216E+01 
    1.3749312447303129E+01 
    5.8405038385374439E+00 
    1.2501242030614153E+01 
    1.2612765077620045E+01 
    1.2695989704453087E+01 
    4.6772599440798519E+00 