# vtk DataFile Version 2.0
Pressure Field Data 
ASCII 
DATASET UNSTRUCTURED_GRID 

POINTS 2860 double 

    0.0000000000000000E+00     0.0000000000000000E+00     0.0000000000000000E+00 
    1.0000000000000000E+00     0.0000000000000000E+00     0.0000000000000000E+00 
    1.0000000000000000E+00     1.0000000000000000E+00     0.0000000000000000E+00 
    0.0000000000000000E+00     1.0000000000000000E+00     0.0000000000000000E+00 
    2.5000000000000000E-01     2.5000000000000000E-01     0.0000000000000000E+00 
    7.5000000000000000E-01     2.5000000000000000E-01     0.0000000000000000E+00 
    7.5000000000000000E-01     7.5000000000000000E-01     0.0000000000000000E+00 
    2.5000000000000000E-01     7.5000000000000000E-01     0.0000000000000000E+00 
    3.1249999999942091E-02     0.0000000000000000E+00     0.0000000000000000E+00 
    6.2499999999873469E-02     0.0000000000000000E+00     0.0000000000000000E+00 
    9.3749999999826514E-02     0.0000000000000000E+00     0.0000000000000000E+00 
    1.2499999999977961E-01     0.0000000000000000E+00     0.0000000000000000E+00 
    1.5624999999968961E-01     0.0000000000000000E+00     0.0000000000000000E+00 
    1.8749999999959971E-01     0.0000000000000000E+00     0.0000000000000000E+00 
    2.1874999999950970E-01     0.0000000000000000E+00     0.0000000000000000E+00 
    2.4999999999941969E-01     0.0000000000000000E+00     0.0000000000000000E+00 
    2.8124999999932920E-01     0.0000000000000000E+00     0.0000000000000000E+00 
    3.1249999999923850E-01     0.0000000000000000E+00     0.0000000000000000E+00 
    3.4374999999914790E-01     0.0000000000000000E+00     0.0000000000000000E+00 
    3.7499999999905720E-01     0.0000000000000000E+00     0.0000000000000000E+00 
    4.0624999999896660E-01     0.0000000000000000E+00     0.0000000000000000E+00 
    4.3749999999887590E-01     0.0000000000000000E+00     0.0000000000000000E+00 
    4.6874999999878530E-01     0.0000000000000000E+00     0.0000000000000000E+00 
    4.9999999999869471E-01     0.0000000000000000E+00     0.0000000000000000E+00 
    5.3124999999877620E-01     0.0000000000000000E+00     0.0000000000000000E+00 
    5.6249999999885780E-01     0.0000000000000000E+00     0.0000000000000000E+00 
    5.9374999999893940E-01     0.0000000000000000E+00     0.0000000000000000E+00 
    6.2499999999902101E-01     0.0000000000000000E+00     0.0000000000000000E+00 
    6.5624999999910261E-01     0.0000000000000000E+00     0.0000000000000000E+00 
    6.8749999999918421E-01     0.0000000000000000E+00     0.0000000000000000E+00 
    7.1874999999926570E-01     0.0000000000000000E+00     0.0000000000000000E+00 
    7.4999999999934730E-01     0.0000000000000000E+00     0.0000000000000000E+00 
    7.8124999999942890E-01     0.0000000000000000E+00     0.0000000000000000E+00 
    8.1249999999951039E-01     0.0000000000000000E+00     0.0000000000000000E+00 
    8.4374999999959199E-01     0.0000000000000000E+00     0.0000000000000000E+00 
    8.7499999999967359E-01     0.0000000000000000E+00     0.0000000000000000E+00 
    9.0624999999975520E-01     0.0000000000000000E+00     0.0000000000000000E+00 
    9.3749999999983680E-01     0.0000000000000000E+00     0.0000000000000000E+00 
    9.6874999999991840E-01     0.0000000000000000E+00     0.0000000000000000E+00 
    1.0000000000000000E+00     3.1249999999942091E-02     0.0000000000000000E+00 
    1.0000000000000000E+00     6.2499999999873469E-02     0.0000000000000000E+00 
    1.0000000000000000E+00     9.3749999999826514E-02     0.0000000000000000E+00 
    1.0000000000000000E+00     1.2499999999977961E-01     0.0000000000000000E+00 
    1.0000000000000000E+00     1.5624999999968961E-01     0.0000000000000000E+00 
    1.0000000000000000E+00     1.8749999999959971E-01     0.0000000000000000E+00 
    1.0000000000000000E+00     2.1874999999950970E-01     0.0000000000000000E+00 
    1.0000000000000000E+00     2.4999999999941969E-01     0.0000000000000000E+00 
    1.0000000000000000E+00     2.8124999999932920E-01     0.0000000000000000E+00 
    1.0000000000000000E+00     3.1249999999923850E-01     0.0000000000000000E+00 
    1.0000000000000000E+00     3.4374999999914790E-01     0.0000000000000000E+00 
    1.0000000000000000E+00     3.7499999999905720E-01     0.0000000000000000E+00 
    1.0000000000000000E+00     4.0624999999896660E-01     0.0000000000000000E+00 
    1.0000000000000000E+00     4.3749999999887590E-01     0.0000000000000000E+00 
    1.0000000000000000E+00     4.6874999999878530E-01     0.0000000000000000E+00 
    1.0000000000000000E+00     4.9999999999869471E-01     0.0000000000000000E+00 
    1.0000000000000000E+00     5.3124999999877620E-01     0.0000000000000000E+00 
    1.0000000000000000E+00     5.6249999999885780E-01     0.0000000000000000E+00 
    1.0000000000000000E+00     5.9374999999893940E-01     0.0000000000000000E+00 
    1.0000000000000000E+00     6.2499999999902101E-01     0.0000000000000000E+00 
    1.0000000000000000E+00     6.5624999999910261E-01     0.0000000000000000E+00 
    1.0000000000000000E+00     6.8749999999918421E-01     0.0000000000000000E+00 
    1.0000000000000000E+00     7.1874999999926570E-01     0.0000000000000000E+00 
    1.0000000000000000E+00     7.4999999999934730E-01     0.0000000000000000E+00 
    1.0000000000000000E+00     7.8124999999942890E-01     0.0000000000000000E+00 
    1.0000000000000000E+00     8.1249999999951039E-01     0.0000000000000000E+00 
    1.0000000000000000E+00     8.4374999999959199E-01     0.0000000000000000E+00 
    1.0000000000000000E+00     8.7499999999967359E-01     0.0000000000000000E+00 
    1.0000000000000000E+00     9.0624999999975520E-01     0.0000000000000000E+00 
    1.0000000000000000E+00     9.3749999999983680E-01     0.0000000000000000E+00 
    1.0000000000000000E+00     9.6874999999991840E-01     0.0000000000000000E+00 
    9.6875000000003686E-01     1.0000000000000000E+00     0.0000000000000000E+00 
    9.3750000000011691E-01     1.0000000000000000E+00     0.0000000000000000E+00 
    9.0625000000015765E-01     1.0000000000000000E+00     0.0000000000000000E+00 
    8.7500000000017863E-01     1.0000000000000000E+00     0.0000000000000000E+00 
    8.4375000000028044E-01     1.0000000000000000E+00     0.0000000000000000E+00 
    8.1250000000040856E-01     1.0000000000000000E+00     0.0000000000000000E+00 
    7.8125000000054956E-01     1.0000000000000000E+00     0.0000000000000000E+00 
    7.5000000000066480E-01     1.0000000000000000E+00     0.0000000000000000E+00 
    7.1875000000086831E-01     1.0000000000000000E+00     0.0000000000000000E+00 
    6.8750000000102829E-01     1.0000000000000000E+00     0.0000000000000000E+00 
    6.5625000000114431E-01     1.0000000000000000E+00     0.0000000000000000E+00 
    6.2500000000129829E-01     1.0000000000000000E+00     0.0000000000000000E+00 
    5.9375000000147926E-01     1.0000000000000000E+00     0.0000000000000000E+00 
    5.6250000000168354E-01     1.0000000000000000E+00     0.0000000000000000E+00 
    5.3125000000188671E-01     1.0000000000000000E+00     0.0000000000000000E+00 
    5.0000000000205835E-01     1.0000000000000000E+00     0.0000000000000000E+00 
    4.6875000000192979E-01     1.0000000000000000E+00     0.0000000000000000E+00 
    4.3750000000180111E-01     1.0000000000000000E+00     0.0000000000000000E+00 
    4.0625000000167238E-01     1.0000000000000000E+00     0.0000000000000000E+00 
    3.7500000000154382E-01     1.0000000000000000E+00     0.0000000000000000E+00 
    3.4375000000141509E-01     1.0000000000000000E+00     0.0000000000000000E+00 
    3.1250000000128642E-01     1.0000000000000000E+00     0.0000000000000000E+00 
    2.8125000000115769E-01     1.0000000000000000E+00     0.0000000000000000E+00 
    2.5000000000102918E-01     1.0000000000000000E+00     0.0000000000000000E+00 
    2.1875000000090050E-01     1.0000000000000000E+00     0.0000000000000000E+00 
    1.8750000000077180E-01     1.0000000000000000E+00     0.0000000000000000E+00 
    1.5625000000064329E-01     1.0000000000000000E+00     0.0000000000000000E+00 
    1.2500000000051459E-01     1.0000000000000000E+00     0.0000000000000000E+00 
    9.3750000000385914E-02     1.0000000000000000E+00     0.0000000000000000E+00 
    6.2500000000257239E-02     1.0000000000000000E+00     0.0000000000000000E+00 
    3.1250000000128557E-02     1.0000000000000000E+00     0.0000000000000000E+00 
    0.0000000000000000E+00     9.6875000000003686E-01     0.0000000000000000E+00 
    0.0000000000000000E+00     9.3750000000011691E-01     0.0000000000000000E+00 
    0.0000000000000000E+00     9.0625000000015765E-01     0.0000000000000000E+00 
    0.0000000000000000E+00     8.7500000000017863E-01     0.0000000000000000E+00 
    0.0000000000000000E+00     8.4375000000028044E-01     0.0000000000000000E+00 
    0.0000000000000000E+00     8.1250000000040856E-01     0.0000000000000000E+00 
    0.0000000000000000E+00     7.8125000000054956E-01     0.0000000000000000E+00 
    0.0000000000000000E+00     7.5000000000066480E-01     0.0000000000000000E+00 
    0.0000000000000000E+00     7.1875000000086831E-01     0.0000000000000000E+00 
    0.0000000000000000E+00     6.8750000000102829E-01     0.0000000000000000E+00 
    0.0000000000000000E+00     6.5625000000114431E-01     0.0000000000000000E+00 
    0.0000000000000000E+00     6.2500000000129829E-01     0.0000000000000000E+00 
    0.0000000000000000E+00     5.9375000000147926E-01     0.0000000000000000E+00 
    0.0000000000000000E+00     5.6250000000168354E-01     0.0000000000000000E+00 
    0.0000000000000000E+00     5.3125000000188671E-01     0.0000000000000000E+00 
    0.0000000000000000E+00     5.0000000000205835E-01     0.0000000000000000E+00 
    0.0000000000000000E+00     4.6875000000192979E-01     0.0000000000000000E+00 
    0.0000000000000000E+00     4.3750000000180111E-01     0.0000000000000000E+00 
    0.0000000000000000E+00     4.0625000000167238E-01     0.0000000000000000E+00 
[...]
CELL_DATA 2795 
SCALARS Pressure double 1 
LOOKUP_TABLE default 

    6.6965967800582735E+00 
    1.4599127801318742E+01 
    1.0332387595556117E+01 
    1.0023701710668970E+01 
    8.1114876682775616E+00 
    1.4459174860249812E+01 
    1.5186373062065455E+01 
    6.0336173482436868E+00 
    1.0891046905907608E+01 
    8.3176906389759022E+00 
    7.0951304826339650E+00 
    1.4203696059643633E+01 
    1.4515508010382696E+01 
    1.4428933275812222E+01 
    9.5077977368369506E+00 
    5.9416763494850580E+00 
    9.2894499580167693E+00 
    7.5505804433541224E+00 
    1.3842560568514948E+01 
    1.0318804415467522E+01 
    1.0213425402751040E+01 
    1.4363013169558688E+01 
    9.7633122189304835E+00 
    4.0268805427436566E-01 
    1.4236033626786803E+01 
    1.4479091152038562E+01 
    1.5217986949890424E+01 
    6.8589795347890608E+00 
    1.4124722480380060E+01 
    1.5203295155409018E+01 
    1.0472174566657007E+01 
    1.0533379333932700E+01 
    7.4543975020256878E+00 
    1.0294725008284470E+01 
    3.4627340798532762E+00 
    9.2919563392249032E+00 
    1.0282627354635986E+01 
    1.5242046725573417E+01 
    1.5163866113256258E+01 
    1.4216640962806638E+01 
    8.0737320052997692E+00 
    1.4202329967883818E+01 
    8.4170426477897564E-01 
    1.0265997335921918E+01 
    1.4989780471507322E+01 
    1.4795887867936090E+01 
    1.4193035669137515E+01 
    1.1246345364966297E+01 
    1.4263537518878548E+01 
    9.4872785122603016E+00 
    9.0736572556085040E+00 
    1.0498655000373466E+01 
    1.0161932488994477E+01 
    9.3433575104764426E+00 
    1.0543743609244808E+01 
    1.3633808801291584E+01 
    1.2190716765064227E+01 
    8.1535068984862686E+00 
    1.4367344732286679E+01 
    1.4291560036406201E+01 
    1.0030130642568592E+01 
    9.9346651591244672E+00 
    9.9298911127625598E+00 
    1.5107336133325244E+01 
    1.5370861090180364E+01 
    9.3021626307980831E+00 
    1.0497510278844134E+01 
    1.4095301245129603E+01 
    1.2072027931053144E+01 
    9.9775980251598639E+00 
    1.5375095045873691E+01 
    1.4337745523341617E+01 
    9.1810994832879427E+00 
    1.4909075398230577E+01 
    1.0777064986949767E+01 
    1.4092646195484464E+01 
    1.5259142585991363E+01 
    1.0826419880313193E+01 
    6.9190982876169329E+00 
    1.0515777802149485E+01 
    1.5172313142518604E+01 
    1.5394956251634683E+01 
    9.3131189570569610E+00 
    1.0435436414756699E+01 
    1.5443176136421741E+01 
    1.0283860390223582E+01 
    9.8465850729034479E+00 
    1.2497600514072806E+01 
    6.5904357745307918E+00 
    9.1007124762427427E+00 
    1.0434163062384677E+01 
    1.1053678153616415E+01 
    1.6874591653330146E+01 
    7.8963272864456924E+00 
    1.0505442520541834E+01 
    1.4171305871108725E+01 
    1.4467997688439292E+01 
    7.0213923718381031E+00 
    1.0151665318840571E+01 
    1.0465802057755889E+01 
    1.4487816903166054E+01 
    1.0463141262996174E+01 
    1.4422701219168985E+01 
    4.3653045744736261E+00 
    6.8965688796804852E+00 
    1.0724314500031944E+01 
    1.4606347249068396E+01 
    9.2592065515302160E+00 
    9.8187549439897648E+00 
    1.0445600537810723E+01 
    9.8194703013166329E+00 
    1.1814314650384931E+01 
    9.5668068661995136E+00 
    9.1882344277090215E+00 
    7.4204597060546984E+00 
    1.2331814599633999E+01 
    1.0536577384067281E+01 
    1.5022739044306558E+01 
    9.0368966436923301E+00 
    1.0007734291589221E+01 
    1.4321579323449157E+01 
    8.4819439284925409E+00 
    1.4758706871203081E+01 
    1.0359925214745253E+01 
    9.9395348096796763E+00 
    1.4469988890645482E+01 
    1.0528162265869980E+01 
    1.5268913899926099E+01 
    1.2513601071292669E+01 
    1.3477643611528782E+01 
    1.5234700761267270E+01 
    7.9107273749519029E+00 
    1.0752971468529674E+01 
    1.4467338028153561E+01 
    3.2695951322765433E+00 
    1.0521936990009328E+01 
    1.5201369103927995E+01 
    9.9687150861209819E+00 
    1.1485700644300531E+01 
    7.0366434425576800E+00 
    1.4169385573985858E+01 
    1.7348193701516120E+01 
    1.2986415593671964E+01 
    9.9662452595186366E+00 
    8.9979099684677877E+00 
    1.1181613759863122E+01 
    1.0376971125714038E+01 
    7.1726827926530277E+00 
    1.5228508627894621E+01 
    1.4507103772661990E+01 
    1.4173006328080348E+01 
    1.1053103515734184E+01 
    9.1568177699125535E+00 
    1.0210711995888973E+01 
    1.4939414810756769E+01 
    9.3868359660814118E+00 
    1.0439905334038283E+01 
    9.5406486766317613E+00 
    1.2054823671844719E+01 
    1.7336607121330218E+01 
    1.4164537250289435E+01 
    9.1427879319052412E+00 
    1.4658397034131461E+01 
    1.4566961641808417E+01 
    1.4644808959764783E+01 
    1.5636292776973526E+01 
    1.6168941253739092E+01 
    1.4796723530141055E+01 
    1.0489256506119352E+01 
    1.1367404623774956E+01 
    1.4629240957107957E+01 
    1.5038066995454557E+01 
    7.4715549277589535E+00 
    1.4192614970910849E+01 
    1.4904114163207291E+01 
    7.2836553107478093E+00 
    1.5555829794056930E+01 
    1.5536247459159211E+01 
    1.3911022225033300E+01 
    1.0826604135880460E+01 
    2.8297117849998275E+00 
    1.5200269158048348E+01 
    1.0664027488443573E+01 
    1.5321818790245489E+01 
    9.9040283646314062E+00 
    1.5039877277155689E+01 
    1.0399250323102072E+00 
    1.3489075524138348E+01 
    9.9786092103131523E+00 
    9.1182382285777841E+00 
    8.8991763559491979E+00 
    1.0328926620430188E+01 
    1.1455213435567273E+01 
    1.0846249789429187E+01 
    7.5457469351469602E+00 
    1.5028808322285560E+01 
    1.4488834528291818E+01 
    1.2199508998249717E+01 
    1.0719177317763954E+01 
    1.6636986615446445E+00 
    8.2541489960789143E+00 
    5.9014223158699464E+00 
    1.5214820416551575E+01 
    1.1652364364873289E+01 
    1.4529810628902389E+01 
    1.4554729394099109E+01 
    9.4685437596835165E+00 
    1.2199951901823082E+01 
    1.4168088629031164E+01 
    1.5521803391470923E+01 
    6.9814517876426736E+00 
    1.2894859264367215E+01 
    1.0862257951054843E+01 
    6.2815184812502833E+00 
    9.4544899426374496E+00 
    1.2817990545752682E+01 
    1.4516707485221826E+01 
    1.0382697293222636E+01 
    1.4623874226291324E+01 
    1.4396282448872727E+01 
    1.4345692821661920E+01 
    1.0216057764296485E+01 
    9.0435640278630647E+00 
    1.4181065669826022E+01 
    9.1761097754821250E+00 
    1.0468933241711245E+01 
    9.0122223997826545E+00 
    1.0389190946711363E+01 
    1.4564073962768049E+01 
    6.5137090532319952E+00 
    9.3700249328472349E+00 
    1.5133589355804743E+01 
    1.0227353081450079E+01 
    1.1549356764555215E+01 
    6.6803960476975766E+00 
    9.2321133957115684E+00 
    1.4375774275557275E+01 
    1.4678193632714150E+01 
    5.4791547382436088E+00 
    1.0235020521258582E+01 
    9.0590563067155401E+00 
    1.5940038958507769E+01 
    1.5405149168544517E+01 
    1.6195113254502186E+01 
    1.0255484192022088E+01 
    1.4536997068630598E+01 
    1.4123934974251283E+01 
    1.0124053168951594E+01 
    1.4173294440466345E+01 
    1.0719869299873874E+01 
    6.3728934941050150E+00 
    1.0561269460339687E+01 
    1.5118317332670726E+01 
    1.4170104155852043E+01 
    7.0706325697071408E+00 
    1.4199518448529220E+01 
    1.1474144990401879E+01 
    1.0503276437236515E+01 
    1.0043935498090448E+01 
    1.4037231393622541E+01 
    1.1019895149624087E+01 
    1.4186218180739221E+01 
    1.0201768139962997E+01 
    6.5871820479799155E+00 
    1.0542141738556941E+01 
    8.9078754335716646E+00 
    1.2994679266834872E+01 
    1.5318567654560033E+01 
    1.4179283374548520E+01 
    1.5194477578195873E+01 
    1.0173174559559138E+01 
    6.8909602848242901E+00 
    6.9810337305256125E+00 
    1.0687839974737571E+01 
    1.0443898217009666E+01 
    1.5956008502721684E+00 
    1.3678774599934632E+01 
    1.5669419453635314E+01 
    9.9155258527025421E+00 
    6.5951990892218726E+00 
    1.2040277910693284E+01 
    1.4198130621058585E+01 
    7.6744906930902479E+00 
    5.3323270761309303E+00 
    1.0422637380635470E+01 
    1.4276911007085202E+01 
    1.4935613324844914E+01 
    1.4832244882970304E+01 
    1.4680616099249239E+01 
    7.5400874960876916E+00 
    1.0495536748098443E+01 
    1.3760449857524236E+01 
    8.1666004157711320E+00 
    1.4502664531103559E+01 
    1.2449121458904802E+01 
    7.0736659185560242E+00 
    1.4306058081683680E+01 
    1.5220333573570446E+01 
    1.4347098059633410E+01 
    7.4044844805266852E+00 
    1.0493676231850902E+01 
    8.0884650494069437E+00 
    9.9007308430401366E+00 
    1.4189559162972257E+01 
    1.4177813477134936E+01 
    7.4452837974908039E+00 
    1.5077373810206019E+01 
    1.1034047168250041E+01 
    1.4210386592779537E+01 
    1.5048545902751572E+01 
    1.4198135097374587E+01 
    1.3230119640839510E+01 
    1.5992305902966422E+01 
    9.8767739239483525E+00 
    1.5163818972752589E+01 
    1.4237690632610823E+01 
    1.5236284882797198E+01 
    1.5070107105781895E+01 
    9.9718458732673625E+00 
    1.0323274520595751E+01 
    9.9060212402251491E+00 
    1.2729201443023792E+01 
    4.3748783654641024E+00 
    1.0623953088358109E+01 
    1.6116356954626628E+01 
    1.0720204123559805E+01 
    1.0909031892321471E+01 
    1.5209112175998239E+01 
    1.5442616643821676E+01 
    9.8184447874488434E+00 
    1.4203874827639773E+01 
    1.4174173005877861E+01 
    1.0896497496904715E+01 
    1.5025062853445190E+01 
    7.4304703425014438E+00 
    4.7881624209449853E+00 
    1.1180246982540554E+01 
    1.0734722862157113E+01 
    1.4179647109054615E+01 
    7.0006763416558888E+00 
    1.4748028685382419E+01 
    4.8984510268250405E+00 
    1.0668935697003164E+01 
    1.0018257581579395E+01 
    1.0470409040979314E+01 
    1.7385671901394868E+01 
    4.2528329171695223E+00 
    1.0540020875345906E+01 
    1.2527312366087941E+01 
    1.0074582811107106E+01 
    8.2086402847480908E+00 
    1.4855305931574268E+01 
    1.6966063071428437E+01 
    1.5009933197640008E+01 
    1.0480718386017751E+01 
    6.2360657453942823E+00 
    1.6813666476073482E+01 
    1.4480676462371358E+01 
    7.9001354194891729E+00 
    1.0112315187274961E+01 
    1.5619310157948705E+01 
    3.6122824595644487E+00 
    1.0785253644856333E+01 
    1.4979263688932422E+01 
    1.0484243508199070E+01 
    9.1244020249624498E+00 
    1.0580398955043734E+01 
    1.3989579588977852E+01 
    1.0465661751389748E+01 
    5.5682381063660662E+00 
    1.0274694805999642E+00 
    7.7978838552872611E+00 
    1.5837282893638296E+01 
    9.9043700845929177E+00 
    1.1842341698707060E+01 
    1.1331383775787554E+01 
    1.3112687024893411E+01 
    1.0497690976572388E+01 
    1.4393083178232922E+01 
    1.7399551994763890E+01 
    1.2408159314960729E+01 
    1.5135932232972324E+01 
    6.0006480606866064E-01 
    1.4179782678042022E+01 
    6.1675369683270116E+00 
    1.6281375501380957E+01 
    1.0553848719028196E+01 
    9.2840915906143806E+00 
    8.2378242591793249E+00 
    5.8225154657984595E+00 
    1.1711107563324461E+01 
    8.2558789702528017E+00 
    1.2888664192530868E+01 
    2.3937399023518151E+00 
    1.1509794475565446E+01 
    1.4111535243826033E+01 
    6.3401855847700510E+00 
    1.4657168100437751E+01 
    1.6100131706569918E+01 
    1.4495884721111747E+01 
    1.0420202891023949E+01 
    1.0464945720887115E+01 
    1.0546448286631925E+01 
    6.2827928223183660E+00 
    9.6425189872204395E+00 
    9.4961084670014593E+00 
    1.0535343092098177E+01 
    9.8420957342146114E+00 
    7.6988380968277559E-01 
    7.0561165701843480E+00 
    1.0233330705434819E+01 
    1.0510452139758275E+01 
    1.3237244148366246E+01 
    2.3622631928174034E+00 
    1.0855907893212921E+01 
    1.0739708765661685E+01 
    4.0930526684926445E+00 
    1.4360727548001412E+01 
    9.1927142270948679E+00 
    1.0598875860743743E+01 
    1.4479943100261359E+01 
    5.8497712229364707E+00 
    1.4474833908344669E+01 
    9.3013427312501005E+00 
    1.0728322070864478E+00 
    9.9645498751577541E+00 
    1.5089575618129645E+01 
    1.4179835291089447E+01 
    1.4199165897793764E+01 
    1.0896082910404873E+01 
    1.0672152525704107E+01 
    9.1741533742376031E+00 
    7.5984886434385919E+00 
    1.4588643907720156E+01 
    1.0108508603392643E+01 
    7.3950672375272015E+00 
    1.4194039115646351E+01 
    1.4890849167197288E+01 
    1.0710801069759450E+01 
    1.0275032879409439E+01 
    1.7282405277674819E+01 
    1.0897396992514155E+01 
    1.4602884031386738E+01 
    8.7537364024839377E+00 
    1.7427466833338880E+01 
    6.9400587484188092E+00 
    9.5692698722725762E+00 
    7.7391051118556833E+00 
    1.1129775504799776E+01 
    8.8956120575552706E+00 
    1.7411353188022389E+01 
    1.0945700777974388E+01 
    1.3924926561799825E+01 
    7.1326286336142211E+00 
    1.0493625005249269E+01 
    1.4446138187273402E+01 
    8.9028498075378284E+00 
    7.8425062104128331E+00 
    1.1678150770820942E+01 
    1.4664991373075139E+01 
    7.6426249483474278E+00 
    1.0037994842173113E+01 
    1.0307107075979152E+01 
    1.4155292158812463E+01 
    1.0099325400418513E+01 
    1.4642286684600718E+01 
    1.5265189177597525E+01 
    9.1999648780058223E+00 
    9.0321327233285942E+00 
    8.2902306613034504E+00 
    1.4300425770106344E+01 
    1.0760898581734564E+01 
    1.7001590504692757E+01 
    1.3358855463650270E+01 
    1.4408357950125806E+01 
    1.6690299624388903E+01 
    1.6101372587270724E+01 
    1.0540124777648666E+01 
    1.0520246816565281E+01 
    1.3937412903040489E+01 
    1.4217668634229407E+01 
    1.4760633208819860E+01 
    1.4502056613255968E+01 
    1.7303187245247862E+01 
    1.0896925351884692E+01 
    9.2992035308831031E+00 
    1.0904289490501561E+01 
    1.5178323051917175E+01 
    1.0636373848567370E+01 
    6.2490488450524069E+00 
    1.0404263649987817E+01 
    1.5590642722188512E+01 
    1.0775684680083678E+01 
    9.3037104144577114E+00 
    1.0247736476705226E+01 
    1.5698133500901395E+01 
    1.4250593123727970E+01 
    8.8896988691834071E+00 
    1.5835240266154676E+01 
    1.0569029306531414E+01 
    1.4746259853181339E+01 
    1.5712982570948723E+01 
    1.1155582720146212E+01 
    5.8648573615176947E+00 
    1.1651814816209642E+01 
    6.0578643912968584E+00 
    1.0687258602605796E+01 
    1.0486799671292156E+01 
    1.2259551681996749E+01 
    6.3829638519469452E+00 
    1.2976620279870955E+01 
    1.0505818647315966E+01 
    1.4491708697181435E+01 
    1.1170940106509470E+01 
    8.7260548515644025E+00 
    1.0117691832594621E+01 
    1.1053191063207459E+01 
    1.1001760667955784E+01 
    1.5312461190394773E+01 
    8.9188453703363955E+00 
    8.7729645091091548E+00 
    6.6855528825664736E+00 
    1.4785060544182100E+01 
    1.0160729587811812E+01 
    1.4061385922878763E+01 
    1.0456698498627887E+01 
    7.2658084837735410E+00 
    1.4287686012316115E+01 
    1.0432352595293073E+01 
    7.8718951469401874E+00 
    8.3027157517565975E+00 
    8.5743660478607726E+00 
    1.4522998384324152E+01 
    1.0537336052319819E+01 
    1.5147380128207946E+01 
    1.0391355726488039E+01 
    1.0329439701311307E+01 
    9.9569816507431064E+00 
    1.4366596458092218E+01 
    1.0245106652425864E+01 
    8.6145407371013523E+00 
    1.6088377800398426E+01 
    1.4445234969435155E+01 
    7.2616039775992816E+00 
    2.9989509802434897E+00 
    1.0526619226852400E+01 
    9.8313753352619280E+00 
    9.0297768306626160E+00 
    9.7639960454967003E+00 
    1.4384414572545296E+01 
    1.0237828903565143E+01 
    9.3479696062383226E+00 
    1.4239923662146291E+01 
    7.1980433754365754E+00 
    1.3899192225436938E+01 
    9.4854441195399701E+00 
    8.5884062353432213E+00 
    9.1086014151882733E+00 
    1.4830325293402264E+01 
    1.0473264286398502E+01 
    1.0481436916742247E+01 
    6.4490663240221027E+00 
    6.9319639227237868E+00 
    1.3312289700527282E+01 
    1.0491266730096660E+01 
    1.0567050705062064E+01 
    1.5818944670178428E+01 
    8.7707605557967909E+00 
    1.0503570546039523E+01 
    7.4457880703519779E+00 
    7.6845571843094564E+00 
    1.4363655430325224E+01 
    1.0128498717020236E+01 
    7.5918847730733861E+00 
    1.1061772398120675E+01 
    1.0381196344350583E+01 
    1.4365862362385556E+01 
    1.5910859311627240E+01 
    1.1478921389994448E+00 
    1.0531517490821539E+01 
    1.0732826163270468E+01 
    1.4424700037392007E+01 
    1.0034721904523435E+01 
    1.0446694255819757E+01 
    1.5367595659477253E+01 
    9.1394791525411208E+00 
    7.6566162160164506E+00 
    1.2571513267499466E+01 
    1.4193645797248752E+01 
    1.5236047779790004E+01 
    1.5494394410790305E+01 
    1.0374428857625857E+01 
    1.0523236644050979E+01 
    1.1771672647147364E+01 
    6.9176149657759876E+00 
    1.4322021922282016E+01 
    8.2086454886767193E+00 
    7.1885070083919276E+00 
    1.3073288548711233E+01 
    1.2350868913717662E+01 
    7.0554937784850029E+00 
    1.4230050842211430E+01 
    1.5221432364353547E+01 
    1.0912806863568521E+01 
    1.6010909600713834E+01 
    1.4263710682753228E+01 
    1.0106658876977196E+01 
    1.4957691703655138E+01 
    7.6864656496950881E+00 
    1.4212131803589122E+01 
    1.0530553150613033E+01 
    1.0491015097605242E+01 
    1.5986568076684094E+01 
    1.0196819069672621E+01 
    1.2833421336057739E+01 
    9.0875755595785090E+00 
    1.5338287724492627E+01 
    1.4118259145208965E+01 
    9.4492043964760253E+00 
    1.4169203880458660E+01 
    9.4709171725222863E+00 
    1.0455481197803037E+01 
    1.5180573346275311E+01 
    1.4498899032755711E+01 
    1.5224750452994336E+01 
    1.4428484443711495E+01 
    9.6546146442956626E+00 
    9.8706197109977474E+00 
    1.5231406929250594E+01 
    9.9920756395775836E+00 
    1.4045022718022448E+01 
    1.0183284043696373E+01 
    4.4109105334117791E+00 
    7.2573106522257387E+00 
    6.7362692882312780E+00 
    1.5183961200054220E+01 
    1.5916745334988761E+01 
    1.4187556807248594E+01 
    1.2033079379969539E+01 
    1.4483780572182926E+01 
    1.4237025567512527E+01 
    1.4829263211006204E+01 
    6.2489300292786734E+00 
    4.1115936356988074E+00 
    1.1817444483303918E+01 
    1.0192297789992946E+01 
    1.4386280417234229E+01 
    1.4383762748402885E+01 
    1.0760946431748572E+01 
    1.4421274037671585E+01 
    1.0517607573050206E+01 
    1.0422932456674136E+01 
    5.6699046917881057E+00 
    4.0983237401478405E+00 
    1.5693762510906140E+01 
    8.1700061405725428E+00 
    9.3869994303304196E+00 
    1.0648414255842054E+01 
    1.7283831218916838E+01 
    1.0742261667934597E+01 
    1.0823379232242329E+01 
    4.6394310681710005E+00 
    1.0743736586880875E+01 
    1.0758658530283885E+01 
    1.4703617869164882E+01 
    9.1139997597136979E+00 
    1.0022412118463038E+01 
    1.5861867585724786E+01 
    1.0539820945480763E+01 
    1.4203727464718311E+01 
    1.4447024442821702E+01 
    1.2816321198628804E+01 
    8.8925836246255976E+00 
    1.4428652397324422E+01 
    1.0331906339592473E+01 
    1.4377229458795778E+01 
    1.4141578011699295E+01 
    1.5203446412445647E+01 
    1.4424050233720044E+01 
    1.3526709289393629E+01 
    1.0528672064677954E+01 
    6.9965715056404783E+00 
    1.7159663598000606E+01 
    8.3708275013624522E+00 
    1.5123310092216620E+01 
    1.0526063081841398E+01 
    8.8220948978992375E+00 
    5.3597012647919877E+00 
    1.0797294328011951E+01 
    1.4415026805783732E+01 
    1.4413001112943149E+01 
    1.0436045706858167E+01 
    1.0520188591219595E+01 
    1.6068601267309823E+01 
    1.5438238646942311E+01 
    1.0760909008068868E+01 
    3.8226445769310442E+00 
    1.3462707151727072E+01 
    1.7409248546505264E+01 
    1.0532013987363101E+01 
    1.2412292581624749E+01 
    1.0032240362314552E+01 
    1.7020039293984819E+01 
    1.5519352298696381E+01 
    1.5266584511107332E+01 
    1.0782673195757686E+01 
    4.9632513278115082E+00 
    9.9912655047370968E+00 
    1.0056702624615230E+01 
    1.0101022809369393E+01 
    4.1537442326723024E+00 