# vtk DataFile Version 2.0
Pressure Field Data 
ASCII 
DATASET UNSTRUCTURED_GRID 

POINTS 2860 double 

    0.0000000000000000E+00     0.0000000000000000E+00     0.0000000000000000E+00 
    1.0000000000000000E+00     0.0000000000000000E+00     0.0000000000000000E+00 
    1.0000000000000000E+00     1.0000000000000000E+00     0.0000000000000000E+00 
    0.0000000000000000E+00     1.0000000000000000E+00     0.0000000000000000E+00 
    2.5000000000000000E-01     2.5000000000000000E-01     0.0000000000000000E+00 
    7.5000000000000000E-01     2.5000000000000000E-01     0.0000000000000000E+00 
    7.5000000000000000E-01     7.5000000000000000E-01     0.0000000000000000E+00 
    2.5000000000000000E-01     7.5000000000000000E-01     0.0000000000000000E+00 
    3.1249999999942091E-02     0.0000000000000000E+00     0.0000000000000000E+00 
    6.2499999999873469E-02     0.0000000000000000E+00     0.0000000000000000E+00 
    9.3749999999826514E-02     0.0000000000000000E+00     0.0000000000000000E+00 
    1.2499999999977961E-01     0.0000000000000000E+00     0.0000000000000000E+00 
    1.5624999999968961E-01     0.0000000000000000E+00     0.0000000000000000E+00 
    1.8749999999959971E-01     0.0000000000000000E+00     0.0000000000000000E+00 
    2.1874999999950970E-01     0.0000000000000000E+00     0.0000000000000000E+00 
    2.4999999999941969E-01     0.0000000000000000E+00     0.0000000000000000E+00 
    2.8124999999932920E-01     0.0000000000000000E+00     0.0000000000000000E+00 
    3.1249999999923850E-01     0.0000000000000000E+00     0.0000000000000000E+00 
    3.4374999999914790E-01     0.0000000000000000E+00     0.0000000000000000E+00 
    3.7499999999905720E-01     0.0000000000000000E+00     0.0000000000000000E+00 
    4.0624999999896660E-01     0.0000000000000000E+00     0.0000000000000000E+00 
    4.3749999999887590E-01     0.0000000000000000E+00     0.0000000000000000E+00 
    4.6874999999878530E-01     0.0000000000000000E+00     0.0000000000000000E+00 
    4.9999999999869471E-01     0.0000000000000000E+00     0.0000000000000000E+00 
    5.3124999999877620E-01     0.0000000000000000E+00     0.0000000000000000E+00 
    5.6249999999885780E-01     0.0000000000000000E+00     0.0000000000000000E+00 
    5.9374999999893940E-01     0.0000000000000000E+00     0.0000000000000000E+00 
    6.2499999999902101E-01     0.0000000000000000E+00     0.0000000000000000E+00 
    6.5624999999910261E-01     0.0000000000000000E+00     0.0000000000000000E+00 
    6.8749999999918421E-01     0.0000000000000000E+00     0.0000000000000000E+00 
    7.1874999999926570E-01     0.0000000000000000E+00     0.0000000000000000E+00 
    7.4999999999934730E-01     0.0000000000000000E+00     0.0000000000000000E+00 
    7.8124999999942890E-01     0.0000000000000000E+00     0.0000000000000000E+00 
    8.1249999999951039E-01     0.0000000000000000E+00     0.0000000000000000E+00 
    8.4374999999959199E-01     0.0000000000000000E+00     0.0000000000000000E+00 
    8.7499999999967359E-01     0.0000000000000000E+00     0.0000000000000000E+00 
    9.0624999999975520E-01     0.0000000000000000E+00     0.0000000000000000E+00 
    9.3749999999983680E-01     0.0000000000000000E+00     0.0000000000000000E+00 
    9.6874999999991840E-01     0.0000000000000000E+00     0.0000000000000000E+00 
    1.0000000000000000E+00     3.1249999999942091E-02     0.0000000000000000E+00 
    1.0000000000000000E+00     6.2499999999873469E-02     0.0000000000000000E+00 
    1.0000000000000000E+00     9.3749999999826514E-02     0.0000000000000000E+00 
    1.0000000000000000E+00     1.2499999999977961E-01     0.0000000000000000E+00 
    1.0000000000000000E+00     1.5624999999968961E-01     0.0000000000000000E+00 
    1.0000000000000000E+00     1.8749999999959971E-01     0.0000000000000000E+00 
    1.0000000000000000E+00     2.1874999999950970E-01     0.0000000000000000E+00 
    1.0000000000000000E+00     2.4999999999941969E-01     0.0000000000000000E+00 
    1.0000000000000000E+00     2.8124999999932920E-01     0.0000000000000000E+00 
    1.0000000000000000E+00     3.1249999999923850E-01     0.0000000000000000E+00 
    1.0000000000000000E+00     3.4374999999914790E-01     0.0000000000000000E+00 
    1.0000000000000000E+00     3.7499999999905720E-01     0.0000000000000000E+00 
    1.0000000000000000E+00     4.0624999999896660E-01     0.0000000000000000E+00 
    1.0000000000000000E+00     4.3749999999887590E-01     0.0000000000000000E+00 
    1.0000000000000000E+00     4.6874999999878530E-01     0.0000000000000000E+00 
    1.0000000000000000E+00     4.9999999999869471E-01     0.0000000000000000E+00 
    1.0000000000000000E+00     5.3124999999877620E-01     0.0000000000000000E+00 
    1.0000000000000000E+00     5.6249999999885780E-01     0.0000000000000000E+00 
    1.0000000000000000E+00     5.9374999999893940E-01     0.0000000000000000E+00 
    1.0000000000000000E+00     6.2499999999902101E-01     0.0000000000000000E+00 
    1.0000000000000000E+00     6.5624999999910261E-01     0.0000000000000000E+00 
    1.0000000000000000E+00     6.8749999999918421E-01     0.0000000000000000E+00 
    1.0000000000000000E+00     7.1874999999926570E-01     0.0000000000000000E+00 
    1.0000000000000000E+00     7.4999999999934730E-01     0.0000000000000000E+00 
    1.0000000000000000E+00     7.8124999999942890E-01     0.0000000000000000E+00 
    1.0000000000000000E+00     8.1249999999951039E-01     0.0000000000000000E+00 
    1.0000000000000000E+00     8.4374999999959199E-01     0.0000000000000000E+00 
    1.0000000000000000E+00     8.7499999999967359E-01     0.0000000000000000E+00 
    1.0000000000000000E+00     9.0624999999975520E-01     0.0000000000000000E+00 
    1.0000000000000000E+00     9.3749999999983680E-01     0.0000000000000000E+00 
    1.0000000000000000E+00     9.6874999999991840E-01     0.0000000000000000E+00 
    9.6875000000003686E-01     1.0000000000000000E+00     0.0000000000000000E+00 
    9.3750000000011691E-01     1.0000000000000000E+00     0.0000000000000000E+00 
    9.0625000000015765E-01     1.0000000000000000E+00     0.0000000000000000E+00 
    8.7500000000017863E-01     1.0000000000000000E+00     0.0000000000000000E+00 
    8.4375000000028044E-01     1.0000000000000000E+00     0.0000000000000000E+00 
    8.1250000000040856E-01     1.0000000000000000E+00     0.0000000000000000E+00 
    7.8125000000054956E-01     1.0000000000000000E+00     0.0000000000000000E+00 
    7.5000000000066480E-01     1.0000000000000000E+00     0.0000000000000000E+00 
    7.1875000000086831E-01     1.0000000000000000E+00     0.0000000000000000E+00 
    6.8750000000102829E-01     1.0000000000000000E+00     0.0000000000000000E+00 
    6.5625000000114431E-01     1.0000000000000000E+00     0.0000000000000000E+00 
    6.2500000000129829E-01     1.0000000000000000E+00     0.0000000000000000E+00 
    5.9375000000147926E-01     1.0000000000000000E+00     0.0000000000000000E+00 
    5.6250000000168354E-01     1.0000000000000000E+00     0.0000000000000000E+00 
    5.3125000000188671E-01     1.0000000000000000E+00     0.0000000000000000E+00 
    5.0000000000205835E-01     1.0000000000000000E+00     0.0000000000000000E+00 
    4.6875000000192979E-01     1.0000000000000000E+00     0.0000000000000000E+00 
    4.3750000000180111E-01     1.0000000000000000E+00     0.0000000000000000E+00 
    4.0625000000167238E-01     1.0000000000000000E+00     0.0000000000000000E+00 
    3.7500000000154382E-01     1.0000000000000000E+00     0.0000000000000000E+00 
    3.4375000000141509E-01     1.0000000000000000E+00     0.0000000000000000E+00 
    3.1250000000128642E-01     1.0000000000000000E+00     0.0000000000000000E+00 
    2.8125000000115769E-01     1.0000000000000000E+00     0.0000000000000000E+00 
    2.5000000000102918E-01     1.0000000000000000E+00     0.0000000000000000E+00 
    2.1875000000090050E-01     1.0000000000000000E+00     0.0000000000000000E+00 
    1.8750000000077180E-01     1.0000000000000000E+00     0.0000000000000000E+00 
    1.5625000000064329E-01     1.0000000000000000E+00     0.0000000000000000E+00 
    1.2500000000051459E-01     1.0000000000000000E+00     0.0000000000000000E+00 
    9.3750000000385914E-02     1.0000000000000000E+00     0.0000000000000000E+00 
    6.2500000000257239E-02     1.0000000000000000E+00     0.0000000000000000E+00 
    3.1250000000128557E-02     1.0000000000000000E+00     0.0000000000000000E+00 
    0.0000000000000000E+00     9.6875000000003686E-01     0.0000000000000000E+00 
    0.0000000000000000E+00     9.3750000000011691E-01     0.0000000000000000E+00 
    0.0000000000000000E+00     9.0625000000015765E-01     0.0000000000000000E+00 
    0.0000000000000000E+00     8.7500000000017863E-01     0.0000000000000000E+00 
    0.0000000000000000E+00     8.4375000000028044E-01     0.0000000000000000E+00 
    0.0000000000000000E+00     8.1250000000040856E-01     0.0000000000000000E+00 
    0.0000000000000000E+00     7.8125000000054956E-01     0.0000000000000000E+00 
    0.0000000000000000E+00     7.5000000000066480E-01     0.0000000000000000E+00 
    0.0000000000000000E+00     7.1875000000086831E-01     0.0000000000000000E+00 
    0.0000000000000000E+00     6.8750000000102829E-01     0.0000000000000000E+00 
    0.0000000000000000E+00     6.5625000000114431E-01     0.0000000000000000E+00 
    0.0000000000000000E+00     6.2500000000129829E-01     0.0000000000000000E+00 
    0.0000000000000000E+00     5.9375000000147926E-01     0.0000000000000000E+00 
    0.0000000000000000E+00     5.6250000000168354E-01     0.0000000000000000E+00 
    0.0000000000000000E+00     5.3125000000188671E-01     0.0000000000000000E+00 
    0.0000000000000000E+00     5.0000000000205835E-01     0.0000000000000000E+00 
    0.0000000000000000E+00     4.6875000000192979E-01     0.0000000000000000E+00 
    0.0000000000000000E+00     4.3750000000180111E-01     0.0000000000000000E+00 
    0.0000000000000000E+00     4.0625000000167238E-01     0.0000000000000000E+00 
[...]
CELL_DATA 2795 
SCALARS Pressure double 1 
LOOKUP_TABLE default 

    5.3581059204691259E+00 
    1.2076357392824757E+01 
    8.5244590161885050E+00 
    8.1715888144838864E+00 
    6.5435572379558877E+00 
    1.1973556538688310E+01 
    1.2606065564274276E+01 
    4.7985043220425734E+00 
    9.0158343511907102E+00 
    6.8630797628868212E+00 
    5.8351814745959727E+00 
    1.1755841028962784E+01 
    1.1992028498864235E+01 
    1.1946903490172458E+01 
    7.8311015935295014E+00 
    4.7169418469222562E+00 
    7.5311135630912052E+00 
    6.2183038083357145E+00 
    1.1448453852100101E+01 
    8.5209299203303619E+00 
    8.4084028833423616E+00 
    1.1891343030048276E+01 
    7.9448723801838881E+00 
    3.2493492208602431E-01 
    1.1736896486191297E+01 
    1.1969322916375075E+01 
    1.2634634533099195E+01 
    5.6114912595170576E+00 
    1.1688067736745849E+01 
    1.2621236361272542E+01 
    8.6299100357419452E+00 
    8.7507442776745936E+00 
    6.0238389083469777E+00 
    8.4859696292514393E+00 
    2.7850907374296172E+00 
    7.5332900747410054E+00 
    8.4780843855287511E+00 
    1.2656327709256990E+01 
    1.2586994538821674E+01 
    1.1767099473789205E+01 
    6.4882953855119698E+00 
    1.1717113108257870E+01 
    6.7358458176993130E-01 
    8.3903766295291753E+00 
    1.2419120812065517E+01 
    1.2277050432159754E+01 
    1.1746648570253654E+01 
    9.3228737234748174E+00 
    1.1808434228087457E+01 
    7.6999951072682462E+00 
    7.3451632075460749E+00 
    8.7156987968105977E+00 
    8.2828603206038238E+00 
    7.5755036834935776E+00 
    8.7038878008117155E+00 
    1.1270914858377386E+01 
    1.0181640511190235E+01 
    6.5778280109244305E+00 
    1.1894523535851588E+01 
    1.1830497612540158E+01 
    8.2174642564495617E+00 
    8.1824796081049769E+00 
    8.0887465667795784E+00 
    1.2535380825462823E+01 
    1.2763994626173345E+01 
    7.5412155314392884E+00 
    8.7137508822654866E+00 
    1.1675370325824055E+01 
    9.9887441449184546E+00 
    8.2131227279660184E+00 
    1.2776945852719804E+01 
    1.1832819699588230E+01 
    7.4361815044126081E+00 
    1.2359749222761879E+01 
    8.9391035961308614E+00 
    1.1610051437011760E+01 
    1.2669531989033349E+01 
    8.8238315906258595E+00 
    5.4182159488804462E+00 
    8.7301346755911151E+00 
    1.2593776432552174E+01 
    1.2794290658001435E+01 
    7.5574210526294348E+00 
    8.6455620797411061E+00 
    1.2836311641734888E+01 
    8.4840406345191752E+00 
    8.0176156726949888E+00 
    1.0337171569307282E+01 
    5.1990534872204872E+00 
    7.3669363383237965E+00 
    8.6468872443889087E+00 
    9.1355633878857461E+00 
    1.4174912151499221E+01 
    6.3630242192471114E+00 
    8.7208172184763129E+00 
    1.1728119827953607E+01 
    1.1949440721876526E+01 
    5.6207263212668996E+00 
    8.3563594044639444E+00 
    8.6752231642111273E+00 
    1.1967527557716062E+01 
    8.6809207053074484E+00 
    1.1908255820747337E+01 
    3.4479781399200111E+00 
    5.6705258100197096E+00 
    8.9128465276254403E+00 
    1.2084066518035584E+01 
    7.5037773069782574E+00 
    8.0335963435170310E+00 
    8.6670172945946788E+00 
    7.9946335042827270E+00 
    9.8674430149382246E+00 
    7.8063311275977725E+00 
    7.4429367620196221E+00 
    5.8997565707659305E+00 
    1.0096118945301148E+01 
    8.7523293780172207E+00 
    1.2458735703851188E+01 
    7.4717891838930184E+00 
    8.1615376106120117E+00 
    1.1822906344056587E+01 
    6.8413611187982166E+00 
    1.2215786227778649E+01 
    8.5645805054369823E+00 
    8.0979722876901352E+00 
    1.1951538668561415E+01 
    8.7416777847790943E+00 
    1.2679290581135549E+01 
    1.0347391621597271E+01 
    1.1143664175749437E+01 
    1.2649520845081398E+01 
    6.3751014011153222E+00 
    8.9288899992134549E+00 
    1.1954167230506496E+01 
    2.5896503444799364E+00 
    8.6818800760495609E+00 
    1.2620149333936606E+01 
    8.1272799649288707E+00 
    9.3748991162348307E+00 
    5.5635919064806441E+00 
    1.1727805531272095E+01 
    1.4632418023336843E+01 
    1.0740568320263309E+01 
    8.1212886503769521E+00 
    7.2817138410887878E+00 
    9.3462519639636543E+00 
    8.5810171345960651E+00 
    5.8980620886119288E+00 
    1.2643134162461550E+01 
    1.2055167845775051E+01 
    1.1729682545762749E+01 
    9.1471924863520329E+00 
    7.4164310734516876E+00 
    8.4072370204291378E+00 
    1.2382939674782634E+01 
    7.6141895705128997E+00 
    8.5201787698416389E+00 
    7.7496526505932382E+00 
    9.8903703553249329E+00 
    1.4621309753509896E+01 
    1.1722137168822817E+01 
    7.3725233260922547E+00 
    1.2119067908288931E+01 
    1.2048043105847469E+01 
    1.2118482109161285E+01 
    1.3011843848005826E+01 
    1.3506081004403137E+01 
    1.2271520765526034E+01 
    8.7062626219648251E+00 
    9.2686498908581889E+00 
    1.2120314064175320E+01 
    1.2471862407583107E+01 
    6.1451075835906073E+00 
    1.1746112884728941E+01 
    1.2348853925405168E+01 
    5.9943860355650722E+00 
    1.2930498456133256E+01 
    1.2921498793748633E+01 
    1.1507565897176034E+01 
    8.9837967382982988E+00 
    2.3087832538974524E+00 
    1.2617797717958329E+01 
    8.8625946901119477E+00 
    1.2724322345602026E+01 
    8.0713171318776631E+00 
    1.2470210737125525E+01 
    8.1952542393003780E-01 
    1.1159356990583047E+01 
    8.2217738448585518E+00 
    7.3824413851809725E+00 
    7.1975129075723716E+00 
    8.5359016178280385E+00 
    9.5615691443092796E+00 
    8.8462456288311717E+00 
    5.9585178084537338E+00 
    1.2465220795398473E+01 
    1.1975923495100794E+01 
    1.0095297083965315E+01 
    8.9056955835287237E+00 
    1.3249062214939655E+00 
    6.6621485494792090E+00 
    4.6396320723488280E+00 
    1.2631514212161674E+01 
    9.7525091763660843E+00 
    1.2031517978236613E+01 
    1.2033876167038523E+01 
    7.6970798590152016E+00 
    1.0160129128015745E+01 
    1.1725228076599327E+01 
    1.2907196192934844E+01 
    5.5556408533149702E+00 
    1.0570613084754616E+01 
    8.8887613449176897E+00 
    4.9511760345769664E+00 
    7.6754047005211969E+00 
    1.0581036361916949E+01 
    1.2000439276653568E+01 
    8.5931692812276275E+00 
    1.2098404467274449E+01 
    1.1891099986889586E+01 
    1.1847214710265277E+01 
    8.4145562350216458E+00 
    7.3446264774369716E+00 
    1.1737150296880243E+01 
    7.4335185683434934E+00 
    8.6840838511893210E+00 
    7.2919997608896443E+00 
    8.4665432684332096E+00 
    1.2041542137534213E+01 
    5.3477955431378428E+00 
    7.6035171284089422E+00 
    1.2558194447939998E+01 
    8.4295513103420667E+00 
    9.6495949017789204E+00 
    5.4870071187702587E+00 
    7.4817709240091279E+00 
    1.1872155324501058E+01 
    1.2147762122873745E+01 
    4.4946751314280613E+00 
    8.4323239987063214E+00 
    7.3304944837679029E+00 
    1.3291106467714277E+01 
    1.2802441530833180E+01 
    1.3529070507219984E+01 
    8.4544754674824798E+00 
    1.2018320352896705E+01 
    1.1688691330787563E+01 
    8.3343776256471731E+00 
    1.1729733414651363E+01 
    8.9061890897537523E+00 
    4.9889533086750069E+00 
    8.6755129587776771E+00 
    1.2544034437333899E+01 
    1.1726948756256743E+01 
    5.8058131747843360E+00 
    1.1752098728232111E+01 
    9.5699642709513810E+00 
    8.6655277720444914E+00 
    8.2028327997644173E+00 
    1.1613332297168817E+01 
    9.1876181340587131E+00 
    1.1741348128341180E+01 
    8.3427822972030850E+00 
    5.1188340346213606E+00 
    8.7501216684533709E+00 
    7.2056784981557493E+00 
    1.0742597953529160E+01 
    1.2724037320028481E+01 
    1.1736302497698007E+01 
    1.2613565494287840E+01 
    8.3800390880805242E+00 
    5.6587500435708709E+00 
    5.7373759948729992E+00 
    8.8524879272557602E+00 
    8.6620376829693235E+00 
    1.2661788985306499E+00 
    1.1314084400126481E+01 
    1.3038428206891920E+01 
    8.0779493446885517E+00 
    5.2276478803643505E+00 
    9.8338896278553438E+00 
    1.1750816017742002E+01 
    6.1708425093116048E+00 
    4.2302961325219686E+00 
    8.6358036350837803E+00 
    1.1840477857378390E+01 
    1.2380243576798049E+01 
    1.2284927776258186E+01 
    1.2151296693956281E+01 
    6.0302102358720120E+00 
    8.6548895769998602E+00 
    1.1327469184190587E+01 
    6.7374600790169197E+00 
    1.1980635362319065E+01 
    1.0346577254128002E+01 
    5.8178718832475935E+00 
    1.1843967981667772E+01 
    1.2624780796114306E+01 
    1.1839100170616849E+01 
    5.9509997365718581E+00 
    8.7102126112671563E+00 
    6.5236684875760291E+00 
    8.2040120322489791E+00 
    1.1743555777069991E+01 
    1.1733545742986411E+01 
    5.9845698760394823E+00 
    1.2505840520882920E+01 
    9.1844702252253150E+00 
    1.1769104555691484E+01 
    1.2477717480209906E+01 
    1.1755066559120429E+01 
    1.0950180227309149E+01 
    1.3336636032942437E+01 
    8.0546657992612705E+00 
    1.2587006912750349E+01 
    1.1797600159467564E+01 
    1.2650512234038134E+01 
    1.2500095122678871E+01 
    8.1382440720209335E+00 
    8.5185431617820022E+00 
    8.0683666473499400E+00 
    1.0532259155853156E+01 
    3.4576601484691052E+00 
    8.7828149486476725E+00 
    1.3453672781004565E+01 
    8.9093407790737249E+00 
    9.0749395638627277E+00 
    1.2626071697934920E+01 
    1.2839120167034642E+01 
    8.0350160189456297E+00 
    1.1755753149358455E+01 
    1.1730831009607318E+01 
    9.0639651317754044E+00 
    1.2460238613011793E+01 
    6.1172443598775050E+00 
    3.9311192591418984E+00 
    9.3126079973972331E+00 
    8.9215728213419485E+00 
    1.1735172901640897E+01 
    5.6067616099308770E+00 
    1.2211658779589806E+01 
    4.0056107529157234E+00 
    8.8646615846321346E+00 
    8.2175662216561385E+00 
    8.6883792180489383E+00 
    1.4670152581050431E+01 
    3.3601983808986580E+00 
    8.7002965089026656E+00 
    1.0274635593061987E+01 
    8.2927009949681825E+00 
    6.5660473840009939E+00 
    1.2317556095620811E+01 
    1.4261436276491482E+01 
    1.2443318038238269E+01 
    8.6446179809006729E+00 
    4.9343200897307389E+00 
    1.4119482537307819E+01 
    1.1965703762040789E+01 
    6.1813776791785715E+00 
    8.2426177287176365E+00 
    1.2996958260232999E+01 
    2.8519277314995044E+00 
    8.9663989849331784E+00 
    1.2412828835396455E+01 
    8.7009195329918043E+00 
    7.5467388003536655E+00 
    8.7399883266848715E+00 
    1.1513517361351097E+01 
    8.6819295027129506E+00 
    4.4097556551705894E+00 
    8.0494749563496548E-01 
    6.4198399465061007E+00 
    1.3190538054290322E+01 
    8.0666047056452772E+00 
    9.9131766590999248E+00 
    9.4879954004540625E+00 
    1.0797097123906855E+01 
    8.7141597212219111E+00 
    1.1885907845675888E+01 
    1.4683701820518703E+01 
    1.0258062472790522E+01 
    1.2562542156588188E+01 
    4.8016480515659771E-01 
    1.1735169363517905E+01 
    4.7942241924831777E+00 
    1.3610562258776941E+01 
    8.7138722430509432E+00 
    7.6498985003585140E+00 
    6.6480628182325328E+00 
    4.6306491311185090E+00 
    9.6964308909873722E+00 
    6.8018832096228765E+00 
    1.0651789397804635E+01 
    1.9620792616264111E+00 
    9.6008321764195284E+00 
    1.1677478903198233E+01 
    5.2104859176966327E+00 
    1.2163744491759527E+01 
    1.3445694757903004E+01 
    1.2044110592569689E+01 
    8.5884072784005099E+00 
    8.6832279269656887E+00 
    8.7065829711013674E+00 
    5.0057838797964900E+00 
    7.8381751085836555E+00 
    7.7094762090102114E+00 
    8.6957347059080057E+00 
    8.0140623385170429E+00 
    6.0557782849507247E-01 
    5.4925166048329563E+00 
    8.3432459110140407E+00 
    8.6723071756102854E+00 
    1.0945158537995434E+01 
    1.8644330337406834E+00 
    9.0283738846678130E+00 
    8.9264109710303163E+00 
    3.2348194687870917E+00 
    1.1927471494121777E+01 
    7.4560317356416421E+00 
    8.8033008297601665E+00 
    1.1962684947391155E+01 
    4.6446499480576593E+00 
    1.2025294327827615E+01 
    7.5398246113008014E+00 
    8.4777201745725761E-01 
    8.1209203118587521E+00 
    1.2516809426222721E+01 
    1.1735592875047253E+01 
    1.1754458521223430E+01 
    9.0571810777556525E+00 
    8.8678437260054910E+00 
    7.4311604212495679E+00 
    5.9677367103037531E+00 
    1.2058643659421092E+01 
    8.2431216383098782E+00 
    5.7469833281042684E+00 
    1.1748612450432971E+01 
    1.2349293056032437E+01 
    8.8767383060008687E+00 
    8.4784378930086159E+00 
    1.4570941275116290E+01 
    9.0647433724502982E+00 
    1.2075888448533608E+01 
    7.0743981268766509E+00 
    1.4711688698501744E+01 
    5.7037364611824897E+00 
    7.8103247122449764E+00 
    6.3802058118801455E+00 
    9.2682268485233248E+00 
    7.3263958936687654E+00 
    1.4695863538905785E+01 
    9.1070530403320351E+00 
    1.1459054002335449E+01 
    5.8656346047051260E+00 
    8.7107316731888833E+00 
    1.1935914177371117E+01 
    7.3432290481386246E+00 
    6.2347807190962961E+00 
    9.5482014239161721E+00 
    1.2149946815563322E+01 
    6.2963955166161982E+00 
    8.2338988531301602E+00 
    8.5031122047128136E+00 
    1.1714224748328570E+01 
    8.3176399321056671E+00 
    1.2116992925464530E+01 
    1.2676421655099807E+01 
    7.4536421252543485E+00 
    7.3106313366587585E+00 
    6.8423164392902907E+00 
    1.1838314305189328E+01 
    8.9340321654088211E+00 
    1.4296524319961224E+01 
    1.1176456636509210E+01 
    1.1899959409395599E+01 
    1.4001503341549055E+01 
    1.3447897410868240E+01 
    8.7566042353695970E+00 
    8.6814094095356378E+00 
    1.1534324029054501E+01 
    1.1767510954072593E+01 
    1.2212309799233800E+01 
    1.1984038215949189E+01 
    1.4588770843038848E+01 
    9.0643324414743081E+00 
    7.5402718257664469E+00 
    9.0403126252941917E+00 
    1.2599405173589821E+01 
    8.8394653122355678E+00 
    5.1022102219141416E+00 
    8.5734751398136897E+00 
    1.2968578443146965E+01 
    8.9580505279369973E+00 
    7.5425347675597161E+00 
    8.4437110374809610E+00 
    1.3067661383153359E+01 
    1.1764805657010330E+01 
    7.1786547231582762E+00 
    1.3193960024139836E+01 
    8.7823435422322049E+00 
    1.2209162749675485E+01 
    1.3081523235972414E+01 
    9.1810912631041681E+00 
    4.6409115333217859E+00 
    9.5285553206755704E+00 
    4.7983439532704395E+00 
    8.8814784933820352E+00 
    8.7013598974910877E+00 
    1.0017700060465014E+01 
    5.0701613355965085E+00 
    1.0633516724987539E+01 
    8.7230104019882599E+00 
    1.1975229007977370E+01 
    9.1334414171441747E+00 
    6.9874391412631924E+00 
    8.3280202261859415E+00 
    9.2222258342969390E+00 
    9.1562437625526378E+00 
    1.2713270315898399E+01 
    7.2130997667284422E+00 
    7.0910206619934879E+00 
    5.3258847298258738E+00 
    1.2237003371827678E+01 
    8.3649047389569056E+00 
    1.1587885397305284E+01 
    8.6731578816667660E+00 
    5.8136305574150864E+00 
    1.1790622673715728E+01 
    8.6478462892023256E+00 
    6.3275242059121011E+00 
    6.6945313455981932E+00 
    6.9250227838149296E+00 
    1.2002216438343085E+01 
    8.6976523013334983E+00 
    1.2571922466322313E+01 
    8.6053364045902025E+00 
    8.5398343865482946E+00 
    8.1565338175495743E+00 
    1.1861719757084456E+01 
    8.4533286774472884E+00 
    6.9591795097596014E+00 
    1.3434817452575631E+01 
    1.1931425022498926E+01 
    5.9754985259410933E+00 
    2.3727217857068950E+00 
    8.6869865767147481E+00 
    8.0925559024841611E+00 
    7.3071891817845724E+00 
    7.9807165372817543E+00 
    1.1909558681920352E+01 
    8.4163404443619498E+00 
    7.5966709064315392E+00 
    1.1786546241964052E+01 
    5.9212965017923311E+00 
    1.1499813162447344E+01 
    7.8201723072397042E+00 
    6.9076380047496331E+00 
    7.3740771976131505E+00 
    1.2284674860702021E+01 
    8.6913334044768700E+00 
    8.6990043661072072E+00 
    5.1462284745802114E+00 
    5.5518196783801637E+00 
    1.0922681483250276E+01 
    8.7082829124315051E+00 
    8.7266317839552219E+00 
    1.3178110852945956E+01 
    7.0902824403123299E+00 
    8.7194634051304778E+00 
    6.1280898172752503E+00 
    6.3266255599493526E+00 
    1.1854707220006622E+01 
    8.3489938846353997E+00 
    6.1058092520607179E+00 
    9.1497105922156390E+00 
    8.5817174641382330E+00 
    1.1857834448165017E+01 
    1.3263456264939338E+01 
    9.2641227915220126E-01 
    8.6917016275958776E+00 
    8.9201922889439320E+00 
    1.1913928728882496E+01 
    8.1860457898663732E+00 
    8.6656492466380861E+00 
    1.2760439971828454E+01 
    7.4007680965306717E+00 
    6.1581931601539006E+00 
    1.0534434014685681E+01 
    1.1747439642955557E+01 
    1.2651392765391781E+01 
    1.2884115334197062E+01 
    8.5412841311014649E+00 
    8.6841196087830212E+00 
    9.7544055089393016E+00 
    5.6782156153361321E+00 
    1.1856259534304458E+01 
    6.6247206912356731E+00 
    5.9129288346508746E+00 
    1.0894007212436467E+01 
    1.0227784145135903E+01 
    5.7984451822087513E+00 
    1.1779393800055612E+01 
    1.2637841990499826E+01 
    9.0782446668389110E+00 
    1.3356132470048529E+01 
    1.1806740151194797E+01 
    8.2726891736301464E+00 
    1.2401514555539599E+01 
    6.3282988318446014E+00 
    1.1762765253824103E+01 
    8.6909535063090928E+00 
    8.6508377382256505E+00 
    1.3331659765087712E+01 
    8.3940437497350562E+00 
    1.0629839746529584E+01 
    7.3580180333777623E+00 
    1.2742037577591315E+01 
    1.1682748654999111E+01 
    7.6683039209417778E+00 
    1.1727316928030616E+01 
    7.8125218262487621E+00 
    8.6759970270146027E+00 
    1.2601765048486815E+01 
    1.1977635001939136E+01 
    1.2640994025598758E+01 
    1.1916855448093610E+01 
    7.8503258387733146E+00 
    8.0582145727089234E+00 
    1.2646434336295503E+01 
    8.1677002137737897E+00 
    1.1624934833767833E+01 
    8.3852986120255864E+00 
    3.4808035057616342E+00 
    5.9719524956240555E+00 
    5.5357096470522462E+00 
    1.2604506562217880E+01 
    1.3268300521428445E+01 
    1.1743385732175849E+01 
    1.0072542370235796E+01 
    1.1990141522416836E+01 
    1.1783977255351095E+01 
    1.2295079049507256E+01 
    4.9722907024543437E+00 
    3.2496054655693056E+00 
    9.8854805527695593E+00 
    8.3380989879262728E+00 
    1.1910964021169763E+01 
    1.1908756415629600E+01 
    8.9359559149950432E+00 
    1.1940950520462444E+01 
    8.6787790567246876E+00 
    8.5684646989373032E+00 
    4.5013272488679084E+00 
    3.2396492338621639E+00 
    1.3064368844902301E+01 
    6.7235703979412769E+00 
    7.6144975090421108E+00 
    8.8468018747606845E+00 
    1.4571337354994395E+01 
    8.9287289795380236E+00 
    8.9447828279874475E+00 
    3.6569164800221863E+00 
    8.9293942022475754E+00 
    8.9413576297762933E+00 
    1.2188192979038019E+01 
    7.3823108152712740E+00 
    8.2714162936468494E+00 
    1.3218329116446521E+01 
    8.6996826977947546E+00 
    1.1757507578399334E+01 
    1.1984445345696860E+01 
    1.0758211794476738E+01 
    7.3110973917821855E+00 
    1.1916421724797251E+01 
    8.4895838051078645E+00 
    1.1937903801012741E+01 
    1.1702427695028994E+01 
    1.2621757781917424E+01 
    1.1914671677658632E+01 
    1.1200083388999637E+01 
    8.6892085039074445E+00 
    5.7526213396461809E+00 
    1.4450765820629979E+01 
    6.7592978049834427E+00 
    1.2549937705288320E+01 
    8.6866217692454200E+00 
    7.1408732483749287E+00 
    4.2682013572675404E+00 
    8.9714545075255181E+00 
    1.1904921113203793E+01 
    1.1901356080989636E+01 
    8.6566853297316371E+00 
    8.6807828626207222E+00 
    1.3411333376859840E+01 
    1.2832958513993402E+01 
    8.9452660440157530E+00 
    3.0254192771971309E+00 
    1.1183436074004565E+01 
    1.4694484766337876E+01 
    8.6925304818030664E+00 
    1.0407903702878688E+01 
    8.1813199457235442E+00 
    1.4317062341335813E+01 
    1.2905689797249478E+01 
    1.2668254364908027E+01 
    8.9641538341853870E+00 
    4.0004948250315504E+00 
    8.1433993061115064E+00 
    8.2064274807148809E+00 
    8.2556765135196883E+00 
    3.2859200891672349E+00 