# vtk DataFile Version 2.0
Pressure Field Data 
ASCII 
DATASET UNSTRUCTURED_GRID 

POINTS 2860 double 

    0.0000000000000000E+00     0.0000000000000000E+00     0.0000000000000000E+00 
    1.0000000000000000E+00     0.0000000000000000E+00     0.0000000000000000E+00 
    1.0000000000000000E+00     1.0000000000000000E+00     0.0000000000000000E+00 
    0.0000000000000000E+00     1.0000000000000000E+00     0.0000000000000000E+00 
    2.5000000000000000E-01     2.5000000000000000E-01     0.0000000000000000E+00 
    7.5000000000000000E-01     2.5000000000000000E-01     0.0000000000000000E+00 
    7.5000000000000000E-01     7.5000000000000000E-01     0.0000000000000000E+00 
    2.5000000000000000E-01     7.5000000000000000E-01     0.0000000000000000E+00 
    3.1249999999942091E-02     0.0000000000000000E+00     0.0000000000000000E+00 
    6.2499999999873469E-02     0.0000000000000000E+00     0.0000000000000000E+00 
    9.3749999999826514E-02     0.0000000000000000E+00     0.0000000000000000E+00 
    1.2499999999977961E-01     0.0000000000000000E+00     0.0000000000000000E+00 
    1.5624999999968961E-01     0.0000000000000000E+00     0.0000000000000000E+00 
    1.8749999999959971E-01     0.0000000000000000E+00     0.0000000000000000E+00 
    2.1874999999950970E-01     0.0000000000000000E+00     0.0000000000000000E+00 
    2.4999999999941969E-01     0.0000000000000000E+00     0.0000000000000000E+00 
    2.8124999999932920E-01     0.0000000000000000E+00     0.0000000000000000E+00 
    3.1249999999923850E-01     0.0000000000000000E+00     0.0000000000000000E+00 
    3.4374999999914790E-01     0.0000000000000000E+00     0.0000000000000000E+00 
    3.7499999999905720E-01     0.0000000000000000E+00     0.0000000000000000E+00 
    4.0624999999896660E-01     0.0000000000000000E+00     0.0000000000000000E+00 
    4.3749999999887590E-01     0.0000000000000000E+00     0.0000000000000000E+00 
    4.6874999999878530E-01     0.0000000000000000E+00     0.0000000000000000E+00 
    4.9999999999869471E-01     0.0000000000000000E+00     0.0000000000000000E+00 
    5.3124999999877620E-01     0.0000000000000000E+00     0.0000000000000000E+00 
    5.6249999999885780E-01     0.0000000000000000E+00     0.0000000000000000E+00 
    5.9374999999893940E-01     0.0000000000000000E+00     0.0000000000000000E+00 
    6.2499999999902101E-01     0.0000000000000000E+00     0.0000000000000000E+00 
    6.5624999999910261E-01     0.0000000000000000E+00     0.0000000000000000E+00 
    6.8749999999918421E-01     0.0000000000000000E+00     0.0000000000000000E+00 
    7.1874999999926570E-01     0.0000000000000000E+00     0.0000000000000000E+00 
    7.4999999999934730E-01     0.0000000000000000E+00     0.0000000000000000E+00 
    7.8124999999942890E-01     0.0000000000000000E+00     0.0000000000000000E+00 
    8.1249999999951039E-01     0.0000000000000000E+00     0.0000000000000000E+00 
    8.4374999999959199E-01     0.0000000000000000E+00     0.0000000000000000E+00 
    8.7499999999967359E-01     0.0000000000000000E+00     0.0000000000000000E+00 
    9.0624999999975520E-01     0.0000000000000000E+00     0.0000000000000000E+00 
    9.3749999999983680E-01     0.0000000000000000E+00     0.0000000000000000E+00 
    9.6874999999991840E-01     0.0000000000000000E+00     0.0000000000000000E+00 
    1.0000000000000000E+00     3.1249999999942091E-02     0.0000000000000000E+00 
    1.0000000000000000E+00     6.2499999999873469E-02     0.0000000000000000E+00 
    1.0000000000000000E+00     9.3749999999826514E-02     0.0000000000000000E+00 
    1.0000000000000000E+00     1.2499999999977961E-01     0.0000000000000000E+00 
    1.0000000000000000E+00     1.5624999999968961E-01     0.0000000000000000E+00 
    1.0000000000000000E+00     1.8749999999959971E-01     0.0000000000000000E+00 
    1.0000000000000000E+00     2.1874999999950970E-01     0.0000000000000000E+00 
    1.0000000000000000E+00     2.4999999999941969E-01     0.0000000000000000E+00 
    1.0000000000000000E+00     2.8124999999932920E-01     0.0000000000000000E+00 
    1.0000000000000000E+00     3.1249999999923850E-01     0.0000000000000000E+00 
    1.0000000000000000E+00     3.4374999999914790E-01     0.0000000000000000E+00 
    1.0000000000000000E+00     3.7499999999905720E-01     0.0000000000000000E+00 
    1.0000000000000000E+00     4.0624999999896660E-01     0.0000000000000000E+00 
    1.0000000000000000E+00     4.3749999999887590E-01     0.0000000000000000E+00 
    1.0000000000000000E+00     4.6874999999878530E-01     0.0000000000000000E+00 
    1.0000000000000000E+00     4.9999999999869471E-01     0.0000000000000000E+00 
    1.0000000000000000E+00     5.3124999999877620E-01     0.0000000000000000E+00 
    1.0000000000000000E+00     5.6249999999885780E-01     0.0000000000000000E+00 
    1.0000000000000000E+00     5.9374999999893940E-01     0.0000000000000000E+00 
    1.0000000000000000E+00     6.2499999999902101E-01     0.0000000000000000E+00 
    1.0000000000000000E+00     6.5624999999910261E-01     0.0000000000000000E+00 
    1.0000000000000000E+00     6.8749999999918421E-01     0.0000000000000000E+00 
    1.0000000000000000E+00     7.1874999999926570E-01     0.0000000000000000E+00 
    1.0000000000000000E+00     7.4999999999934730E-01     0.0000000000000000E+00 
    1.0000000000000000E+00     7.8124999999942890E-01     0.0000000000000000E+00 
    1.0000000000000000E+00     8.1249999999951039E-01     0.0000000000000000E+00 
    1.0000000000000000E+00     8.4374999999959199E-01     0.0000000000000000E+00 
    1.0000000000000000E+00     8.7499999999967359E-01     0.0000000000000000E+00 
    1.0000000000000000E+00     9.0624999999975520E-01     0.0000000000000000E+00 
    1.0000000000000000E+00     9.3749999999983680E-01     0.0000000000000000E+00 
    1.0000000000000000E+00     9.6874999999991840E-01     0.0000000000000000E+00 
    9.6875000000003686E-01     1.0000000000000000E+00     0.0000000000000000E+00 
    9.3750000000011691E-01     1.0000000000000000E+00     0.0000000000000000E+00 
    9.0625000000015765E-01     1.0000000000000000E+00     0.0000000000000000E+00 
    8.7500000000017863E-01     1.0000000000000000E+00     0.0000000000000000E+00 
    8.4375000000028044E-01     1.0000000000000000E+00     0.0000000000000000E+00 
    8.1250000000040856E-01     1.0000000000000000E+00     0.0000000000000000E+00 
    7.8125000000054956E-01     1.0000000000000000E+00     0.0000000000000000E+00 
    7.5000000000066480E-01     1.0000000000000000E+00     0.0000000000000000E+00 
    7.1875000000086831E-01     1.0000000000000000E+00     0.0000000000000000E+00 
    6.8750000000102829E-01     1.0000000000000000E+00     0.0000000000000000E+00 
    6.5625000000114431E-01     1.0000000000000000E+00     0.0000000000000000E+00 
    6.2500000000129829E-01     1.0000000000000000E+00     0.0000000000000000E+00 
    5.9375000000147926E-01     1.0000000000000000E+00     0.0000000000000000E+00 
    5.6250000000168354E-01     1.0000000000000000E+00     0.0000000000000000E+00 
    5.3125000000188671E-01     1.0000000000000000E+00     0.0000000000000000E+00 
    5.0000000000205835E-01     1.0000000000000000E+00     0.0000000000000000E+00 
    4.6875000000192979E-01     1.0000000000000000E+00     0.0000000000000000E+00 
    4.3750000000180111E-01     1.0000000000000000E+00     0.0000000000000000E+00 
    4.0625000000167238E-01     1.0000000000000000E+00     0.0000000000000000E+00 
    3.7500000000154382E-01     1.0000000000000000E+00     0.0000000000000000E+00 
    3.4375000000141509E-01     1.0000000000000000E+00     0.0000000000000000E+00 
    3.1250000000128642E-01     1.0000000000000000E+00     0.0000000000000000E+00 
    2.8125000000115769E-01     1.0000000000000000E+00     0.0000000000000000E+00 
    2.5000000000102918E-01     1.0000000000000000E+00     0.0000000000000000E+00 
    2.1875000000090050E-01     1.0000000000000000E+00     0.0000000000000000E+00 
    1.8750000000077180E-01     1.0000000000000000E+00     0.0000000000000000E+00 
    1.5625000000064329E-01     1.0000000000000000E+00     0.0000000000000000E+00 
    1.2500000000051459E-01     1.0000000000000000E+00     0.0000000000000000E+00 
    9.3750000000385914E-02     1.0000000000000000E+00     0.0000000000000000E+00 
    6.2500000000257239E-02     1.0000000000000000E+00     0.0000000000000000E+00 
    3.1250000000128557E-02     1.0000000000000000E+00     0.0000000000000000E+00 
    0.0000000000000000E+00     9.6875000000003686E-01     0.0000000000000000E+00 
    0.0000000000000000E+00     9.3750000000011691E-01     0.0000000000000000E+00 
    0.0000000000000000E+00     9.0625000000015765E-01     0.0000000000000000E+00 
    0.0000000000000000E+00     8.7500000000017863E-01     0.0000000000000000E+00 
    0.0000000000000000E+00     8.4375000000028044E-01     0.0000000000000000E+00 
    0.0000000000000000E+00     8.1250000000040856E-01     0.0000000000000000E+00 
    0.0000000000000000E+00     7.8125000000054956E-01     0.0000000000000000E+00 
    0.0000000000000000E+00     7.5000000000066480E-01     0.0000000000000000E+00 
    0.0000000000000000E+00     7.1875000000086831E-01     0.0000000000000000E+00 
    0.0000000000000000E+00     6.8750000000102829E-01     0.0000000000000000E+00 
    0.0000000000000000E+00     6.5625000000114431E-01     0.0000000000000000E+00 
    0.0000000000000000E+00     6.2500000000129829E-01     0.0000000000000000E+00 
    0.0000000000000000E+00     5.9375000000147926E-01     0.0000000000000000E+00 
    0.0000000000000000E+00     5.6250000000168354E-01     0.0000000000000000E+00 
    0.0000000000000000E+00     5.3125000000188671E-01     0.0000000000000000E+00 
    0.0000000000000000E+00     5.0000000000205835E-01     0.0000000000000000E+00 
    0.0000000000000000E+00     4.6875000000192979E-01     0.0000000000000000E+00 
    0.0000000000000000E+00     4.3750000000180111E-01     0.0000000000000000E+00 
    0.0000000000000000E+00     4.0625000000167238E-01     0.0000000000000000E+00 
[...]
CELL_DATA 2795 
SCALARS Pressure double 1 
LOOKUP_TABLE default 

    7.7702475128343513E+00 
    2.1498126269124565E+01 
    1.3094510412658366E+01 
    1.2544360838870222E+01 
    9.6730212398898825E+00 
    2.0614817866536466E+01 
    2.2324437431093241E+01 
    6.8829373018278455E+00 
    1.3886453352619412E+01 
    1.0372213550907166E+01 
    8.7202735155512237E+00 
    2.0119354379627854E+01 
    2.1040004907331230E+01 
    2.0553334366981623E+01 
    1.1956748508894586E+01 
    6.7602631997580600E+00 
    1.1363475286486262E+01 
    9.3329455441958604E+00 
    1.9347177704668585E+01 
    1.3075725006729400E+01 
    1.2919161343909499E+01 
    2.0399750541009837E+01 
    1.2126439775064979E+01 
    4.4729709212698582E-01 
    2.0333025760654532E+01 
    2.1184726903579591E+01 
    2.2406534207520096E+01 
    8.3585854740529992E+00 
    1.9947580123410091E+01 
    2.2885367191206033E+01 
    1.3334874034368873E+01 
    1.3391649870920958E+01 
    9.0511349196378372E+00 
    1.3038893382143208E+01 
    4.0289616226301375E+00 
    1.1368654771466163E+01 
    1.3021416026988021E+01 
    2.3005120211284208E+01 
    2.2251206310353414E+01 
    2.0143776436031015E+01 
    9.5875270245834159E+00 
    2.0437224644822905E+01 
    9.2846101742658182E-01 
    1.2947718867537054E+01 
    2.2108045249135479E+01 
    2.1586528183330557E+01 
    2.0099509494612231E+01 
    1.4490655246891977E+01 
    2.0122558925045510E+01 
    1.1665752576020656E+01 
    1.1030528296882791E+01 
    1.3342966049673951E+01 
    1.2771319106403491E+01 
    1.1442552912842983E+01 
    1.3463162493691190E+01 
    1.8918150760794628E+01 
    1.6156075227514737E+01 
    9.7281572396942479E+00 
    2.0426284544611072E+01 
    2.0251639258667161E+01 
    1.2605464418186585E+01 
    1.2540018439079565E+01 
    1.2392494963569241E+01 
    2.2661138366685051E+01 
    2.3081839245314779E+01 
    1.1380526231873194E+01 
    1.3341595819189408E+01 
    1.9678827113282878E+01 
    1.5908295064446779E+01 
    1.2589005652937784E+01 
    2.2828613463032205E+01 
    2.0684685877140449E+01 
    1.1191561988901846E+01 
    2.1737766660797792E+01 
    1.3866343658101222E+01 
    2.0105943441357081E+01 
    2.3072560981366355E+01 
    1.3877479220635625E+01 
    7.9195836714006260E+00 
    1.3367996057401413E+01 
    2.2280312393999495E+01 
    2.3371972266463704E+01 
    1.1418445154825068E+01 
    1.3248286165835435E+01 
    2.3306157245489768E+01 
    1.3023964938170641E+01 
    1.2260381186120510E+01 
    1.6668408267161002E+01 
    7.5380767183843309E+00 
    1.1063633739468676E+01 
    1.3247190600030184E+01 
    1.4110651592427574E+01 
    2.6124675944362654E+01 
    9.3848145538004299E+00 
    1.3353088686167981E+01 
    2.0064262121927019E+01 
    2.0927669925714056E+01 
    8.1885149250886542E+00 
    1.2830944537772167E+01 
    1.3291699695487953E+01 
    2.0984933945363750E+01 
    1.3291645191218455E+01 
    2.0821484794313356E+01 
    4.8584424993367170E+00 
    8.4676360961576140E+00 
    1.3670997946618428E+01 
    2.1553454489678764E+01 
    1.1309992551883624E+01 
    1.2276174982631870E+01 
    1.3269036480500249E+01 
    1.2218462342169934E+01 
    1.5560461365235616E+01 
    1.1872215366057461E+01 
    1.1202078725251452E+01 
    8.6436584151495257E+00 
    1.6704873556492014E+01 
    1.3394772403840367E+01 
    2.2543459206300778E+01 
    1.1351633450215619E+01 
    1.2522739124475121E+01 
    2.0693754978048400E+01 
    1.0175550370894403E+01 
    2.1738852568874460E+01 
    1.3136768946709108E+01 
    1.2408557824104500E+01 
    2.0944528060547221E+01 
    1.3385863752535197E+01 
    2.2765507249970600E+01 
    1.6709831189200475E+01 
    1.8583685992020438E+01 
    2.2457538821943924E+01 
    9.4029447734629059E+00 
    1.3699646536457731E+01 
    2.1057465594512546E+01 
    3.6115398958997647E+00 
    1.3424836240917038E+01 
    2.2355067608670510E+01 
    1.2460198759234869E+01 
    1.5087528327928611E+01 
    8.1187078859862343E+00 
    2.0108468042720318E+01 
    2.6955191310259483E+01 
    1.7582846859612488E+01 
    1.2451421563015574E+01 
    1.0923841804550044E+01 
    1.4566062921723935E+01 
    1.3161719303787958E+01 
    8.8106283473272100E+00 
    2.2555561016671835E+01 
    2.0879768364536591E+01 
    2.0070464560129906E+01 
    1.4125919976572360E+01 
    1.1159126320251625E+01 
    1.2915879487214063E+01 
    2.1729660350526981E+01 
    1.1509481017813050E+01 
    1.3223867061376330E+01 
    1.1766094845881071E+01 
    1.6315369317756804E+01 
    2.6936918591145616E+01 
    2.0040942919941362E+01 
    1.1101634245114152E+01 
    2.1353111799079926E+01 
    2.1436874071253719E+01 
    2.1641442333351979E+01 
    2.3902645254553743E+01 
    2.4946550707631705E+01 
    2.1444087339180538E+01 
    1.3329712657325327E+01 
    1.4775781934033114E+01 
    2.0969347331696504E+01 
    2.2360461033700751E+01 
    9.2122128442579960E+00 
    2.0089852490497037E+01 
    2.1591740180556688E+01 
    8.9629220443658113E+00 
    2.3623364010600994E+01 
    2.3685768374790033E+01 
    1.9478272581558308E+01 
    1.3805000361355662E+01 
    3.3287372006919553E+00 
    2.2477899577293314E+01 
    1.3579369111109719E+01 
    2.3186396786345512E+01 
    1.2357863156573435E+01 
    2.2062051042500276E+01 
    1.1628904459131504E+00 
    1.8573818148516288E+01 
    1.2603122965266749E+01 
    1.1094414062489227E+01 
    1.0774524576953219E+01 
    1.3091718233363315E+01 
    1.4923483568249578E+01 
    1.3964870031611715E+01 
    8.7815672951010200E+00 
    2.2455164272717244E+01 
    2.1168374051017580E+01 
    1.6108919146259481E+01 
    1.3657210875623305E+01 
    1.8144598811906576E+00 
    9.8674872212515741E+00 
    6.6976419129951337E+00 
    2.2976813768112702E+01 
    1.5381562636752472E+01 
    2.0751487590290370E+01 
    2.1306792173431450E+01 
    1.1673605094711894E+01 
    1.6317539304605607E+01 
    2.0032563960516072E+01 
    2.3650489522366446E+01 
    8.0870994833351126E+00 
    1.7741131163562876E+01 
    1.3933521459694312E+01 
    7.1504168076119292E+00 
    1.1630764200343581E+01 
    1.7332011289790348E+01 
    2.1234102780181274E+01 
    1.3171308856434754E+01 
    2.1548795016490978E+01 
    2.0884654312756624E+01 
    2.0776205931275875E+01 
    1.2924845615054238E+01 
    1.1054022793362565E+01 
    2.0091997003043051E+01 
    1.1189628381869337E+01 
    1.3298546971048362E+01 
    1.0933860997470271E+01 
    1.3143851832907792E+01 
    2.1307814626162020E+01 
    7.9698816671157369E+00 
    1.1500190252825051E+01 
    2.2535609625568352E+01 
    1.2943251541585655E+01 
    1.5198946997878842E+01 
    8.1758929161973217E+00 
    1.1281575919612795E+01 
    2.0825958052723884E+01 
    2.1696036704653991E+01 
    6.6700055070831077E+00 
    1.2951812242800619E+01 
    1.1008615108938928E+01 
    2.4513328455800949E+01 
    2.3400012971403651E+01 
    2.5019579634879200E+01 
    1.2982152300020314E+01 
    2.1276157945038683E+01 
    1.9918875479316998E+01 
    1.2793341097523729E+01 
    2.0063752108450430E+01 
    1.3657320014155028E+01 
    7.2512204036966397E+00 
    1.3461572549662643E+01 
    2.2760159801736652E+01 
    2.0055027673337907E+01 
    8.6655542358993607E+00 
    2.0108260475922236E+01 
    1.4968930191113865E+01 
    1.3395587812480864E+01 
    1.2592149931855934E+01 
    1.9761311691418197E+01 
    1.4281444406774787E+01 
    2.0095301915626557E+01 
    1.2843901286669015E+01 
    7.5236691990644395E+00 
    1.3400272162669900E+01 
    1.0794462740274081E+01 
    1.7623800080881377E+01 
    2.2827264934209481E+01 
    2.0102363632244160E+01 
    2.2341903165270175E+01 
    1.2866598773638751E+01 
    8.4417195570530712E+00 
    8.5667595648026094E+00 
    1.3710424645563249E+01 
    1.3264090128569585E+01 
    1.8272120508156469E+00 
    1.8976129342124967E+01 
    2.3930144722884471E+01 
    1.2371764626443172E+01 
    7.5726319394741983E+00 
    1.6048790068372053E+01 
    2.0094973268334535E+01 
    9.0748453185502935E+00 
    6.0328275069914818E+00 
    1.3230477235411188E+01 
    2.0343646028457613E+01 
    2.2343882871527757E+01 
    2.1400410798536559E+01 
    2.1744905891565260E+01 
    8.8435714282461806E+00 
    1.3378048244221729E+01 
    1.9508192905920449E+01 
    1.0169193762125754E+01 
    2.1013879111560158E+01 
    1.6728729671390013E+01 
    8.6954127795919902E+00 
    2.0214859173263203E+01 
    2.2819179508804307E+01 
    2.0599564196581323E+01 
    8.7229239887621546E+00 
    1.3336117677832741E+01 
    9.6420187049312158E+00 
    1.2527260690107251E+01 
    2.0088773433746944E+01 
    2.0069186537858418E+01 
    8.7747103758431031E+00 
    2.2074825976635747E+01 
    1.4205095585841107E+01 
    2.0223361002991606E+01 
    2.2516127314939411E+01 
    2.0151093088915157E+01 
    1.8027278441757979E+01 
    2.4660372511807207E+01 
    1.2324250531895240E+01 
    2.2250054262609041E+01 
    2.0227785578744669E+01 
    2.2488173068478325E+01 
    2.2016726505801564E+01 
    1.2475771175797805E+01 
    1.3081488662525423E+01 
    1.2355269229907776E+01 
    1.7066622972832889E+01 
    4.8815207842488313E+00 
    1.3601883754350602E+01 
    2.4882697143373893E+01 
    1.3666138162447742E+01 
    1.3988694078708157E+01 
    2.2421576011688657E+01 
    2.2960828654241158E+01 
    1.2278440625494181E+01 
    2.0112654289026565E+01 
    2.0076139372091546E+01 
    1.3966909323782835E+01 
    2.1884261753516522E+01 
    9.1588369762524255E+00 
    5.8033669988525274E+00 
    1.4457766723411419E+01 
    1.3685864062827257E+01 
    2.0049867710160580E+01 
    8.1675093654808517E+00 
    2.1206138348911821E+01 
    5.9174166403865360E+00 
    1.3590075484588143E+01 
    1.2602273788471299E+01 
    1.3302442911233081E+01 
    2.7011813132884626E+01 
    4.7348708028428383E+00 
    1.3456892872434493E+01 
    1.7129612583696954E+01 
    1.2724041156350619E+01 
    9.7314016191149477E+00 
    2.1514055491474952E+01 
    2.6251873859548276E+01 
    2.2120675320346859E+01 
    1.3358580261987683E+01 
    7.1076015833498793E+00 
    2.6089659514384437E+01 
    2.1082501565106753E+01 
    9.2868029699529711E+00 
    1.2685809830738135E+01 
    2.3862718462255206E+01 
    4.0133543419957025E+00 
    1.3775552196842229E+01 
    2.2236316668469488E+01 
    1.3321491587969154E+01 
    1.1471374828437520E+01 
    1.3526452915461896E+01 
    1.9685409354541644E+01 
    1.3294269715920830E+01 
    6.2903563895309702E+00 
    1.1484856196616042E+00 
    9.6492227907278174E+00 
    2.4338112897544679E+01 
    1.2352456319818360E+01 
    1.5712224247742810E+01 
    1.4826522281176521E+01 
    1.7833116406297680E+01 
    1.3340661754680957E+01 
    2.0845722730262256E+01 
    2.7032060166321504E+01 
    1.6522457074471724E+01 
    2.2180761389576084E+01 
    6.6962541104121720E-01 
    2.0068634039762824E+01 
    7.0142609130115741E+00 
    2.5176694635229460E+01 
    1.3480723021217964E+01 
    1.1662637119443335E+01 
    9.8475249418271549E+00 
    6.6264989776888097E+00 
    1.5266017365783057E+01 
    1.0269762065171941E+01 
    1.7425211756380595E+01 
    2.7925934794786542E+00 
    1.5033947983268002E+01 
    1.9902462823250286E+01 
    7.7622567117807257E+00 
    2.1125799110143859E+01 
    2.4462562095873999E+01 
    2.0927446475864805E+01 
    1.3259135861230899E+01 
    1.3294934301458088E+01 
    1.3467901622591510E+01 
    7.2065130120589362E+00 
    1.1928153473481697E+01 
    1.1686922522856875E+01 
    1.3448886080363415E+01 
    1.2254850137978602E+01 
    8.5875920269732120E-01 
    8.0884087572800354E+00 
    1.2880140584147023E+01 
    1.3407541233933093E+01 
    1.8086249710537789E+01 
    2.6216437283200187E+00 
    1.3897014245022968E+01 
    1.3698026897416804E+01 
    4.5502634085787550E+00 
    2.0551723251702704E+01 
    1.1238049291512802E+01 
    1.3488383792722191E+01 
    2.1024632206931209E+01 
    6.6464347624830538E+00 
    2.0756194813681596E+01 
    1.1375504004248599E+01 
    1.1801044366567448E+00 
    1.2449974377412866E+01 
    2.2317046211915923E+01 
    2.0082356968461227E+01 
    2.0131948894283958E+01 
    1.4072702699892293E+01 
    1.3594178718802446E+01 
    1.1192841359865897E+01 
    8.8283812884424933E+00 
    2.1217852191014721E+01 
    1.2680012024853140E+01 
    8.5915237492942644E+00 
    2.0111358364289618E+01 
    2.1901755885183519E+01 
    1.3747328953213698E+01 
    1.3012377626135503E+01 
    2.6847883268000288E+01 
    1.3968587839997797E+01 
    2.1383704494884295E+01 
    1.0570300819218152E+01 
    2.7067160035618262E+01 
    8.5166022334034484E+00 
    1.1879444023144949E+01 
    9.5873561149548063E+00 
    1.4372159638245863E+01 
    1.1120034257922518E+01 
    2.7045252703727598E+01 
    1.4052324318375673E+01 
    1.9668078867156748E+01 
    8.7614604437716785E+00 
    1.3335817042509582E+01 
    2.1016841091464450E+01 
    1.1158437422982178E+01 
    9.2061110412669844E+00 
    1.5506052836415131E+01 
    2.1064407034455797E+01 
    9.4599749289899044E+00 
    1.2631684919080872E+01 
    1.3057711427666931E+01 
    2.0024431465430592E+01 
    1.2763920158777484E+01 
    2.1656409688344780E+01 
    2.2581385592835723E+01 
    1.1223811108722664E+01 
    1.0975418458756685E+01 
    1.0338148193596925E+01 
    2.0296062423910719E+01 
    1.3710074945877171E+01 
    2.6319329912108969E+01 
    1.8311504020000985E+01 
    2.0886578233656927E+01 
    2.5871338601161145E+01 
    2.4471406803852432E+01 
    1.3402159150658330E+01 
    1.3423642653553763E+01 
    1.9498809919833093E+01 
    2.0137891861886889E+01 
    2.1573159185757909E+01 
    2.1113803621031266E+01 
    2.6885029060013608E+01 
    1.3967744428437143E+01 
    1.1388344994000562E+01 
    1.3909580205232752E+01 
    2.2294905727663082E+01 
    1.3541630025648484E+01 
    7.5684819436568880E+00 
    1.3232760693735361E+01 
    2.3793847599079847E+01 
    1.3758563831090676E+01 
    1.1386293125207333E+01 
    1.2970034671264763E+01 
    2.4035463922869305E+01 
    2.0576286892717473E+01 
    1.0745763850502270E+01 
    2.4289707884110172E+01 
    1.3444232133858229E+01 
    2.1869190193835546E+01 
    2.4021681551945264E+01 
    1.4455622663171388E+01 
    6.6602739935130248E+00 
    1.5251859625584007E+01 
    6.8977449690706401E+00 
    1.3614775317014706E+01 
    1.3323943258013022E+01 
    1.6379875285705040E+01 
    7.3136648842361698E+00 
    1.7816044311632236E+01 
    1.3352901945777543E+01 
    2.1101130132111724E+01 
    1.4622868145472554E+01 
    1.0462408830934152E+01 
    1.2783219789733359E+01 
    1.4341938404357636E+01 
    1.4148311169715271E+01 
    2.3084953819903021E+01 
    1.0797752160721574E+01 
    1.0589212825901294E+01 
    7.7156055559586552E+00 
    2.1713786026129309E+01 
    1.2844615618365921E+01 
    2.0105346006564719E+01 
    1.3281342784934983E+01 
    8.4919742127680049E+00 
    2.0603065567595749E+01 
    1.3245501314728671E+01 
    9.3263797052222799E+00 
    9.9321336336587347E+00 
    1.0317394451324784E+01 
    2.1144070011389839E+01 
    1.3452252246070527E+01 
    2.2211757640821062E+01 
    1.3185129814326340E+01 
    1.3094480784661780E+01 
    1.2495223322502282E+01 
    2.0780688699237835E+01 
    1.2972928229700251E+01 
    1.0368871430766960E+01 
    2.4485737031161019E+01 
    2.0944615148417821E+01 
    8.9332859105181726E+00 
    3.3104484446666707E+00 
    1.3433627263180989E+01 
    1.2385819152507409E+01 
    1.0962846916811971E+01 
    1.2182657642735425E+01 
    2.0440882525742452E+01 
    1.2955562147422926E+01 
    1.1493754812415530E+01 
    2.0183862344064483E+01 
    8.8532924156722199E+00 
    1.9434149471438907E+01 
    1.1939630182654700E+01 
    1.0289363459208451E+01 
    1.1089703468987041E+01 
    2.2077900345292271E+01 
    1.3306757897313352E+01 
    1.3318376965073801E+01 
    7.4315592468037570E+00 
    8.0793707968789032E+00 
    1.8298839032188237E+01 
    1.3332525851152988E+01 
    1.3502902272173861E+01 
    2.4291180448970756E+01 
    1.0595091018371946E+01 
    1.3350295323962143E+01 
    9.1813523308253639E+00 
    9.4968201405065784E+00 
    2.0702608485225703E+01 
    1.2809748038577611E+01 
    8.9686475329317918E+00 
    1.4126412543706570E+01 
    1.3167176045438302E+01 
    2.0736409521526593E+01 
    2.4470862620818338E+01 
    1.2473223613981750E+00 
    1.3441894898872469E+01 
    1.3684078065066025E+01 
    2.0915024700226258E+01 
    1.2566908636695754E+01 
    1.3269054010726112E+01 
    2.3042216011670767E+01 
    1.1125685701815657E+01 
    9.0536617069018384E+00 
    1.6872434459342930E+01 
    2.0104279399316432E+01 
    2.2442856067542422E+01 
    2.3587914524192925E+01 
    1.3177494412788187E+01 
    1.3428460897349417E+01 
    1.5352177934801995E+01 
    8.4660053166827591E+00 
    2.0335825800480542E+01 
    9.8080565457287303E+00 
    8.8359173317925190E+00 
    1.7733388497753953E+01 
    1.6350339038850130E+01 
    8.6559930919168799E+00 
    2.0169972636014279E+01 
    2.2415190225241528E+01 
    1.3995255942583418E+01 
    2.4672673331552716E+01 
    2.0228056548147226E+01 
    1.2710415601842465E+01 
    2.1716350209146714E+01 
    9.4952070961907378E+00 
    2.0124518058533777E+01 
    1.3440531427005332E+01 
    1.3370899197947645E+01 
    2.4646194952927367E+01 
    1.2895196926542500E+01 
    1.7235283608320131E+01 
    1.1057712695409275E+01 
    2.2833610091801230E+01 
    1.9925522959811296E+01 
    1.1608515359364260E+01 
    2.0092218884644460E+01 
    1.1931407228307183E+01 
    1.3282759243091313E+01 
    2.2295352726495928E+01 
    2.1015574030736015E+01 
    2.2422050420029684E+01 
    2.0915997371627224E+01 
    1.1956337457355307E+01 
    1.2326664644935965E+01 
    2.2453413679367475E+01 
    1.2523122743950909E+01 
    1.9722341097013132E+01 
    1.2878174996372591E+01 
    4.9318188290690284E+00 
    8.9394747139518618E+00 
    8.2605663862946486E+00 
    2.2308452886809864E+01 
    2.4493839233226275E+01 
    2.0107721903408738E+01 
    1.5934699545732947E+01 
    2.0657989658579851E+01 
    2.0173699290331676E+01 
    2.1456123461259640E+01 
    7.1557577542260802E+00 
    4.5808408795905127E+00 
    1.5547908971828242E+01 
    1.2832319210386615E+01 
    2.0460762801132148E+01 
    2.0458116971457084E+01 
    1.3712897801031650E+01 
    2.0527954968458545E+01 
    1.3419053532565137E+01 
    1.3229704611140017E+01 
    6.4282392291349701E+00 
    4.5539534779247983E+00 
    2.4024153645508328E+01 
    1.0139381402673109E+01 
    1.1514161105731844E+01 
    1.3559924179784357E+01 
    2.6856501685502263E+01 
    1.3699059525008042E+01 
    1.3920719678067501E+01 
    5.2505282973024627E+00 
    1.3698805761123813E+01 
    1.3720464301929434E+01 
    2.1158539443954794E+01 
    1.1102791835756873E+01 
    1.2672964120564176E+01 
    2.4368840749582571E+01 
    1.3455883440749174E+01 
    2.0130471529786391E+01 
    2.0627003509463641E+01 
    1.7345779655351073E+01 
    1.1112774088011099E+01 
    2.0906371633631522E+01 
    1.3091468387786428E+01 
    2.0530358671504121E+01 
    1.9992059016232307E+01 
    2.2363009297597817E+01 
    2.0935229713840418E+01 
    1.8615934884033347E+01 
    1.3437447551446088E+01 
    8.5926448417522376E+00 
    2.6661021773550406E+01 
    1.0030842047717877E+01 
    2.2743241914950225E+01 
    1.3432930836177460E+01 
    1.0681619856789576E+01 
    6.2312936639584331E+00 
    1.3777056776469113E+01 
    2.0887684541142463E+01 
    2.0855272625288908E+01 
    1.3255058900510898E+01 
    1.3422747166281816E+01 
    2.4719052663392141E+01 
    2.3441662836103820E+01 
    1.3730130806774165E+01 
    4.2632281390656965E+00 
    1.8447832663700353E+01 
    2.7035737277774185E+01 
    1.3443252768069241E+01 
    1.6610508159111571E+01 
    1.2560127307720965E+01 
    2.6428622086228589E+01 
    2.3588023820098439E+01 
    2.2795453663170008E+01 
    1.3765038856409261E+01 
    5.8425720780054631E+00 
    1.2492014161835160E+01 
    1.2603206919582432E+01 
    1.2686273195532202E+01 
    4.6772260122415918E+00 