# vtk DataFile Version 2.0
Pressure Field Data 
ASCII 
DATASET UNSTRUCTURED_GRID 

POINTS 2860 double 

    0.0000000000000000E+00     0.0000000000000000E+00     0.0000000000000000E+00 
    1.0000000000000000E+00     0.0000000000000000E+00     0.0000000000000000E+00 
    1.0000000000000000E+00     1.0000000000000000E+00     0.0000000000000000E+00 
    0.0000000000000000E+00     1.0000000000000000E+00     0.0000000000000000E+00 
    2.5000000000000000E-01     2.5000000000000000E-01     0.0000000000000000E+00 
    7.5000000000000000E-01     2.5000000000000000E-01     0.0000000000000000E+00 
    7.5000000000000000E-01     7.5000000000000000E-01     0.0000000000000000E+00 
    2.5000000000000000E-01     7.5000000000000000E-01     0.0000000000000000E+00 
    3.1249999999942091E-02     0.0000000000000000E+00     0.0000000000000000E+00 
    6.2499999999873469E-02     0.0000000000000000E+00     0.0000000000000000E+00 
    9.3749999999826514E-02     0.0000000000000000E+00     0.0000000000000000E+00 
    1.2499999999977961E-01     0.0000000000000000E+00     0.0000000000000000E+00 
    1.5624999999968961E-01     0.0000000000000000E+00     0.0000000000000000E+00 
    1.8749999999959971E-01     0.0000000000000000E+00     0.0000000000000000E+00 
    2.1874999999950970E-01     0.0000000000000000E+00     0.0000000000000000E+00 
    2.4999999999941969E-01     0.0000000000000000E+00     0.0000000000000000E+00 
    2.8124999999932920E-01     0.0000000000000000E+00     0.0000000000000000E+00 
    3.1249999999923850E-01     0.0000000000000000E+00     0.0000000000000000E+00 
    3.4374999999914790E-01     0.0000000000000000E+00     0.0000000000000000E+00 
    3.7499999999905720E-01     0.0000000000000000E+00     0.0000000000000000E+00 
    4.0624999999896660E-01     0.0000000000000000E+00     0.0000000000000000E+00 
    4.3749999999887590E-01     0.0000000000000000E+00     0.0000000000000000E+00 
    4.6874999999878530E-01     0.0000000000000000E+00     0.0000000000000000E+00 
    4.9999999999869471E-01     0.0000000000000000E+00     0.0000000000000000E+00 
    5.3124999999877620E-01     0.0000000000000000E+00     0.0000000000000000E+00 
    5.6249999999885780E-01     0.0000000000000000E+00     0.0000000000000000E+00 
    5.9374999999893940E-01     0.0000000000000000E+00     0.0000000000000000E+00 
    6.2499999999902101E-01     0.0000000000000000E+00     0.0000000000000000E+00 
    6.5624999999910261E-01     0.0000000000000000E+00     0.0000000000000000E+00 
    6.8749999999918421E-01     0.0000000000000000E+00     0.0000000000000000E+00 
    7.1874999999926570E-01     0.0000000000000000E+00     0.0000000000000000E+00 
    7.4999999999934730E-01     0.0000000000000000E+00     0.0000000000000000E+00 
    7.8124999999942890E-01     0.0000000000000000E+00     0.0000000000000000E+00 
    8.1249999999951039E-01     0.0000000000000000E+00     0.0000000000000000E+00 
    8.4374999999959199E-01     0.0000000000000000E+00     0.0000000000000000E+00 
    8.7499999999967359E-01     0.0000000000000000E+00     0.0000000000000000E+00 
    9.0624999999975520E-01     0.0000000000000000E+00     0.0000000000000000E+00 
    9.3749999999983680E-01     0.0000000000000000E+00     0.0000000000000000E+00 
    9.6874999999991840E-01     0.0000000000000000E+00     0.0000000000000000E+00 
    1.0000000000000000E+00     3.1249999999942091E-02     0.0000000000000000E+00 
    1.0000000000000000E+00     6.2499999999873469E-02     0.0000000000000000E+00 
    1.0000000000000000E+00     9.3749999999826514E-02     0.0000000000000000E+00 
    1.0000000000000000E+00     1.2499999999977961E-01     0.0000000000000000E+00 
    1.0000000000000000E+00     1.5624999999968961E-01     0.0000000000000000E+00 
    1.0000000000000000E+00     1.8749999999959971E-01     0.0000000000000000E+00 
    1.0000000000000000E+00     2.1874999999950970E-01     0.0000000000000000E+00 
    1.0000000000000000E+00     2.4999999999941969E-01     0.0000000000000000E+00 
    1.0000000000000000E+00     2.8124999999932920E-01     0.0000000000000000E+00 
    1.0000000000000000E+00     3.1249999999923850E-01     0.0000000000000000E+00 
    1.0000000000000000E+00     3.4374999999914790E-01     0.0000000000000000E+00 
    1.0000000000000000E+00     3.7499999999905720E-01     0.0000000000000000E+00 
    1.0000000000000000E+00     4.0624999999896660E-01     0.0000000000000000E+00 
    1.0000000000000000E+00     4.3749999999887590E-01     0.0000000000000000E+00 
    1.0000000000000000E+00     4.6874999999878530E-01     0.0000000000000000E+00 
    1.0000000000000000E+00     4.9999999999869471E-01     0.0000000000000000E+00 
    1.0000000000000000E+00     5.3124999999877620E-01     0.0000000000000000E+00 
    1.0000000000000000E+00     5.6249999999885780E-01     0.0000000000000000E+00 
    1.0000000000000000E+00     5.9374999999893940E-01     0.0000000000000000E+00 
    1.0000000000000000E+00     6.2499999999902101E-01     0.0000000000000000E+00 
    1.0000000000000000E+00     6.5624999999910261E-01     0.0000000000000000E+00 
    1.0000000000000000E+00     6.8749999999918421E-01     0.0000000000000000E+00 
    1.0000000000000000E+00     7.1874999999926570E-01     0.0000000000000000E+00 
    1.0000000000000000E+00     7.4999999999934730E-01     0.0000000000000000E+00 
    1.0000000000000000E+00     7.8124999999942890E-01     0.0000000000000000E+00 
    1.0000000000000000E+00     8.1249999999951039E-01     0.0000000000000000E+00 
    1.0000000000000000E+00     8.4374999999959199E-01     0.0000000000000000E+00 
    1.0000000000000000E+00     8.7499999999967359E-01     0.0000000000000000E+00 
    1.0000000000000000E+00     9.0624999999975520E-01     0.0000000000000000E+00 
    1.0000000000000000E+00     9.3749999999983680E-01     0.0000000000000000E+00 
    1.0000000000000000E+00     9.6874999999991840E-01     0.0000000000000000E+00 
    9.6875000000003686E-01     1.0000000000000000E+00     0.0000000000000000E+00 
    9.3750000000011691E-01     1.0000000000000000E+00     0.0000000000000000E+00 
    9.0625000000015765E-01     1.0000000000000000E+00     0.0000000000000000E+00 
    8.7500000000017863E-01     1.0000000000000000E+00     0.0000000000000000E+00 
    8.4375000000028044E-01     1.0000000000000000E+00     0.0000000000000000E+00 
    8.1250000000040856E-01     1.0000000000000000E+00     0.0000000000000000E+00 
    7.8125000000054956E-01     1.0000000000000000E+00     0.0000000000000000E+00 
    7.5000000000066480E-01     1.0000000000000000E+00     0.0000000000000000E+00 
    7.1875000000086831E-01     1.0000000000000000E+00     0.0000000000000000E+00 
    6.8750000000102829E-01     1.0000000000000000E+00     0.0000000000000000E+00 
    6.5625000000114431E-01     1.0000000000000000E+00     0.0000000000000000E+00 
    6.2500000000129829E-01     1.0000000000000000E+00     0.0000000000000000E+00 
    5.9375000000147926E-01     1.0000000000000000E+00     0.0000000000000000E+00 
    5.6250000000168354E-01     1.0000000000000000E+00     0.0000000000000000E+00 
    5.3125000000188671E-01     1.0000000000000000E+00     0.0000000000000000E+00 
    5.0000000000205835E-01     1.0000000000000000E+00     0.0000000000000000E+00 
    4.6875000000192979E-01     1.0000000000000000E+00     0.0000000000000000E+00 
    4.3750000000180111E-01     1.0000000000000000E+00     0.0000000000000000E+00 
    4.0625000000167238E-01     1.0000000000000000E+00     0.0000000000000000E+00 
    3.7500000000154382E-01     1.0000000000000000E+00     0.0000000000000000E+00 
    3.4375000000141509E-01     1.0000000000000000E+00     0.0000000000000000E+00 
    3.1250000000128642E-01     1.0000000000000000E+00     0.0000000000000000E+00 
    2.8125000000115769E-01     1.0000000000000000E+00     0.0000000000000000E+00 
    2.5000000000102918E-01     1.0000000000000000E+00     0.0000000000000000E+00 
    2.1875000000090050E-01     1.0000000000000000E+00     0.0000000000000000E+00 
    1.8750000000077180E-01     1.0000000000000000E+00     0.0000000000000000E+00 
    1.5625000000064329E-01     1.0000000000000000E+00     0.0000000000000000E+00 
    1.2500000000051459E-01     1.0000000000000000E+00     0.0000000000000000E+00 
    9.3750000000385914E-02     1.0000000000000000E+00     0.0000000000000000E+00 
    6.2500000000257239E-02     1.0000000000000000E+00     0.0000000000000000E+00 
    3.1250000000128557E-02     1.0000000000000000E+00     0.0000000000000000E+00 
    0.0000000000000000E+00     9.6875000000003686E-01     0.0000000000000000E+00 
    0.0000000000000000E+00     9.3750000000011691E-01     0.0000000000000000E+00 
    0.0000000000000000E+00     9.0625000000015765E-01     0.0000000000000000E+00 
    0.0000000000000000E+00     8.7500000000017863E-01     0.0000000000000000E+00 
    0.0000000000000000E+00     8.4375000000028044E-01     0.0000000000000000E+00 
    0.0000000000000000E+00     8.1250000000040856E-01     0.0000000000000000E+00 
    0.0000000000000000E+00     7.8125000000054956E-01     0.0000000000000000E+00 
    0.0000000000000000E+00     7.5000000000066480E-01     0.0000000000000000E+00 
    0.0000000000000000E+00     7.1875000000086831E-01     0.0000000000000000E+00 
    0.0000000000000000E+00     6.8750000000102829E-01     0.0000000000000000E+00 
    0.0000000000000000E+00     6.5625000000114431E-01     0.0000000000000000E+00 
    0.0000000000000000E+00     6.2500000000129829E-01     0.0000000000000000E+00 
    0.0000000000000000E+00     5.9375000000147926E-01     0.0000000000000000E+00 
    0.0000000000000000E+00     5.6250000000168354E-01     0.0000000000000000E+00 
    0.0000000000000000E+00     5.3125000000188671E-01     0.0000000000000000E+00 
    0.0000000000000000E+00     5.0000000000205835E-01     0.0000000000000000E+00 
    0.0000000000000000E+00     4.6875000000192979E-01     0.0000000000000000E+00 
    0.0000000000000000E+00     4.3750000000180111E-01     0.0000000000000000E+00 
    0.0000000000000000E+00     4.0625000000167238E-01     0.0000000000000000E+00 
[...]
CELL_DATA 2795 
SCALARS Pressure double 1 
LOOKUP_TABLE default 

    8.1809991461761413E+00 
    1.7933116722502294E+01 
    1.2634674379689093E+01 
    1.2354066472766624E+01 
    9.9970174070776245E+00 
    1.7746025268989545E+01 
    1.8627550589680666E+01 
    7.3300959404228694E+00 
    1.3166695139807956E+01 
    1.0256281238884231E+01 
    8.8236767605237283E+00 
    1.7425389987517537E+01 
    1.7845679290021423E+01 
    1.7707143028419377E+01 
    1.1713443976158777E+01 
    7.2092434554607463E+00 
    1.1483866266665080E+01 
    9.3608472486108472E+00 
    1.6964604098502441E+01 
    1.2616194720750975E+01 
    1.2516386971279534E+01 
    1.7624209405674119E+01 
    1.2054417755912549E+01 
    4.8945838736969360E-01 
    1.7378367710863625E+01 
    1.7786310391358580E+01 
    1.8664787184924467E+01 
    8.5459828604295058E+00 
    1.7327412549073649E+01 
    1.8646389895946530E+01 
    1.2841281303411636E+01 
    1.2814475406159826E+01 
    9.2945593389135777E+00 
    1.2599112271798601E+01 
    4.2765212882585253E+00 
    1.1484740915127736E+01 
    1.2584903532189823E+01 
    1.8691593677974481E+01 
    1.8600743132710669E+01 
    1.7441118981428716E+01 
    9.9218762283593271E+00 
    1.7421171569500277E+01 
    1.0191784142133586E+00 
    1.2613538783321140E+01 
    1.8411882797537011E+01 
    1.8102280182131089E+01 
    1.7412264419436397E+01 
    1.3565513675565029E+01 
    1.7452586635417752E+01 
    1.1731395810925878E+01 
    1.1216499485359252E+01 
    1.2779250496817191E+01 
    1.2504295755153647E+01 
    1.1555767754280014E+01 
    1.2919091988554911E+01 
    1.6684944085996730E+01 
    1.4701618545361006E+01 
    1.0048519043579820E+01 
    1.7632244428704798E+01 
    1.7531062202713311E+01 
    1.2330822644805629E+01 
    1.2185606070920825E+01 
    1.2248243147280721E+01 
    1.8532744856387996E+01 
    1.8852509279557783E+01 
    1.1503302600864759E+01 
    1.2777646659433065E+01 
    1.7114235682732197E+01 
    1.4536108126892284E+01 
    1.2246265229899329E+01 
    1.8845792036574924E+01 
    1.7579854237897226E+01 
    1.1349905857535775E+01 
    1.8221124513953086E+01 
    1.3180564650375148E+01 
    1.7201728343459976E+01 
    1.8714534139473784E+01 
    1.3209763353281666E+01 
    8.2711926068876664E+00 
    1.2795865635123659E+01 
    1.8610997590843240E+01 
    1.8870927615971056E+01 
    1.1498776020621966E+01 
    1.2723553969240346E+01 
    1.8929788181971329E+01 
    1.2583267726472487E+01 
    1.2152121339669517E+01 
    1.5054893735167466E+01 
    7.9384187781635784E+00 
    1.1253132829517074E+01 
    1.2720766738056097E+01 
    1.3318625917328273E+01 
    2.0529031036120212E+01 
    9.7227505970280959E+00 
    1.2785511109992155E+01 
    1.7385369846431622E+01 
    1.7782768810324477E+01 
    8.5917571344129904E+00 
    1.2447552257474937E+01 
    1.2753472345205394E+01 
    1.7810579528552370E+01 
    1.2744033550046021E+01 
    1.7712624118910234E+01 
    5.2754956148767000E+00 
    8.5760565743590647E+00 
    1.3004040153887214E+01 
    1.7941046281281029E+01 
    1.1446862607855481E+01 
    1.2074400617485958E+01 
    1.2721195117288152E+01 
    1.2117404175583568E+01 
    1.4295224443592527E+01 
    1.1775767161298020E+01 
    1.1360359113622474E+01 
    8.9683565157417746E+00 
    1.5045516228093744E+01 
    1.2819060415158770E+01 
    1.8434286446743855E+01 
    1.1089310367327718E+01 
    1.2333422204191086E+01 
    1.7582102307222833E+01 
    1.0474490081682800E+01 
    1.8135014835542584E+01 
    1.2654095817030541E+01 
    1.2258141947746340E+01 
    1.7786358107696344E+01 
    1.2808243177879532E+01 
    1.8725820935404023E+01 
    1.5085926684875460E+01 
    1.6416555978087196E+01 
    1.8684460686113155E+01 
    9.7399625026102257E+00 
    1.3024211235541870E+01 
    1.7774009986485844E+01 
    3.9401813292068426E+00 
    1.2895033371095980E+01 
    1.8644883218246459E+01 
    1.2287879639079117E+01 
    1.3992982704768931E+01 
    8.4735730981589175E+00 
    1.7380023115680761E+01 
    2.1036559424082050E+01 
    1.5679331533652864E+01 
    1.2288687394248019E+01 
    1.1118280530452560E+01 
    1.3633931758291164E+01 
    1.2670629748475024E+01 
    8.9495536673899796E+00 
    1.8678416268603478E+01 
    1.7766587981544841E+01 
    1.7387167292427037E+01 
    1.3320089202225843E+01 
    1.1323705700371018E+01 
    1.2511541802295044E+01 
    1.8252964428752723E+01 
    1.1601115718329142E+01 
    1.2790449183268292E+01 
    1.1785503294372049E+01 
    1.4800635499362402E+01 
    2.1024177941125654E+01 
    1.7377357525773458E+01 
    1.1267365536304567E+01 
    1.8016827883562620E+01 
    1.7893432417309388E+01 
    1.7987670370907949E+01 
    1.9154056693210187E+01 
    1.9756919393760512E+01 
    1.8081803471574958E+01 
    1.2769340453487670E+01 
    1.3783940189497415E+01 
    1.7885406955243386E+01 
    1.8442067219247470E+01 
    9.3450078791955669E+00 
    1.7411404558964101E+01 
    1.8204092051010573E+01 
    9.0894783766121154E+00 
    1.9069050435937591E+01 
    1.9036940159793314E+01 
    1.7039467476044134E+01 
    1.3096741268678079E+01 
    3.5264463987672947E+00 
    1.8645492987263999E+01 
    1.2941901863510470E+01 
    1.8789724004206164E+01 
    1.2210788396451518E+01 
    1.8403269658430073E+01 
    1.2727467715056866E+00 
    1.6367895621876794E+01 
    1.2232482960001745E+01 
    1.1272635305467697E+01 
    1.0995351036934524E+01 
    1.2622597267503687E+01 
    1.3859858386478562E+01 
    1.3272411503808026E+01 
    9.0681844873304041E+00 
    1.8438982307182332E+01 
    1.7798730236521152E+01 
    1.4670868129509929E+01 
    1.2994870387875403E+01 
    1.9978873068858369E+00 
    1.0178072266460601E+01 
    7.1200012098597876E+00 
    1.8660100572003916E+01 
    1.4161878346685748E+01 
    1.7789233742656574E+01 
    1.7882198961539590E+01 
    1.1681588808050323E+01 
    1.4767247680979590E+01 
    1.7378962344873717E+01 
    1.9021498928333067E+01 
    8.4719691743121004E+00 
    1.5701135279356890E+01 
    1.3243152560494154E+01 
    7.5701062535467427E+00 
    1.1680499508649184E+01 
    1.5422960793803766E+01 
    1.7833435165073794E+01 
    1.2672675190253916E+01 
    1.7963859911853163E+01 
    1.7684165591557655E+01 
    1.7620683753658462E+01 
    1.2514856022730417E+01 
    1.1144947037410097E+01 
    1.7396019612671363E+01 
    1.1344248301042279E+01 
    1.2752553851737668E+01 
    1.1141095711962741E+01 
    1.2740290133037862E+01 
    1.7896041481961543E+01 
    8.0908525950829020E+00 
    1.1577642731643879E+01 
    1.8566148955230002E+01 
    1.2522419027129374E+01 
    1.4044412613035425E+01 
    8.3026504693313310E+00 
    1.1411671929046827E+01 
    1.7657674211113999E+01 
    1.8029138789960324E+01 
    6.8034315859610253E+00 
    1.2535958656002373E+01 
    1.1211116026595430E+01 
    1.9501844244293675E+01 
    1.8884312429457243E+01 
    1.9788429963107664E+01 
    1.2555626283518881E+01 
    1.7858948209844147E+01 
    1.7309961621013237E+01 
    1.2414073890518736E+01 
    1.7388020896554107E+01 
    1.2995274351133707E+01 
    7.6427701401805050E+00 
    1.2940138185337336E+01 
    1.8547460907814131E+01 
    1.7384215142593511E+01 
    8.8201925202900764E+00 
    1.7420433202739211E+01 
    1.3891014632016697E+01 
    1.2872678506997937E+01 
    1.2369106370393188E+01 
    1.7219256261366208E+01 
    1.3451516428726304E+01 
    1.7402926005827446E+01 
    1.2545912151634354E+01 
    7.8745106547294297E+00 
    1.2828099087636838E+01 
    1.1004345362648964E+01 
    1.5714037963648931E+01 
    1.8784066467370465E+01 
    1.7393033932383208E+01 
    1.8637150243646747E+01 
    1.2463059411551868E+01 
    8.5697392692858152E+00 
    8.6827170966536809E+00 
    1.3080431706637102E+01 
    1.2724363632961403E+01 
    1.9667095246458199E+00 
    1.6680446647551559E+01 
    1.9196181914454851E+01 
    1.2228054010192240E+01 
    7.9833815542050610E+00 
    1.4605337692926311E+01 
    1.7417244867062301E+01 
    9.4301285504780488E+00 
    6.4687490147460656E+00 
    1.2709448187346458E+01 
    1.7503250812473912E+01 
    1.8331882335007858E+01 
    1.8123577105878873E+01 
    1.8030094813913724E+01 
    9.1893308808689707E+00 
    1.2866209887395565E+01 
    1.6836851897776569E+01 
    1.0077770365852835E+01 
    1.7829486637551010E+01 
    1.5033234252083989E+01 
    8.7948453008330016E+00 
    1.7513908609962748E+01 
    1.8679177829697860E+01 
    1.7585374923656577E+01 
    9.0912811988845466E+00 
    1.2773711918372205E+01 
    9.9689150917019322E+00 
    1.2090336230629994E+01 
    1.7408014799926654E+01 
    1.7393600386435278E+01 
    9.1421309098709340E+00 
    1.8462829131531461E+01 
    1.3369042735172844E+01 
    1.7426939828709401E+01 
    1.8470103792249393E+01 
    1.7414235080219363E+01 
    1.5977802590672498E+01 
    1.9565343906301461E+01 
    1.2171409860333684E+01 
    1.8600620423347660E+01 
    1.7459536303940677E+01 
    1.8687014382568211E+01 
    1.8460064767382551E+01 
    1.2284619674863327E+01 
    1.2623996047632300E+01 
    1.2218444325994115E+01 
    1.5323726600668900E+01 
    5.2952097483832317E+00 
    1.3008999036527884E+01 
    1.9702102119117203E+01 
    1.3000684439203459E+01 
    1.3221161081066564E+01 
    1.8655178555626872E+01 
    1.8921083949540748E+01 
    1.2072438755204496E+01 
    1.7425711596818218E+01 
    1.7388248455318880E+01 
    1.3206274232270449E+01 
    1.8408311169271428E+01 
    9.2551733086853378E+00 
    5.9503784492293494E+00 
    1.3541704026893642E+01 
    1.3014232958582957E+01 
    1.7391421164769032E+01 
    8.5667766260517606E+00 
    1.8043861082812864E+01 
    6.0779388583296630E+00 
    1.2948487395331153E+01 
    1.2307181979182666E+01 
    1.2750664906306881E+01 
    2.1074167988181895E+01 
    5.1441848664493399E+00 
    1.2914871052844479E+01 
    1.5341855035331225E+01 
    1.2357089766808587E+01 
    9.9702629678826273E+00 
    1.8230041400832125E+01 
    2.0628779811319749E+01 
    1.8372353630055262E+01 
    1.2846444738057022E+01 
    7.5410810264464185E+00 
    2.0463560428603127E+01 
    1.7791577667924859E+01 
    9.4935771860433746E+00 
    1.2448442912005529E+01 
    1.9133579025366949E+01 
    4.3706884607988856E+00 
    1.3075494262223156E+01 
    1.8393733433833322E+01 
    1.2766073568555010E+01 
    1.1189808171531460E+01 
    1.2960173248114186E+01 
    1.6957465042800752E+01 
    1.2748573701891949E+01 
    6.7404722457650683E+00 
    1.2641707193909042E+00 
    9.6579264097836983E+00 
    1.9391219521576716E+01 
    1.2217702419687861E+01 
    1.4375607288280856E+01 
    1.3802329236917826E+01 
    1.5747838526311840E+01 
    1.2779447144774629E+01 
    1.7678235274452117E+01 
    2.1088661792416637E+01 
    1.4959665066488578E+01 
    1.8567425456661674E+01 
    7.3301578997604766E-01 
    1.7395869071723592E+01 
    7.3924001602557619E+00 
    1.9884766359208431E+01 
    1.2930393345992028E+01 
    1.1415265818046612E+01 
    1.0158355531238296E+01 
    7.0708303768491758E+00 
    1.4095468685226008E+01 
    1.0202377135716338E+01 
    1.5578329901886635E+01 
    2.9839541608299185E+00 
    1.3935479769188538E+01 
    1.7302912129052938E+01 
    7.8825366013455733E+00 
    1.7921977867883889E+01 
    1.9666242602289241E+01 
    1.7761445781083623E+01 
    1.2776161804880331E+01 
    1.2744463508937276E+01 
    1.2922104107219599E+01 
    7.6445880255584706E+00 
    1.1909127976245987E+01 
    1.1732285132011699E+01 
    1.2909598513358713E+01 
    1.2140736223527439E+01 
    9.4343028043687349E-01 
    8.4097314176061424E+00 
    1.2571459662115819E+01 
    1.2880922455577602E+01 
    1.6039122529447688E+01 
    2.8595993446235508E+00 
    1.3158506583919349E+01 
    1.3022501158623299E+01 
    4.9486049453098309E+00 
    1.7599970168069035E+01 
    1.1347689537336596E+01 
    1.2878606984331933E+01 
    1.7800087914870456E+01 
    7.0976805329923973E+00 
    1.7726546902343241E+01 
    1.1496912694110131E+01 
    1.2942182449678958E+00 
    1.2285578489536594E+01 
    1.8499458278343671E+01 
    1.7395454448770497E+01 
    1.7416808279564396E+01 
    1.3314104161053173E+01 
    1.2951376852824279E+01 
    1.1340089075447809E+01 
    9.0972699461117603E+00 
    1.7941141358315914E+01 
    1.2443625447494350E+01 
    8.8550029518342068E+00 
    1.7412136675691539E+01 
    1.8230048469348837E+01 
    1.3106155046544073E+01 
    1.2570970237388721E+01 
    2.0963886705327383E+01 
    1.3207420603380401E+01 
    1.7947211930318023E+01 
    1.0814005344257396E+01 
    2.1116580617663157E+01 
    8.6300765766464700E+00 
    1.1776921240747432E+01 
    9.6645198139091377E+00 
    1.3483215091723389E+01 
    1.0978607269521426E+01 
    2.1099941156820535E+01 
    1.3264644765313431E+01 
    1.6920798095868772E+01 
    8.8818315707268756E+00 
    1.2774065983658380E+01 
    1.7746688735041754E+01 
    1.1044060207873015E+01 
    9.4703083692836039E+00 
    1.4279614952870860E+01 
    1.8001936735858916E+01 
    9.4655895410225863E+00 
    1.2331900306936536E+01 
    1.2608148239403684E+01 
    1.7366258130713533E+01 
    1.2378851752431800E+01 
    1.7984132048198976E+01 
    1.8720983017299165E+01 
    1.1373709268112016E+01 
    1.1164574912908362E+01 
    1.0220272452549539E+01 
    1.7536615790641008E+01 
    1.3040859008027537E+01 
    2.0666498111609350E+01 
    1.6176667120344366E+01 
    1.7699457342112435E+01 
    2.0328191213746468E+01 
    1.9668236222651064E+01 
    1.2820632644085023E+01 
    1.2892294463142354E+01 
    1.7014077017728368E+01 
    1.7443017871756368E+01 
    1.8142967475113657E+01 
    1.7822164689250304E+01 
    2.0989050933998069E+01 
    1.3206844411586832E+01 
    1.1489852053477254E+01 
    1.3176446794965575E+01 
    1.8618024151709680E+01 
    1.2915671741253894E+01 
    7.7470108168427343E+00 
    1.2757757496211561E+01 
    1.9102876759756242E+01 
    1.3063889568284351E+01 
    1.1498488173941544E+01 
    1.2550102331618355E+01 
    1.9226483428817129E+01 
    1.7500228779856389E+01 
    1.0994516662880379E+01 
    1.9382717796220799E+01 
    1.2849059821586927E+01 
    1.8109893491325661E+01 
    1.9242830701939560E+01 
    1.3575311580731213E+01 
    7.1038649519145531E+00 
    1.4087372388265250E+01 
    7.3397036354687311E+00 
    1.2965680256455975E+01 
    1.2770322124135298E+01 
    1.4812865879102180E+01 
    7.7458811810214687E+00 
    1.5736252028355571E+01 
    1.2786785079168075E+01 
    1.7806852764637615E+01 
    1.3709366032047308E+01 
    1.0616228359959416E+01 
    1.2408835776456506E+01 
    1.3489387025588806E+01 
    1.3330238448648149E+01 
    1.8781578896551402E+01 
    1.1021064097393923E+01 
    1.0835689634877431E+01 
    8.1315199876932560E+00 
    1.8170789594370984E+01 
    1.2455572511462867E+01 
    1.7207112613002526E+01 
    1.2739690197161442E+01 
    8.8780359101374700E+00 
    1.7525744516896204E+01 
    1.2716852163644983E+01 
    9.6801668177782947E+00 
    1.0237839279526252E+01 
    1.0580543245004609E+01 
    1.7852695407329353E+01 
    1.2911863062474067E+01 
    1.8581874268911672E+01 
    1.2678194601284078E+01 
    1.2618366511133926E+01 
    1.2239783557076727E+01 
    1.7639672421266631E+01 
    1.2532492560444981E+01 
    1.0631723961525775E+01 
    1.9655036656992369E+01 
    1.7750377536907916E+01 
    9.0467255359913761E+00 
    3.6162700196676409E+00 
    1.2899939177756480E+01 
    1.2066403255429956E+01 
    1.1159461114414365E+01 
    1.2012797821535219E+01 
    1.7651442806207026E+01 
    1.2566693776610963E+01 
    1.1530064084888295E+01 
    1.7470342954491617E+01 
    8.9537408812626769E+00 
    1.6989915336500037E+01 
    1.1645467403750166E+01 
    1.0543816337378566E+01 
    1.1257013352180889E+01 
    1.8209058024735565E+01 
    1.2753128479515908E+01 
    1.2761629584048588E+01 
    7.8594982792095589E+00 
    8.4801309779183214E+00 
    1.6043330999666956E+01 
    1.2771511287915127E+01 
    1.2945283110091232E+01 
    1.9366034085095556E+01 
    1.0829062891960842E+01 
    1.2783783248235236E+01 
    9.2502942713878298E+00 
    9.5277901842040951E+00 
    1.7611828531413106E+01 
    1.2403762979916111E+01 
    9.3280684455199854E+00 
    1.3322336675740067E+01 
    1.2676786191264990E+01 
    1.7621411906002788E+01 
    1.9469886039319750E+01 
    1.3732803067053072E+00 
    1.2905486585540290E+01 
    1.3012994478923163E+01 
    1.7720919795366598E+01 
    1.2364107482065545E+01 
    1.2725316855714098E+01 
    1.8848755831927821E+01 
    1.1300487988510987E+01 
    9.4088794363991184E+00 
    1.5191381915970112E+01 
    1.7412507605073849E+01 
    1.8684847835743302E+01 
    1.8987357417058252E+01 
    1.2726850666938020E+01 
    1.2895817461904503E+01 
    1.4153142409873375E+01 
    8.6156355005385663E+00 
    1.7575074181106739E+01 
    1.0121600807751129E+01 
    8.9485677703413629E+00 
    1.5778841081807075E+01 
    1.4834470565386960E+01 
    8.7872663171903032E+00 
    1.7456762741562951E+01 
    1.8668607510013391E+01 
    1.3225645301971571E+01 
    1.9583038220960507E+01 
    1.7498104272454192E+01 
    1.2432507478860332E+01 
    1.8337140163824820E+01 
    9.5378882118731578E+00 
    1.7435599803130515E+01 
    1.2904277382435286E+01 
    1.2860925227994688E+01 
    1.9558359302064776E+01 
    1.2498145892720471E+01 
    1.5437907157191104E+01 
    1.1231772176959970E+01 
    1.8806697883388377E+01 
    1.7316935553623452E+01 
    1.1683390923191830E+01 
    1.7380397487098428E+01 
    1.1716811407730324E+01 
    1.2732115936286505E+01 
    1.8620420809965498E+01 
    1.7826101635975014E+01 
    1.8672166334450871E+01 
    1.7726339313236721E+01 
    1.1921894875029071E+01 
    1.2155985923982001E+01 
    1.8680817156318355E+01 
    1.2299031038683896E+01 
    1.7168485318248003E+01 
    1.2478512613342932E+01 
    5.3487187308842357E+00 
    9.0143068397856290E+00 
    8.3750712794722766E+00 
    1.8624642222572529E+01 
    1.9477553839697286E+01 
    1.7403517759534008E+01 
    1.4550842486141377E+01 
    1.7757289445003195E+01 
    1.7467590274433078E+01 
    1.8197670680143322E+01 
    7.5958453215376380E+00 
    4.9759371714633929E+00 
    1.4286448117299118E+01 
    1.2536502245193816E+01 
    1.7655777014878304E+01 
    1.7652811742066028E+01 
    1.3033087057795079E+01 
    1.7699577597107105E+01 
    1.2889368085733739E+01 
    1.2789418044148833E+01 
    6.8780750818819962E+00 
    4.9513116618180737E+00 
    1.9220503582415912E+01 
    1.0098294516714061E+01 
    1.1599757953009572E+01 
    1.2927822652420577E+01 
    2.0966691193804635E+01 
    1.3023244055340077E+01 
    1.3230363492674064E+01 
    5.6599603322940055E+00 
    1.3023100926321671E+01 
    1.3037931852605910E+01 
    1.7965927505722242E+01 
    1.1258263614263392E+01 
    1.2266773147211209E+01 
    1.9413949198306959E+01 
    1.2914875607621660E+01 
    1.7423566426734201E+01 
    1.7692999283005928E+01 
    1.5515984360036564E+01 
    1.0939251123745652E+01 
    1.7726572495197306E+01 
    1.2686730480990411E+01 
    1.7616075460369711E+01 
    1.7349420046722436E+01 
    1.8647624784352040E+01 
    1.7719681155185395E+01 
    1.6378380814907825E+01 
    1.2902096164495486E+01 
    8.7014734501508784E+00 
    2.0835301936844520E+01 
    1.0325272661823814E+01 
    1.8551320570124957E+01 
    1.2899189155854161E+01 
    1.0887856289900334E+01 
    6.5836413620478123E+00 
    1.3076673529329959E+01 
    1.7706915033483469E+01 
    1.7702272297838871E+01 
    1.2711990140308759E+01 
    1.2892659242653187E+01 
    1.9644025254867049E+01 
    1.8922082200897488E+01 
    1.3044482025803052E+01 
    4.6330850198711309E+00 
    1.6266640404675861E+01 
    2.1096668141388054E+01 
    1.2905815640850806E+01 
    1.5012815462697846E+01 
    1.2362500495714974E+01 
    2.0684735053756278E+01 
    1.9017777686196244E+01 
    1.8731501964218786E+01 
    1.3068351800553010E+01 
    6.1201425156539111E+00 
    1.2317242850082589E+01 
    1.2388696886507507E+01 
    1.2434503242826064E+01 
    5.0656374988717516E+00 