# vtk DataFile Version 2.0
Pressure Field Data 
ASCII 
DATASET UNSTRUCTURED_GRID 

POINTS 2860 double 

    0.0000000000000000E+00     0.0000000000000000E+00     0.0000000000000000E+00 
    1.0000000000000000E+00     0.0000000000000000E+00     0.0000000000000000E+00 
    1.0000000000000000E+00     1.0000000000000000E+00     0.0000000000000000E+00 
    0.0000000000000000E+00     1.0000000000000000E+00     0.0000000000000000E+00 
    2.5000000000000000E-01     2.5000000000000000E-01     0.0000000000000000E+00 
    7.5000000000000000E-01     2.5000000000000000E-01     0.0000000000000000E+00 
    7.5000000000000000E-01     7.5000000000000000E-01     0.0000000000000000E+00 
    2.5000000000000000E-01     7.5000000000000000E-01     0.0000000000000000E+00 
    3.1249999999942091E-02     0.0000000000000000E+00     0.0000000000000000E+00 
    6.2499999999873469E-02     0.0000000000000000E+00     0.0000000000000000E+00 
    9.3749999999826514E-02     0.0000000000000000E+00     0.0000000000000000E+00 
    1.2499999999977961E-01     0.0000000000000000E+00     0.0000000000000000E+00 
    1.5624999999968961E-01     0.0000000000000000E+00     0.0000000000000000E+00 
    1.8749999999959971E-01     0.0000000000000000E+00     0.0000000000000000E+00 
    2.1874999999950970E-01     0.0000000000000000E+00     0.0000000000000000E+00 
    2.4999999999941969E-01     0.0000000000000000E+00     0.0000000000000000E+00 
    2.8124999999932920E-01     0.0000000000000000E+00     0.0000000000000000E+00 
    3.1249999999923850E-01     0.0000000000000000E+00     0.0000000000000000E+00 
    3.4374999999914790E-01     0.0000000000000000E+00     0.0000000000000000E+00 
    3.7499999999905720E-01     0.0000000000000000E+00     0.0000000000000000E+00 
    4.0624999999896660E-01     0.0000000000000000E+00     0.0000000000000000E+00 
    4.3749999999887590E-01     0.0000000000000000E+00     0.0000000000000000E+00 
    4.6874999999878530E-01     0.0000000000000000E+00     0.0000000000000000E+00 
    4.9999999999869471E-01     0.0000000000000000E+00     0.0000000000000000E+00 
    5.3124999999877620E-01     0.0000000000000000E+00     0.0000000000000000E+00 
    5.6249999999885780E-01     0.0000000000000000E+00     0.0000000000000000E+00 
    5.9374999999893940E-01     0.0000000000000000E+00     0.0000000000000000E+00 
    6.2499999999902101E-01     0.0000000000000000E+00     0.0000000000000000E+00 
    6.5624999999910261E-01     0.0000000000000000E+00     0.0000000000000000E+00 
    6.8749999999918421E-01     0.0000000000000000E+00     0.0000000000000000E+00 
    7.1874999999926570E-01     0.0000000000000000E+00     0.0000000000000000E+00 
    7.4999999999934730E-01     0.0000000000000000E+00     0.0000000000000000E+00 
    7.8124999999942890E-01     0.0000000000000000E+00     0.0000000000000000E+00 
    8.1249999999951039E-01     0.0000000000000000E+00     0.0000000000000000E+00 
    8.4374999999959199E-01     0.0000000000000000E+00     0.0000000000000000E+00 
    8.7499999999967359E-01     0.0000000000000000E+00     0.0000000000000000E+00 
    9.0624999999975520E-01     0.0000000000000000E+00     0.0000000000000000E+00 
    9.3749999999983680E-01     0.0000000000000000E+00     0.0000000000000000E+00 
    9.6874999999991840E-01     0.0000000000000000E+00     0.0000000000000000E+00 
    1.0000000000000000E+00     3.1249999999942091E-02     0.0000000000000000E+00 
    1.0000000000000000E+00     6.2499999999873469E-02     0.0000000000000000E+00 
    1.0000000000000000E+00     9.3749999999826514E-02     0.0000000000000000E+00 
    1.0000000000000000E+00     1.2499999999977961E-01     0.0000000000000000E+00 
    1.0000000000000000E+00     1.5624999999968961E-01     0.0000000000000000E+00 
    1.0000000000000000E+00     1.8749999999959971E-01     0.0000000000000000E+00 
    1.0000000000000000E+00     2.1874999999950970E-01     0.0000000000000000E+00 
    1.0000000000000000E+00     2.4999999999941969E-01     0.0000000000000000E+00 
    1.0000000000000000E+00     2.8124999999932920E-01     0.0000000000000000E+00 
    1.0000000000000000E+00     3.1249999999923850E-01     0.0000000000000000E+00 
    1.0000000000000000E+00     3.4374999999914790E-01     0.0000000000000000E+00 
    1.0000000000000000E+00     3.7499999999905720E-01     0.0000000000000000E+00 
    1.0000000000000000E+00     4.0624999999896660E-01     0.0000000000000000E+00 
    1.0000000000000000E+00     4.3749999999887590E-01     0.0000000000000000E+00 
    1.0000000000000000E+00     4.6874999999878530E-01     0.0000000000000000E+00 
    1.0000000000000000E+00     4.9999999999869471E-01     0.0000000000000000E+00 
    1.0000000000000000E+00     5.3124999999877620E-01     0.0000000000000000E+00 
    1.0000000000000000E+00     5.6249999999885780E-01     0.0000000000000000E+00 
    1.0000000000000000E+00     5.9374999999893940E-01     0.0000000000000000E+00 
    1.0000000000000000E+00     6.2499999999902101E-01     0.0000000000000000E+00 
    1.0000000000000000E+00     6.5624999999910261E-01     0.0000000000000000E+00 
    1.0000000000000000E+00     6.8749999999918421E-01     0.0000000000000000E+00 
    1.0000000000000000E+00     7.1874999999926570E-01     0.0000000000000000E+00 
    1.0000000000000000E+00     7.4999999999934730E-01     0.0000000000000000E+00 
    1.0000000000000000E+00     7.8124999999942890E-01     0.0000000000000000E+00 
    1.0000000000000000E+00     8.1249999999951039E-01     0.0000000000000000E+00 
    1.0000000000000000E+00     8.4374999999959199E-01     0.0000000000000000E+00 
    1.0000000000000000E+00     8.7499999999967359E-01     0.0000000000000000E+00 
    1.0000000000000000E+00     9.0624999999975520E-01     0.0000000000000000E+00 
    1.0000000000000000E+00     9.3749999999983680E-01     0.0000000000000000E+00 
    1.0000000000000000E+00     9.6874999999991840E-01     0.0000000000000000E+00 
    9.6875000000003686E-01     1.0000000000000000E+00     0.0000000000000000E+00 
    9.3750000000011691E-01     1.0000000000000000E+00     0.0000000000000000E+00 
    9.0625000000015765E-01     1.0000000000000000E+00     0.0000000000000000E+00 
    8.7500000000017863E-01     1.0000000000000000E+00     0.0000000000000000E+00 
    8.4375000000028044E-01     1.0000000000000000E+00     0.0000000000000000E+00 
    8.1250000000040856E-01     1.0000000000000000E+00     0.0000000000000000E+00 
    7.8125000000054956E-01     1.0000000000000000E+00     0.0000000000000000E+00 
    7.5000000000066480E-01     1.0000000000000000E+00     0.0000000000000000E+00 
    7.1875000000086831E-01     1.0000000000000000E+00     0.0000000000000000E+00 
    6.8750000000102829E-01     1.0000000000000000E+00     0.0000000000000000E+00 
    6.5625000000114431E-01     1.0000000000000000E+00     0.0000000000000000E+00 
    6.2500000000129829E-01     1.0000000000000000E+00     0.0000000000000000E+00 
    5.9375000000147926E-01     1.0000000000000000E+00     0.0000000000000000E+00 
    5.6250000000168354E-01     1.0000000000000000E+00     0.0000000000000000E+00 
    5.3125000000188671E-01     1.0000000000000000E+00     0.0000000000000000E+00 
    5.0000000000205835E-01     1.0000000000000000E+00     0.0000000000000000E+00 
    4.6875000000192979E-01     1.0000000000000000E+00     0.0000000000000000E+00 
    4.3750000000180111E-01     1.0000000000000000E+00     0.0000000000000000E+00 
    4.0625000000167238E-01     1.0000000000000000E+00     0.0000000000000000E+00 
    3.7500000000154382E-01     1.0000000000000000E+00     0.0000000000000000E+00 
    3.4375000000141509E-01     1.0000000000000000E+00     0.0000000000000000E+00 
    3.1250000000128642E-01     1.0000000000000000E+00     0.0000000000000000E+00 
    2.8125000000115769E-01     1.0000000000000000E+00     0.0000000000000000E+00 
    2.5000000000102918E-01     1.0000000000000000E+00     0.0000000000000000E+00 
    2.1875000000090050E-01     1.0000000000000000E+00     0.0000000000000000E+00 
    1.8750000000077180E-01     1.0000000000000000E+00     0.0000000000000000E+00 
    1.5625000000064329E-01     1.0000000000000000E+00     0.0000000000000000E+00 
    1.2500000000051459E-01     1.0000000000000000E+00     0.0000000000000000E+00 
    9.3750000000385914E-02     1.0000000000000000E+00     0.0000000000000000E+00 
    6.2500000000257239E-02     1.0000000000000000E+00     0.0000000000000000E+00 
    3.1250000000128557E-02     1.0000000000000000E+00     0.0000000000000000E+00 
    0.0000000000000000E+00     9.6875000000003686E-01     0.0000000000000000E+00 
    0.0000000000000000E+00     9.3750000000011691E-01     0.0000000000000000E+00 
    0.0000000000000000E+00     9.0625000000015765E-01     0.0000000000000000E+00 
    0.0000000000000000E+00     8.7500000000017863E-01     0.0000000000000000E+00 
    0.0000000000000000E+00     8.4375000000028044E-01     0.0000000000000000E+00 
    0.0000000000000000E+00     8.1250000000040856E-01     0.0000000000000000E+00 
    0.0000000000000000E+00     7.8125000000054956E-01     0.0000000000000000E+00 
    0.0000000000000000E+00     7.5000000000066480E-01     0.0000000000000000E+00 
    0.0000000000000000E+00     7.1875000000086831E-01     0.0000000000000000E+00 
    0.0000000000000000E+00     6.8750000000102829E-01     0.0000000000000000E+00 
    0.0000000000000000E+00     6.5625000000114431E-01     0.0000000000000000E+00 
    0.0000000000000000E+00     6.2500000000129829E-01     0.0000000000000000E+00 
    0.0000000000000000E+00     5.9375000000147926E-01     0.0000000000000000E+00 
    0.0000000000000000E+00     5.6250000000168354E-01     0.0000000000000000E+00 
    0.0000000000000000E+00     5.3125000000188671E-01     0.0000000000000000E+00 
    0.0000000000000000E+00     5.0000000000205835E-01     0.0000000000000000E+00 
    0.0000000000000000E+00     4.6875000000192979E-01     0.0000000000000000E+00 
    0.0000000000000000E+00     4.3750000000180111E-01     0.0000000000000000E+00 
    0.0000000000000000E+00     4.0625000000167238E-01     0.0000000000000000E+00 
[...]
CELL_DATA 2795 
SCALARS Pressure double 1 
LOOKUP_TABLE default 

    8.6678206376462228E+00 
    1.9431447477267355E+01 
    1.3648634243390703E+01 
    1.3329498258700713E+01 
    1.0673897335942877E+01 
    1.9177119062495393E+01 
    2.0213960109150928E+01 
    7.7332465197746414E+00 
    1.4211297557199222E+01 
    1.0900910315923735E+01 
    9.2615218267895063E+00 
    1.8777463510717723E+01 
    1.9306465820868276E+01 
    1.9125541974923362E+01 
    1.2643592298175982E+01 
    7.5997896436618504E+00 
    1.2331900462559499E+01 
    9.8724184140149820E+00 
    1.8203520093080698E+01 
    1.3627001860589717E+01 
    1.3523379375211672E+01 
    1.9020667303089066E+01 
    1.2994945542481432E+01 
    5.3829207603223217E-01 
    1.8777087702581539E+01 
    1.9262545457977957E+01 
    2.0258621801421462E+01 
    8.9251703867950933E+00 
    1.8644432414212606E+01 
    2.0245070384237703E+01 
    1.3853681674958034E+01 
    1.3832436085244588E+01 
    9.6901594368268658E+00 
    1.3611594356974695E+01 
    4.4607310197317460E+00 
    1.2342263190043823E+01 
    1.3595689696045229E+01 
    2.0296704162054500E+01 
    2.0185879096286598E+01 
    1.8796642045995238E+01 
    1.0534269793469235E+01 
    1.8837042965817119E+01 
    1.1039544628600775E+00 
    1.3610224482400659E+01 
    2.0019622130843210E+01 
    1.9598252362509388E+01 
    1.8761053457672528E+01 
    1.4638250386142866E+01 
    1.8794841213475760E+01 
    1.2602478045333680E+01 
    1.2042715738254644E+01 
    1.3794168669643058E+01 
    1.3493318923608454E+01 
    1.2389224531755021E+01 
    1.3937161937483564E+01 
    1.7888820464109671E+01 
    1.5864720138641113E+01 
    1.0733684866383470E+01 
    1.9034054499547874E+01 
    1.8898097442945534E+01 
    1.3288927649902602E+01 
    1.3141381871841940E+01 
    1.3212894281372398E+01 
    2.0116042509889994E+01 
    2.0504797475333429E+01 
    1.2340352743374623E+01 
    1.3792206209350642E+01 
    1.8468322591511939E+01 
    1.5680209693261931E+01 
    1.3227687866837872E+01 
    2.0460944865327544E+01 
    1.9010244838503201E+01 
    1.2195294803877625E+01 
    1.9733779149063874E+01 
    1.4221894668650311E+01 
    1.8605307488698880E+01 
    2.0326487066318720E+01 
    1.4251323242586741E+01 
    8.7419201940939217E+00 
    1.3811806928614409E+01 
    2.0195199651715036E+01 
    2.0500536850448810E+01 
    1.2363069378001692E+01 
    1.3737793834451530E+01 
    2.0565091810052024E+01 
    1.3592757425011818E+01 
    1.3104943894102727E+01 
    1.6238906802451531E+01 
    8.3850978164030057E+00 
    1.2080665171626521E+01 
    1.3734121859118893E+01 
    1.4372347443551977E+01 
    2.2316221262984158E+01 
    1.0366212997319076E+01 
    1.3800642654282257E+01 
    1.8726962446778501E+01 
    1.9216946262723337E+01 
    9.1074911693188572E+00 
    1.3447613989428280E+01 
    1.3769732194237315E+01 
    1.9259724133610423E+01 
    1.3756384840256974E+01 
    1.9126416035340355E+01 
    5.5164796847255220E+00 
    8.9986183677734530E+00 
    1.4035507181466276E+01 
    1.9443404868657090E+01 
    1.2303766457416261E+01 
    1.3000211318564123E+01 
    1.3729080489229638E+01 
    1.3065682740290830E+01 
    1.5427077525473310E+01 
    1.2666890248481893E+01 
    1.2203995945681056E+01 
    9.5127906649415586E+00 
    1.6237825115444981E+01 
    1.3838007428866796E+01 
    2.0007023307018816E+01 
    1.1857368615845955E+01 
    1.3305277028169604E+01 
    1.9013282746584363E+01 
    1.1161055729061403E+01 
    1.9686272257147966E+01 
    1.3666078564503071E+01 
    1.3223078405440972E+01 
    1.9224289941114773E+01 
    1.3825138861475232E+01 
    2.0332450051997018E+01 
    1.6269036693957730E+01 
    1.7644526072810621E+01 
    2.0281025931664580E+01 
    1.0387704119152628E+01 
    1.4056901401381134E+01 
    1.9233467599700024E+01 
    4.1194025304286379E+00 
    1.3911149122946565E+01 
    2.0236207227076310E+01 
    1.3254356459353431E+01 
    1.5093341636512523E+01 
    8.9699706142284104E+00 
    1.8736058094504433E+01 
    2.2861945074406350E+01 
    1.6910897918787903E+01 
    1.3256930351250642E+01 
    1.1934910688789603E+01 
    1.4715505074874878E+01 
    1.3683530100272929E+01 
    9.3730957428399844E+00 
    2.0277626830289588E+01 
    1.9198994048057521E+01 
    1.8730374644774642E+01 
    1.4372609866498692E+01 
    1.2139118094616288E+01 
    1.3517191196504365E+01 
    1.9767781384790979E+01 
    1.2479732799285591E+01 
    1.3801559082584715E+01 
    1.2691523068816167E+01 
    1.6001476339481588E+01 
    2.2848894790821127E+01 
    1.8712161315422680E+01 
    1.1981184690914827E+01 
    1.9510897201304381E+01 
    1.9386376120719106E+01 
    1.9497325316903392E+01 
    2.0821012592274123E+01 
    2.1487842534283811E+01 
    1.9567946063239283E+01 
    1.3783231724156000E+01 
    1.4874607557126321E+01 
    1.9326950927986694E+01 
    2.0000016410195244E+01 
    9.8215000920739417E+00 
    1.8757181464946541E+01 
    1.9706787045232410E+01 
    9.5434975398085129E+00 
    2.0727271661488967E+01 
    2.0688650179715964E+01 
    1.8301185147905578E+01 
    1.4134486047620889E+01 
    3.6430389278654141E+00 
    2.0238382030654041E+01 
    1.3968686111972669E+01 
    2.0415327467037237E+01 
    1.3167470836710713E+01 
    1.9942389915678390E+01 
    1.3673736676033885E+00 
    1.7639338956315367E+01 
    1.3192860295394301E+01 
    1.2103884621140413E+01 
    1.1798722050237100E+01 
    1.3632196040378599E+01 
    1.4957714491810558E+01 
    1.4316882324723274E+01 
    9.6170753949961387E+00 
    2.0006002685502569E+01 
    1.9270701271820105E+01 
    1.5828099537586068E+01 
    1.4025532528505440E+01 
    2.1036087064072970E+00 
    1.0878110891717188E+01 
    7.4888969894782491E+00 
    2.0262627322581878E+01 
    1.5290231910950641E+01 
    1.9211203247067811E+01 
    1.9365450345498900E+01 
    1.2567836673578469E+01 
    1.5949132660981647E+01 
    1.8710874201732164E+01 
    2.0672592844111392E+01 
    8.9670314397964077E+00 
    1.6955991152832951E+01 
    1.4292342249230696E+01 
    7.9852099527854827E+00 
    1.2572747690093356E+01 
    1.6662750717776266E+01 
    1.9309579636857968E+01 
    1.3684115321615316E+01 
    1.9467695753075137E+01 
    1.9131435045974428E+01 
    1.9062255279312957E+01 
    1.3519566181661817E+01 
    1.1959900074094568E+01 
    1.8744231601143550E+01 
    1.2177131107975551E+01 
    1.3766889694711395E+01 
    1.1956953926511025E+01 
    1.3744691888270770E+01 
    1.9380305049466099E+01 
    8.4866661374634447E+00 
    1.2456158311266590E+01 
    2.0149567063947678E+01 
    1.3525647632391289E+01 
    1.5162584523714417E+01 
    8.7043366299886671E+00 
    1.2270326133389075E+01 
    1.9099360370947359E+01 
    1.9545925484684663E+01 
    7.1278738236552375E+00 
    1.3543064351115607E+01 
    1.1976814885892693E+01 
    2.1208196142082933E+01 
    2.0516927743568132E+01 
    2.1524271353670613E+01 
    1.3563622131937670E+01 
    1.9338627258424058E+01 
    1.8629838427171212E+01 
    1.3408718391511185E+01 
    1.8729002286823381E+01 
    1.4025893435551897E+01 
    8.0548023888371265E+00 
    1.3964212659020008E+01 
    2.0135992084521025E+01 
    1.8722631890264033E+01 
    9.2246987832868825E+00 
    1.8770817329724750E+01 
    1.4991417156052542E+01 
    1.3886025771840730E+01 
    1.3341821917750275E+01 
    1.8506662775326763E+01 
    1.4517325546404260E+01 
    1.8750826559504279E+01 
    1.3537055825437131E+01 
    8.2906883110527243E+00 
    1.3849281222840748E+01 
    1.1803498566597245E+01 
    1.6940119356205155E+01 
    2.0397315160366610E+01 
    1.8744826512883876E+01 
    2.0226865820948394E+01 
    1.3459551933301050E+01 
    8.9827837201318808E+00 
    9.1059507801474080E+00 
    1.4113068067215410E+01 
    1.3734994264508257E+01 
    2.0819407362600448E+00 
    1.7933698911040125E+01 
    2.0873384727983424E+01 
    1.3188430491049845E+01 
    8.4355511290664094E+00 
    1.5761347517834595E+01 
    1.8762809243695663E+01 
    1.0039524145333431E+01 
    6.8019929964881038E+00 
    1.3722070862586559E+01 
    1.8883346935106704E+01 
    1.9891726786744208E+01 
    1.9606750081792740E+01 
    1.9547564914703308E+01 
    9.7513014039461474E+00 
    1.3880120375243223E+01 
    1.8196739052920023E+01 
    1.0695895561434581E+01 
    1.9285637856501261E+01 
    1.6238285536405460E+01 
    9.2337528394769546E+00 
    1.8868120939130378E+01 
    2.0277465354880921E+01 
    1.8966192821040320E+01 
    9.6648020448258869E+00 
    1.3787916122840375E+01 
    1.0640935021720191E+01 
    1.3005749957325824E+01 
    1.8754451088450885E+01 
    1.8735646125682628E+01 
    9.7260851711756473E+00 
    2.0001201254027485E+01 
    1.4428854571700887E+01 
    1.8797240380747706E+01 
    2.0061083149937499E+01 
    1.8772809065800583E+01 
    1.7239079230393816E+01 
    2.1281796510040078E+01 
    1.3120239400804929E+01 
    2.0185881394663241E+01 
    1.8825605614690542E+01 
    2.0285057108588340E+01 
    1.9989553775889171E+01 
    1.3247485770678322E+01 
    1.3636654763608510E+01 
    1.3178314401833900E+01 
    1.6532358457636505E+01 
    5.5493216735800557E+00 
    1.4035052905059583E+01 
    2.1430793927944219E+01 
    1.4031916766821336E+01 
    1.4269479652859063E+01 
    2.0248026475343472E+01 
    2.0542555086017099E+01 
    1.2997439495062711E+01 
    1.8776597974880413E+01 
    1.8733090730639734E+01 
    1.4253434880985735E+01 
    1.9921552672444474E+01 
    9.7674713962965960E+00 
    6.2186586414324854E+00 
    1.4614931466588724E+01 
    1.4046457429810038E+01 
    1.8726882989319055E+01 
    9.0920101899403072E+00 
    1.9506330746500034E+01 
    6.3536692708678828E+00 
    1.3975807812532352E+01 
    1.3258612257942032E+01 
    1.3763202381354272E+01 
    2.2900647451505705E+01 
    5.3781448830295453E+00 
    1.3932530163915755E+01 
    1.6558182541431201E+01 
    1.3345238924471504E+01 
    1.0613329193756540E+01 
    1.9755234443167602E+01 
    2.2421943760864060E+01 
    1.9915135516998415E+01 
    1.3856947269945756E+01 
    7.9574248046390368E+00 
    2.2254392363537605E+01 
    1.9252226737245625E+01 
    1.0052425717297631E+01 
    1.3432300932827168E+01 
    2.0797278705706301E+01 
    4.5857356779922736E+00 
    1.4112504516842380E+01 
    1.9985204623453797E+01 
    1.3780586497900154E+01 
    1.1972616698865224E+01 
    1.3981905446460933E+01 
    1.8320121869029286E+01 
    1.3762270131068300E+01 
    7.0900561073954496E+00 
    1.3449802825556085E+00 
    1.0229703673902291E+01 
    2.1087399076572080E+01 
    1.3178290641464010E+01 
    1.5522713091515667E+01 
    1.4898740649132614E+01 
    1.7015457722981662E+01 
    1.3794965569941349E+01 
    1.9117880836227645E+01 
    2.2915711707617888E+01 
    1.6131452975583439E+01 
    2.0147671580086989E+01 
    8.0764630777304880E-01 
    1.8736910212412958E+01 
    7.7667235269868584E+00 
    2.1628570960857932E+01 
    1.3949448632039690E+01 
    1.2248236979377285E+01 
    1.0855158662282756E+01 
    7.4497733551279355E+00 
    1.5208285641518733E+01 
    1.0846331571293833E+01 
    1.6794216983640357E+01 
    3.0713429791501619E+00 
    1.5039367812773053E+01 
    1.8614861392701897E+01 
    8.2637851806435556E+00 
    1.9377899228546028E+01 
    2.1363378136226395E+01 
    1.9197831298132431E+01 
    1.3779086219470534E+01 
    1.3756147569896951E+01 
    1.3940427982322984E+01 
    8.0789051782035823E+00 
    1.2830364288638378E+01 
    1.2629375886538321E+01 
    1.3926770314679599E+01 
    1.3089968903970231E+01 
    1.0286697134251968E+00 
    8.8819936645728230E+00 
    1.3564383906636477E+01 
    1.3895116369674374E+01 
    1.7280011661210402E+01 
    3.0197868058798214E+00 
    1.4201958922065359E+01 
    1.4055407710234503E+01 
    5.1822997373693633E+00 
    1.9001496814649730E+01 
    1.2191432449455728E+01 
    1.3900714638048152E+01 
    1.9245134958774109E+01 
    7.4781631456889999E+00 
    1.9146813968597289E+01 
    1.2362904844627222E+01 
    1.3815632955304216E+00 
    1.3252958614311330E+01 
    2.0055198617083700E+01 
    1.8740937417558502E+01 
    1.8771179965349930E+01 
    1.4367242979057924E+01 
    1.3978911442205639E+01 
    1.2188899152955678E+01 
    9.6421968388885659E+00 
    1.9419640719842295E+01 
    1.3426565283334595E+01 
    9.3464471571683685E+00 
    1.8762873399536897E+01 
    1.9751793668298877E+01 
    1.4141451185779799E+01 
    1.3578002802181835E+01 
    2.2784416453375524E+01 
    1.4254671679261333E+01 
    1.9443417514258552E+01 
    1.1575004014783405E+01 
    2.2943852606376829E+01 
    9.0528585274417637E+00 
    1.2667631528953001E+01 
    1.0242258509692359E+01 
    1.4551913932880334E+01 
    1.1803896326938073E+01 
    2.2926734728407816E+01 
    1.4316344409833913E+01 
    1.8300997971356470E+01 
    9.3095485720924547E+00 
    1.3788504057651412E+01 
    1.9204620253745929E+01 
    1.1889789740524659E+01 
    1.0062275352895503E+01 
    1.5408105387898397E+01 
    1.9468742208669592E+01 
    9.9946422037139016E+00 
    1.3286725179354988E+01 
    1.3619909467175022E+01 
    1.8698443704645388E+01 
    1.3364092074919498E+01 
    1.9494626980438454E+01 
    2.0323797846642602E+01 
    1.2217333542734163E+01 
    1.1971236434494877E+01 
    1.0860039271797110E+01 
    1.8912586742254327E+01 
    1.4075941846376125E+01 
    2.2463220430059813E+01 
    1.7455247526084367E+01 
    1.9142797451972925E+01 
    2.2106415144178769E+01 
    2.1367868884869132E+01 
    1.3838776982913243E+01 
    1.3907712951485108E+01 
    1.8321272563009273E+01 
    1.8798346151843297E+01 
    1.9693411195379440E+01 
    1.9283123378692810E+01 
    2.2811943001882305E+01 
    1.4254050409479204E+01 
    1.2355720978237875E+01 
    1.4220000924440173E+01 
    2.0205106221816191E+01 
    1.3940581062253177E+01 
    8.1147203588658261E+00 
    1.3758744395851572E+01 
    2.0765491840833981E+01 
    1.4099993147676441E+01 
    1.2367266982798046E+01 
    1.3558740646929397E+01 
    2.0902898705295140E+01 
    1.8930322054162158E+01 
    1.1691992448408282E+01 
    2.1075474451047153E+01 
    1.3869156611479433E+01 
    1.9641473548337999E+01 
    2.0919349430310167E+01 
    1.4653369298109022E+01 
    7.4821702046227498E+00 
    1.5207758029124578E+01 
    7.7378273352637477E+00 
    1.3994243748932199E+01 
    1.3785970962758723E+01 
    1.5993885622267076E+01 
    8.1820756659343576E+00 
    1.6999733256456441E+01 
    1.3802486270371414E+01 
    1.9267837157795192E+01 
    1.4802730764040499E+01 
    1.1317964745381499E+01 
    1.3405035613530824E+01 
    1.4558288806347031E+01 
    1.4387024919507875E+01 
    2.0414244964980497E+01 
    1.1821729708237498E+01 
    1.1618205123755674E+01 
    8.6008089656901525E+00 
    1.9733438849000741E+01 
    1.3455029123298448E+01 
    1.8605471261174724E+01 
    1.3752751199835375E+01 
    9.4069125138549037E+00 
    1.8952288892893296E+01 
    1.3728935777760331E+01 
    1.0284996194148352E+01 
    1.0926878836602386E+01 
    1.1328810706848337E+01 
    1.9317570950253252E+01 
    1.3929254997729233E+01 
    2.0162100462502490E+01 
    1.3688556906400837E+01 
    1.3625356128220085E+01 
    1.3185435150696296E+01 
    1.9075282314823689E+01 
    1.3532403671344580E+01 
    1.1392535605308019E+01 
    2.1356232556867056E+01 
    1.9191928646208350E+01 
    9.5052527504003610E+00 
    3.7884746525241328E+00 
    1.3916306795300017E+01 
    1.3023387784057540E+01 
    1.1976876185700212E+01 
    1.2932643871847205E+01 
    1.9054589415819283E+01 
    1.3548020638419514E+01 
    1.2395731742064447E+01 
    1.8832584646728701E+01 
    9.4010691391257897E+00 
    1.8271373717300616E+01 
    1.2511316297897535E+01 
    1.1203241907256944E+01 
    1.2092379631929704E+01 
    1.9755673190976765E+01 
    1.3765656518446955E+01 
    1.3774980510866351E+01 
    8.3164843605862213E+00 
    8.9996637294331450E+00 
    1.7340689459410381E+01 
    1.3785652070797786E+01 
    1.3965776359678152E+01 
    2.1059309461531093E+01 
    1.1613599272072850E+01 
    1.3798856235710078E+01 
    9.7444423885343756E+00 
    1.0065222770468457E+01 
    1.9031667980540433E+01 
    1.3387960856238953E+01 
    9.9345578056665378E+00 
    1.4374992073226396E+01 
    1.3690916078714377E+01 
    1.9049218606567422E+01 
    2.1174010742008548E+01 
    1.4588219684903763E+00 
    1.3922389958782496E+01 
    1.4045139269325890E+01 
    1.9164285442098041E+01 
    1.3339211755367778E+01 
    1.3735072939402507E+01 
    2.0498102872829403E+01 
    1.2136243321632978E+01 
    1.0022840054959973E+01 
    1.6393030794664693E+01 
    1.8761708174910549E+01 
    2.0281158231524433E+01 
    2.0631974843535804E+01 
    1.3726178800493264E+01 
    1.3911640551252832E+01 
    1.5272052353904332E+01 
    9.0163119769803171E+00 
    1.8964705016290793E+01 
    1.0814015192457118E+01 
    9.3899210175355226E+00 
    1.7026596549589645E+01 
    1.6006305592821626E+01 
    9.2027375737885766E+00 
    1.8815588591916839E+01 
    2.0262905486875319E+01 
    1.4274312665002974E+01 
    2.1299376137157083E+01 
    1.8866122048189933E+01 
    1.3407626220943424E+01 
    1.9833632724804222E+01 
    1.0124493749265042E+01 
    1.8788045366980555E+01 
    1.3920998360983132E+01 
    1.3874217569992297E+01 
    2.1273938517297822E+01 
    1.3503406138307874E+01 
    1.6657497459564500E+01 
    1.2057471157526892E+01 
    2.0421829769111291E+01 
    1.8630096241082693E+01 
    1.2551301094204538E+01 
    1.8732344435435738E+01 
    1.2647229068889997E+01 
    1.3741375737294117E+01 
    2.0208485234187787E+01 
    1.9278444679639296E+01 
    2.0266870115334168E+01 
    1.9168124325467168E+01 
    1.2845611801765852E+01 
    1.3099435153647400E+01 
    2.0277083978038235E+01 
    1.3259247179526385E+01 
    1.8487525287656151E+01 
    1.3479148407247420E+01 
    5.5905572490359852E+00 
    9.4792601936633041E+00 
    8.7851729999239296E+00 
    2.0212843835634352E+01 
    2.1183350194283488E+01 
    1.8754684805354525E+01 
    1.5702541244787776E+01 
    1.9176699419119185E+01 
    1.8829368031182391E+01 
    1.9715537456287706E+01 
    8.0235729976889054E+00 
    5.2014570420526383E+00 
    1.5417469449096869E+01 
    1.3526614971487502E+01 
    1.9066207252117096E+01 
    1.9061547417404398E+01 
    1.4066492150055316E+01 
    1.9121491151557628E+01 
    1.3904537195383213E+01 
    1.3800586776896347E+01 
    7.2412468433295709E+00 
    5.1770226139524649E+00 
    2.0895406328151676E+01 
    1.0769087215760372E+01 
    1.2481162856918621E+01 
    1.3953605599333343E+01 
    2.2787892811463585E+01 
    1.4056170192136953E+01 
    1.4278835606003208E+01 
    5.8880710236435156E+00 
    1.4055984703602505E+01 
    1.4071922665080969E+01 
    1.9425731325727689E+01 
    1.2091686179416973E+01 
    1.3224064993318791E+01 
    2.1111620160834775E+01 
    1.3932685455554129E+01 
    1.8776971464984509E+01 
    1.9100269091046233E+01 
    1.6743124757142727E+01 
    1.1726021422461505E+01 
    1.9165626767020189E+01 
    1.3686223528578882E+01 
    1.9013591046263844E+01 
    1.8675268167290081E+01 
    2.0239113350205166E+01 
    1.9168144943827940E+01 
    1.7673141472443440E+01 
    1.3918581371976167E+01 
    9.1299564687262684E+00 
    2.2648957934149720E+01 
    1.1041981834859925E+01 
    2.0137475961207773E+01 
    1.3915420994387359E+01 
    1.1671857103123838E+01 
    6.8490602332665960E+00 
    1.4113555731417243E+01 
    1.9147607996773054E+01 
    1.9133380361032291E+01 
    1.3719344392735586E+01 
    1.3908327849312865E+01 
    2.1360791975799209E+01 
    2.0557803210471203E+01 
    1.4079045405970083E+01 
    4.8380165460277818E+00 
    1.7553044550715157E+01 
    2.2922608345973099E+01 
    1.3922621236593194E+01 
    1.6200597135961910E+01 
    1.3338164742144738E+01 
    2.2488549965112103E+01 
    2.0665841823873610E+01 
    2.0357088022533798E+01 
    1.4104739642270324E+01 
    6.3911252696736840E+00 
    1.3288642483647513E+01 
    1.3366226014743662E+01 
    1.3414131590572049E+01 
    5.2795697111395947E+00 