# vtk DataFile Version 2.0
Pressure Field Data 
ASCII 
DATASET UNSTRUCTURED_GRID 

POINTS 2860 double 

    0.0000000000000000E+00     0.0000000000000000E+00     0.0000000000000000E+00 
    1.0000000000000000E+00     0.0000000000000000E+00     0.0000000000000000E+00 
    1.0000000000000000E+00     1.0000000000000000E+00     0.0000000000000000E+00 
    0.0000000000000000E+00     1.0000000000000000E+00     0.0000000000000000E+00 
    2.5000000000000000E-01     2.5000000000000000E-01     0.0000000000000000E+00 
    7.5000000000000000E-01     2.5000000000000000E-01     0.0000000000000000E+00 
    7.5000000000000000E-01     7.5000000000000000E-01     0.0000000000000000E+00 
    2.5000000000000000E-01     7.5000000000000000E-01     0.0000000000000000E+00 
    3.1249999999942091E-02     0.0000000000000000E+00     0.0000000000000000E+00 
    6.2499999999873469E-02     0.0000000000000000E+00     0.0000000000000000E+00 
    9.3749999999826514E-02     0.0000000000000000E+00     0.0000000000000000E+00 
    1.2499999999977961E-01     0.0000000000000000E+00     0.0000000000000000E+00 
    1.5624999999968961E-01     0.0000000000000000E+00     0.0000000000000000E+00 
    1.8749999999959971E-01     0.0000000000000000E+00     0.0000000000000000E+00 
    2.1874999999950970E-01     0.0000000000000000E+00     0.0000000000000000E+00 
    2.4999999999941969E-01     0.0000000000000000E+00     0.0000000000000000E+00 
    2.8124999999932920E-01     0.0000000000000000E+00     0.0000000000000000E+00 
    3.1249999999923850E-01     0.0000000000000000E+00     0.0000000000000000E+00 
    3.4374999999914790E-01     0.0000000000000000E+00     0.0000000000000000E+00 
    3.7499999999905720E-01     0.0000000000000000E+00     0.0000000000000000E+00 
    4.0624999999896660E-01     0.0000000000000000E+00     0.0000000000000000E+00 
    4.3749999999887590E-01     0.0000000000000000E+00     0.0000000000000000E+00 
    4.6874999999878530E-01     0.0000000000000000E+00     0.0000000000000000E+00 
    4.9999999999869471E-01     0.0000000000000000E+00     0.0000000000000000E+00 
    5.3124999999877620E-01     0.0000000000000000E+00     0.0000000000000000E+00 
    5.6249999999885780E-01     0.0000000000000000E+00     0.0000000000000000E+00 
    5.9374999999893940E-01     0.0000000000000000E+00     0.0000000000000000E+00 
    6.2499999999902101E-01     0.0000000000000000E+00     0.0000000000000000E+00 
    6.5624999999910261E-01     0.0000000000000000E+00     0.0000000000000000E+00 
    6.8749999999918421E-01     0.0000000000000000E+00     0.0000000000000000E+00 
    7.1874999999926570E-01     0.0000000000000000E+00     0.0000000000000000E+00 
    7.4999999999934730E-01     0.0000000000000000E+00     0.0000000000000000E+00 
    7.8124999999942890E-01     0.0000000000000000E+00     0.0000000000000000E+00 
    8.1249999999951039E-01     0.0000000000000000E+00     0.0000000000000000E+00 
    8.4374999999959199E-01     0.0000000000000000E+00     0.0000000000000000E+00 
    8.7499999999967359E-01     0.0000000000000000E+00     0.0000000000000000E+00 
    9.0624999999975520E-01     0.0000000000000000E+00     0.0000000000000000E+00 
    9.3749999999983680E-01     0.0000000000000000E+00     0.0000000000000000E+00 
    9.6874999999991840E-01     0.0000000000000000E+00     0.0000000000000000E+00 
    1.0000000000000000E+00     3.1249999999942091E-02     0.0000000000000000E+00 
    1.0000000000000000E+00     6.2499999999873469E-02     0.0000000000000000E+00 
    1.0000000000000000E+00     9.3749999999826514E-02     0.0000000000000000E+00 
    1.0000000000000000E+00     1.2499999999977961E-01     0.0000000000000000E+00 
    1.0000000000000000E+00     1.5624999999968961E-01     0.0000000000000000E+00 
    1.0000000000000000E+00     1.8749999999959971E-01     0.0000000000000000E+00 
    1.0000000000000000E+00     2.1874999999950970E-01     0.0000000000000000E+00 
    1.0000000000000000E+00     2.4999999999941969E-01     0.0000000000000000E+00 
    1.0000000000000000E+00     2.8124999999932920E-01     0.0000000000000000E+00 
    1.0000000000000000E+00     3.1249999999923850E-01     0.0000000000000000E+00 
    1.0000000000000000E+00     3.4374999999914790E-01     0.0000000000000000E+00 
    1.0000000000000000E+00     3.7499999999905720E-01     0.0000000000000000E+00 
    1.0000000000000000E+00     4.0624999999896660E-01     0.0000000000000000E+00 
    1.0000000000000000E+00     4.3749999999887590E-01     0.0000000000000000E+00 
    1.0000000000000000E+00     4.6874999999878530E-01     0.0000000000000000E+00 
    1.0000000000000000E+00     4.9999999999869471E-01     0.0000000000000000E+00 
    1.0000000000000000E+00     5.3124999999877620E-01     0.0000000000000000E+00 
    1.0000000000000000E+00     5.6249999999885780E-01     0.0000000000000000E+00 
    1.0000000000000000E+00     5.9374999999893940E-01     0.0000000000000000E+00 
    1.0000000000000000E+00     6.2499999999902101E-01     0.0000000000000000E+00 
    1.0000000000000000E+00     6.5624999999910261E-01     0.0000000000000000E+00 
    1.0000000000000000E+00     6.8749999999918421E-01     0.0000000000000000E+00 
    1.0000000000000000E+00     7.1874999999926570E-01     0.0000000000000000E+00 
    1.0000000000000000E+00     7.4999999999934730E-01     0.0000000000000000E+00 
    1.0000000000000000E+00     7.8124999999942890E-01     0.0000000000000000E+00 
    1.0000000000000000E+00     8.1249999999951039E-01     0.0000000000000000E+00 
    1.0000000000000000E+00     8.4374999999959199E-01     0.0000000000000000E+00 
    1.0000000000000000E+00     8.7499999999967359E-01     0.0000000000000000E+00 
    1.0000000000000000E+00     9.0624999999975520E-01     0.0000000000000000E+00 
    1.0000000000000000E+00     9.3749999999983680E-01     0.0000000000000000E+00 
    1.0000000000000000E+00     9.6874999999991840E-01     0.0000000000000000E+00 
    9.6875000000003686E-01     1.0000000000000000E+00     0.0000000000000000E+00 
    9.3750000000011691E-01     1.0000000000000000E+00     0.0000000000000000E+00 
    9.0625000000015765E-01     1.0000000000000000E+00     0.0000000000000000E+00 
    8.7500000000017863E-01     1.0000000000000000E+00     0.0000000000000000E+00 
    8.4375000000028044E-01     1.0000000000000000E+00     0.0000000000000000E+00 
    8.1250000000040856E-01     1.0000000000000000E+00     0.0000000000000000E+00 
    7.8125000000054956E-01     1.0000000000000000E+00     0.0000000000000000E+00 
    7.5000000000066480E-01     1.0000000000000000E+00     0.0000000000000000E+00 
    7.1875000000086831E-01     1.0000000000000000E+00     0.0000000000000000E+00 
    6.8750000000102829E-01     1.0000000000000000E+00     0.0000000000000000E+00 
    6.5625000000114431E-01     1.0000000000000000E+00     0.0000000000000000E+00 
    6.2500000000129829E-01     1.0000000000000000E+00     0.0000000000000000E+00 
    5.9375000000147926E-01     1.0000000000000000E+00     0.0000000000000000E+00 
    5.6250000000168354E-01     1.0000000000000000E+00     0.0000000000000000E+00 
    5.3125000000188671E-01     1.0000000000000000E+00     0.0000000000000000E+00 
    5.0000000000205835E-01     1.0000000000000000E+00     0.0000000000000000E+00 
    4.6875000000192979E-01     1.0000000000000000E+00     0.0000000000000000E+00 
    4.3750000000180111E-01     1.0000000000000000E+00     0.0000000000000000E+00 
    4.0625000000167238E-01     1.0000000000000000E+00     0.0000000000000000E+00 
    3.7500000000154382E-01     1.0000000000000000E+00     0.0000000000000000E+00 
    3.4375000000141509E-01     1.0000000000000000E+00     0.0000000000000000E+00 
    3.1250000000128642E-01     1.0000000000000000E+00     0.0000000000000000E+00 
    2.8125000000115769E-01     1.0000000000000000E+00     0.0000000000000000E+00 
    2.5000000000102918E-01     1.0000000000000000E+00     0.0000000000000000E+00 
    2.1875000000090050E-01     1.0000000000000000E+00     0.0000000000000000E+00 
    1.8750000000077180E-01     1.0000000000000000E+00     0.0000000000000000E+00 
    1.5625000000064329E-01     1.0000000000000000E+00     0.0000000000000000E+00 
    1.2500000000051459E-01     1.0000000000000000E+00     0.0000000000000000E+00 
    9.3750000000385914E-02     1.0000000000000000E+00     0.0000000000000000E+00 
    6.2500000000257239E-02     1.0000000000000000E+00     0.0000000000000000E+00 
    3.1250000000128557E-02     1.0000000000000000E+00     0.0000000000000000E+00 
    0.0000000000000000E+00     9.6875000000003686E-01     0.0000000000000000E+00 
    0.0000000000000000E+00     9.3750000000011691E-01     0.0000000000000000E+00 
    0.0000000000000000E+00     9.0625000000015765E-01     0.0000000000000000E+00 
    0.0000000000000000E+00     8.7500000000017863E-01     0.0000000000000000E+00 
    0.0000000000000000E+00     8.4375000000028044E-01     0.0000000000000000E+00 
    0.0000000000000000E+00     8.1250000000040856E-01     0.0000000000000000E+00 
    0.0000000000000000E+00     7.8125000000054956E-01     0.0000000000000000E+00 
    0.0000000000000000E+00     7.5000000000066480E-01     0.0000000000000000E+00 
    0.0000000000000000E+00     7.1875000000086831E-01     0.0000000000000000E+00 
    0.0000000000000000E+00     6.8750000000102829E-01     0.0000000000000000E+00 
    0.0000000000000000E+00     6.5625000000114431E-01     0.0000000000000000E+00 
    0.0000000000000000E+00     6.2500000000129829E-01     0.0000000000000000E+00 
    0.0000000000000000E+00     5.9375000000147926E-01     0.0000000000000000E+00 
    0.0000000000000000E+00     5.6250000000168354E-01     0.0000000000000000E+00 
    0.0000000000000000E+00     5.3125000000188671E-01     0.0000000000000000E+00 
    0.0000000000000000E+00     5.0000000000205835E-01     0.0000000000000000E+00 
    0.0000000000000000E+00     4.6875000000192979E-01     0.0000000000000000E+00 
    0.0000000000000000E+00     4.3750000000180111E-01     0.0000000000000000E+00 
    0.0000000000000000E+00     4.0625000000167238E-01     0.0000000000000000E+00 
[...]
CELL_DATA 2795 
SCALARS Pressure double 1 
LOOKUP_TABLE default 

    8.1043859156595399E+00 
    1.7767912394594671E+01 
    1.2515765324521917E+01 
    1.2234511689680783E+01 
    9.9015071586065257E+00 
    1.7584421559580729E+01 
    1.8455651182220443E+01 
    7.2614202708376618E+00 
    1.3049954062054859E+01 
    1.0160635856249263E+01 
    8.7416153209905705E+00 
    1.7268715775728566E+01 
    1.7681486962234672E+01 
    1.7546099976807110E+01 
    1.1600245034711063E+01 
    7.1414707413073879E+00 
    1.1372279728065946E+01 
    9.2735916749222529E+00 
    1.6822428279139306E+01 
    1.2497473430969267E+01 
    1.2397554840531559E+01 
    1.7464502530081038E+01 
    1.1937686720739352E+01 
    4.8406799770008718E-01 
    1.7228922903759123E+01 
    1.7622934454869618E+01 
    1.8492459535320116E+01 
    8.4733520221227909E+00 
    1.7172565582914540E+01 
    1.8473764523418179E+01 
    1.2718237550371700E+01 
    1.2696188194542311E+01 
    9.2275351995486012E+00 
    1.2480129363448357E+01 
    4.2299582391596342E+00 
    1.1373225570110719E+01 
    1.2466021183995441E+01 
    1.8518509291681880E+01 
    1.8429074933473448E+01 
    1.7284205405608880E+01 
    9.8392711711150724E+00 
    1.7262460467849699E+01 
    1.0082667392033313E+00 
    1.2492121513711693E+01 
    1.8239724402113119E+01 
    1.7936977043189628E+01 
    1.7255808490045776E+01 
    1.3445337821361237E+01 
    1.7298002071958201E+01 
    1.1617287579351501E+01 
    1.1107838112229544E+01 
    1.2660952042574026E+01 
    1.2383863804252547E+01 
    1.1443180551469801E+01 
    1.2795500659292836E+01 
    1.6558682101371570E+01 
    1.4571957479951772E+01 
    9.9525303952296920E+00 
    1.7472151508140669E+01 
    1.7372995591719793E+01 
    1.2212238058651753E+01 
    1.2070096151168165E+01 
    1.2129571476543800E+01 
    1.8361283890972874E+01 
    1.8677028506590609E+01 
    1.1391399960389625E+01 
    1.2659367918631299E+01 
    1.6964976333417869E+01 
    1.4413470056602458E+01 
    1.2129164064810691E+01 
    1.8671893559685703E+01 
    1.7420542962180242E+01 
    1.1239919041000675E+01 
    1.8054828232510907E+01 
    1.3054924827227307E+01 
    1.7042130184933821E+01 
    1.8541035335162448E+01 
    1.3084412984098160E+01 
    8.1990267092551132E+00 
    1.2677538566245589E+01 
    1.8439252175205560E+01 
    1.8696070899539194E+01 
    1.1387580680834265E+01 
    1.2605099602553100E+01 
    1.8754450625890929E+01 
    1.2464509465277116E+01 
    1.2034373118468229E+01 
    1.4928595292891981E+01 
    7.8680134670767758E+00 
    1.1144084628883929E+01 
    1.2602346113433208E+01 
    1.3202469224340128E+01 
    2.0342522473672620E+01 
    9.6300659760525456E+00 
    1.2667213299566058E+01 
    1.7229301152741343E+01 
    1.7619788159968301E+01 
    8.5106909660103405E+00 
    1.2329105817686447E+01 
    1.2635090316198855E+01 
    1.7647129406173011E+01 
    1.2625804879270170E+01 
    1.7553048967007364E+01 
    5.2231156825765419E+00 
    8.4965995533897587E+00 
    1.2885131145206794E+01 
    1.7775607550656275E+01 
    1.1335838488482024E+01 
    1.1958353893989049E+01 
    1.2603276081469522E+01 
    1.1999929234313440E+01 
    1.4167482204182225E+01 
    1.1662511514242308E+01 
    1.1250164077667026E+01 
    8.8919043648531151E+00 
    1.4907320260719992E+01 
    1.2700859810394721E+01 
    1.8263629959630190E+01 
    1.0986140134855285E+01 
    1.2214106925519385E+01 
    1.7422320456835376E+01 
    1.0377765973749085E+01 
    1.7966437979013786E+01 
    1.2535457070947329E+01 
    1.2139406887056065E+01 
    1.7623466488393621E+01 
    1.2689883041721020E+01 
    1.8552556154281511E+01 
    1.4963497001042761E+01 
    1.6300614701461846E+01 
    1.8511927566071254E+01 
    9.6471894024714935E+00 
    1.2905549213947253E+01 
    1.7611552147961870E+01 
    3.9004564411553004E+00 
    1.2771621229013354E+01 
    1.8472770889830009E+01 
    1.2168977272160809E+01 
    1.3862326216735239E+01 
    8.4000243477032956E+00 
    1.7223656130509418E+01 
    2.0847485169571396E+01 
    1.5551783153465694E+01 
    1.2169691060726473E+01 
    1.1010672454895424E+01 
    1.3504746953411560E+01 
    1.2551999754664743E+01 
    8.8663230985158794E+00 
    1.8505705607710773E+01 
    1.7605768273714748E+01 
    1.7231056387405754E+01 
    1.3202705706983696E+01 
    1.1213582100603173E+01 
    1.2392816006235126E+01 
    1.8086999919646335E+01 
    1.1488638463918932E+01 
    1.2667787708744935E+01 
    1.1671402124904601E+01 
    1.4664938054675730E+01 
    2.0835154010401819E+01 
    1.7221519984459892E+01 
    1.1177336527049590E+01 
    1.7850546004660522E+01 
    1.7728694664575517E+01 
    1.7821661185776424E+01 
    1.8976457330243885E+01 
    1.9574649275518166E+01 
    1.7917582515454775E+01 
    1.2651086402847833E+01 
    1.3653800051833425E+01 
    1.7724771236912638E+01 
    1.8273152479840810E+01 
    9.2563604331486253E+00 
    1.7255052085811741E+01 
    1.8040115165649336E+01 
    9.0036250722177069E+00 
    1.8892009496008910E+01 
    1.8860459819866083E+01 
    1.6896886842164690E+01 
    1.2978159424052350E+01 
    3.4961920700036879E+00 
    1.8473067966372593E+01 
    1.2823380462797873E+01 
    1.8615381752126396E+01 
    1.2092620071941246E+01 
    1.8236267189500840E+01 
    1.2591456644019345E+00 
    1.6241559256556403E+01 
    1.2116721130702656E+01 
    1.1163413773060963E+01 
    1.0888995935198130E+01 
    1.2504027416971315E+01 
    1.3735349696111031E+01 
    1.3147707669698338E+01 
    8.9911750278592351E+00 
    1.8268789389134511E+01 
    1.7635545944639265E+01 
    1.4544802973331015E+01 
    1.2876140184103551E+01 
    1.9777109827368435E+00 
    1.0080610503442097E+01 
    7.0551070031833918E+00 
    1.8487245602860082E+01 
    1.4028576883884316E+01 
    1.7629024352528695E+01 
    1.7717910821008118E+01 
    1.1568706912146320E+01 
    1.4629256567516736E+01 
    1.7223409841958880E+01 
    1.8845097391242952E+01 
    8.3993852911321625E+00 
    1.5556163141843930E+01 
    1.3116909252650139E+01 
    7.5010515041548578E+00 
    1.1567358071304124E+01 
    1.5279977813312989E+01 
    1.7669841993641224E+01 
    1.2554180075362254E+01 
    1.7798211125625624E+01 
    1.7522952589783117E+01 
    1.7460063722037159E+01 
    1.2396234001091649E+01 
    1.1037833700461317E+01 
    1.7239770662052763E+01 
    1.1234071167397360E+01 
    1.2634214540647331E+01 
    1.1033181690684467E+01 
    1.2618377005850579E+01 
    1.7731442022967300E+01 
    8.0163608126848995E+00 
    1.1465472974260951E+01 
    1.8394332843033503E+01 
    1.2403973519837466E+01 
    1.3911989888541150E+01 
    8.2254644884681039E+00 
    1.1301055648984519E+01 
    1.7496974548463186E+01 
    1.7862577638028590E+01 
    6.7410580760055030E+00 
    1.2417203405883592E+01 
    1.1102277224897371E+01 
    1.9321345111908091E+01 
    1.8709246087727553E+01 
    1.9605832057589552E+01 
    1.2436878758678652E+01 
    1.7695027238333100E+01 
    1.7157134452287472E+01 
    1.2296000924020726E+01 
    1.7231938976733797E+01 
    1.2876663195440251E+01 
    7.5744370385074884E+00 
    1.2816182988949803E+01 
    1.8375661210000786E+01 
    1.7228220481753088E+01 
    8.7410048302796746E+00 
    1.7263849693821921E+01 
    1.3766065373316547E+01 
    1.2749482996770057E+01 
    1.2249631943812865E+01 
    1.7066494487407034E+01 
    1.3323710046750261E+01 
    1.7246596143967860E+01 
    1.2424970273314218E+01 
    7.8061492639520695E+00 
    1.2709965103149052E+01 
    1.0898041028396449E+01 
    1.5597516295722841E+01 
    1.8610312836425599E+01 
    1.7236699002241135E+01 
    1.8465117839632118E+01 
    1.2344978362386238E+01 
    8.4902552431891607E+00 
    8.6023688283757540E+00 
    1.2955559065290768E+01 
    1.2606200879665526E+01 
    1.9466888925024139E+00 
    1.6555610957931979E+01 
    1.9018017870157866E+01 
    1.2109636175734737E+01 
    7.9127501107355735E+00 
    1.4468934737988546E+01 
    1.7260902836786848E+01 
    9.3408215813042794E+00 
    6.4071345789530936E+00 
    1.2591029100352943E+01 
    1.7345506623316282E+01 
    1.8162208215812349E+01 
    1.7962064086989113E+01 
    1.7863536013360591E+01 
    9.1133212967170483E+00 
    1.2743005917584640E+01 
    1.6683121599597257E+01 
    9.9838871933906219E+00 
    1.7665617984630654E+01 
    1.4893180869159915E+01 
    8.7131152108112744E+00 
    1.7357971872620631E+01 
    1.8506001560743616E+01 
    1.7430846288886368E+01 
    9.0052367233741322E+00 
    1.2655448102335370E+01 
    9.8735445127721029E+00 
    1.1978104139571409E+01 
    1.7251655008011841E+01 
    1.7237457250734703E+01 
    9.0555813625421013E+00 
    1.8295826163899584E+01 
    1.3247675855493990E+01 
    1.7269866236408799E+01 
    1.8298618007542409E+01 
    1.7257576167701497E+01 
    1.5845360115823865E+01 
    1.9384102124458551E+01 
    1.2053780935667959E+01 
    1.8428950493760482E+01 
    1.7302420870738228E+01 
    1.8514372281755918E+01 
    1.8293030765623932E+01 
    1.2165915869391412E+01 
    1.2505139925338140E+01 
    1.2100077134402373E+01 
    1.5193465984200785E+01 
    5.2422716657426180E+00 
    1.2884704506138101E+01 
    1.9520005400634826E+01 
    1.2881767193470031E+01 
    1.3100800409054765E+01 
    1.8482844905722708E+01 
    1.8746735085988394E+01 
    1.1956448104199504E+01 
    1.7269065927636657E+01 
    1.7232110322325784E+01 
    1.3086016176976221E+01 
    1.8242096616066892E+01 
    9.1668968425528448E+00 
    5.8982473016641164E+00 
    1.3419169970086271E+01 
    1.2895293872513733E+01 
    1.7235851918753252E+01 
    8.4861828462673099E+00 
    1.7883782739979686E+01 
    6.0204166500870020E+00 
    1.2829746598373911E+01 
    1.2189047323510030E+01 
    1.2632450447113845E+01 
    2.0885048552751897E+01 
    5.0918968523128330E+00 
    1.2791314805951117E+01 
    1.5204311713004103E+01 
    1.2239455342704941E+01 
    9.8916299619752994E+00 
    1.8062636928056072E+01 
    2.0441766370846878E+01 
    1.8204510482495202E+01 
    1.2723482378599792E+01 
    7.4716651995471475E+00 
    2.0276993277663301E+01 
    1.7628878403888752E+01 
    9.4152159561059054E+00 
    1.2328258005092112E+01 
    1.8956213003699247E+01 
    4.3262801631431227E+00 
    1.2956110410076786E+01 
    1.8222539597782873E+01 
    1.2647767857914125E+01 
    1.1085764735479195E+01 
    1.2836259547907707E+01 
    1.6815003334658329E+01 
    1.2630252368445642E+01 
    6.6774794389768291E+00 
    1.2509910560574831E+00 
    9.5665812256805847E+00 
    1.9211340847379685E+01 
    1.2099313865952682E+01 
    1.4240656362076596E+01 
    1.3671839703022920E+01 
    1.5602221616928286E+01 
    1.2661142399798237E+01 
    1.7517769658994958E+01 
    2.0899501073833125E+01 
    1.4841771475019945E+01 
    1.8396108194516831E+01 
    7.2462925447030990E-01 
    1.7239739730357723E+01 
    7.3272932481205384E+00 
    1.9701611601014864E+01 
    1.2806714660577290E+01 
    1.1307646637658980E+01 
    1.0061075946259885E+01 
    7.0045942899319584E+00 
    1.3972881367562671E+01 
    1.0106659632746876E+01 
    1.5469123150695841E+01 
    2.9637052754399389E+00 
    1.3810169759122017E+01 
    1.7149500881476406E+01 
    7.8103275087016568E+00 
    1.7759893432927537E+01 
    1.9486127990571806E+01 
    1.7600288252642084E+01 
    1.2653821711143616E+01 
    1.2626299048737335E+01 
    1.2798489982112741E+01 
    7.5733317683433796E+00 
    1.1793857128385135E+01 
    1.1618648946581587E+01 
    1.2786084574379952E+01 
    1.2023140830295256E+01 
    9.3222618425305481E-01 
    8.3374176705186080E+00 
    1.2450440381868782E+01 
    1.2757656257559232E+01 
    1.5922139210239889E+01 
    2.8300299796207407E+00 
    1.3038568778852770E+01 
    1.2903460622683717E+01 
    4.8988922772809218E+00 
    1.7441038943861173E+01 
    1.1238067871896328E+01 
    1.2760059017620771E+01 
    1.7637244754964357E+01 
    7.0309547793597256E+00 
    1.7566533862966285E+01 
    1.1385482244209765E+01 
    1.2806278786825163E+00 
    1.2166635630761249E+01 
    1.8330708184228655E+01 
    1.7239234421880102E+01 
    1.7260228432400531E+01 
    1.3187424636588522E+01 
    1.2832645790960612E+01 
    1.1230145713653091E+01 
    9.0202963085341903E+00 
    1.7773927233648948E+01 
    1.2323459159131254E+01 
    8.7813942279400568E+00 
    1.7255640341793356E+01 
    1.8063134569997992E+01 
    1.2981054810117030E+01 
    1.2452392895722454E+01 
    2.0775212314753333E+01 
    1.3087153033446281E+01 
    1.7781422194030032E+01 
    1.0710228589333950E+01 
    2.0927411426959011E+01 
    8.5502359792066081E+00 
    1.1663696091908033E+01 
    9.5727870189266024E+00 
    1.3361048790860865E+01 
    1.0872643164401126E+01 
    2.0910806939281414E+01 
    1.3143985586439191E+01 
    1.6764611402319815E+01 
    8.7991025320129044E+00 
    1.2655784995176013E+01 
    1.7584525678445313E+01 
    1.0937390937736090E+01 
    9.3908608830322553E+00 
    1.4149526495148496E+01 
    1.7838452613279941E+01 
    9.3774409237634906E+00 
    1.2213503046040413E+01 
    1.2489290433944102E+01 
    1.7210589333807214E+01 
    1.2261451611141853E+01 
    1.7818094081965427E+01 
    1.8547987145233375E+01 
    1.1263306399168719E+01 
    1.1056298894248149E+01 
    1.0125123825625861E+01 
    1.7378385572622733E+01 
    1.2923482315225689E+01 
    2.0479272134457020E+01 
    1.6034570245546629E+01 
    1.7538517702926899E+01 
    2.0142548470746160E+01 
    1.9487975679924421E+01 
    1.2702281253863454E+01 
    1.2768927667995518E+01 
    1.6872573555302960E+01 
    1.7286078736859913E+01 
    1.7973730497318268E+01 
    1.7658820275048821E+01 
    2.0800149622746108E+01 
    1.3086581140470605E+01 
    1.1378572632519816E+01 
    1.3059459013463130E+01 
    1.8446189835920183E+01 
    1.2797102515691355E+01 
    7.6707703604113764E+00 
    1.2635577688254271E+01 
    1.8925663810006895E+01 
    1.2944590339584513E+01 
    1.1387101910107404E+01 
    1.2431262964736650E+01 
    1.9048190635933580E+01 
    1.7340695857951388E+01 
    1.0898786927319643E+01 
    1.9203202177960851E+01 
    1.2730637582532990E+01 
    1.7942360441950925E+01 
    1.9064507181827782E+01 
    1.3446402431056690E+01 
    7.0374740438125230E+00 
    1.3954516395327593E+01 
    7.2715630269421467E+00 
    1.2846969662804382E+01 
    1.2652009296007597E+01 
    1.4674194261671964E+01 
    7.6743894053566821E+00 
    1.5590039061696798E+01 
    1.2668471686551552E+01 
    1.7643903085859836E+01 
    1.3583903482967820E+01 
    1.0534938419760476E+01 
    1.2290643094182188E+01 
    1.3361313453937818E+01 
    1.3209149376638447E+01 
    1.8607055598416071E+01 
    1.0914378552213272E+01 
    1.0731007507914976E+01 
    8.0579221602078572E+00 
    1.8001308504942852E+01 
    1.2337195663197026E+01 
    1.7049242269711076E+01 
    1.2621377969685803E+01 
    8.8023029486377009E+00 
    1.7365929442828111E+01 
    1.2598516364609626E+01 
    9.5932865008167916E+00 
    1.0141292549227526E+01 
    1.0479185006584236E+01 
    1.7688321567438532E+01 
    1.2788330358206315E+01 
    1.8410405575580320E+01 
    1.2559829531002253E+01 
    1.2500027927975072E+01 
    1.2122154196622905E+01 
    1.7479597058873086E+01 
    1.2414410389030410E+01 
    1.0529466331844375E+01 
    1.9474731075770453E+01 
    1.7589122966976724E+01 
    8.9613925589402736E+00 
    3.5798496944784781E+00 
    1.2776498103147949E+01 
    1.1951295820500192E+01 
    1.1051390322293750E+01 
    1.1897248798419916E+01 
    1.7491307006981717E+01 
    1.2446151037984981E+01 
    1.1418787183389778E+01 
    1.7312931762479046E+01 
    8.8701849385098939E+00 
    1.6851905967757055E+01 
    1.1535761389029689E+01 
    1.0468574143422911E+01 
    1.1147955664718399E+01 
    1.8040486783567609E+01 
    1.2634926263714155E+01 
    1.2643390768046554E+01 
    7.7860576964225530E+00 
    8.4004308195919730E+00 
    1.5894784826442066E+01 
    1.2653244681124077E+01 
    1.2821480725333144E+01 
    1.9186504150093775E+01 
    1.0724662110293249E+01 
    1.2665485057966663E+01 
    9.1631814354556607E+00 
    9.4380197273197943E+00 
    1.7455503290911253E+01 
    1.2286555499902466E+01 
    9.2396473598586351E+00 
    1.3205383906467311E+01 
    1.2558106979741883E+01 
    1.7463356646086400E+01 
    1.9289556834543252E+01 
    1.3596001948128444E+00 
    1.2781999709357661E+01 
    1.2894045220989705E+01 
    1.7559874220849466E+01 
    1.2244533581652540E+01 
    1.2607241091055597E+01 
    1.8673485767704928E+01 
    1.1190949430914941E+01 
    9.3196582265950738E+00 
    1.5057470367659151E+01 
    1.7256036195058979E+01 
    1.8512388973977359E+01 
    1.8811393158794193E+01 
    1.2604852060679631E+01 
    1.2772418148481746E+01 
    1.4028721827152584E+01 
    8.5373313351280977E+00 
    1.7415904930057987E+01 
    1.0024757485448266E+01 
    8.8648612092037631E+00 
    1.5640595590214126E+01 
    1.4706007542208257E+01 
    8.7064544013325147E+00 
    1.7299647999281980E+01 
    1.8496255861181908E+01 
    1.3105253680130666E+01 
    1.9401824832170615E+01 
    1.7340296754588309E+01 
    1.2312705180134520E+01 
    1.8172090367092846E+01 
    9.4459102250541225E+00 
    1.7278838123346588E+01 
    1.2780803966063015E+01 
    1.2737770201995735E+01 
    1.9377188811362707E+01 
    1.2379401813805522E+01 
    1.5305752050972787E+01 
    1.1122874859513866E+01 
    1.8632805133541162E+01 
    1.7162584371524080E+01 
    1.1569840351561048E+01 
    1.7224149721233566E+01 
    1.1603897818971150E+01 
    1.2614120036431533E+01 
    1.8448548902118109E+01 
    1.7662329018869713E+01 
    1.8499799509008646E+01 
    1.7565343082148633E+01 
    1.1806272291456676E+01 
    1.2038696843940478E+01 
    1.8508300220715750E+01 
    1.2180423295954814E+01 
    1.7020479494489820E+01 
    1.2360115608712094E+01 
    5.2936837735604438E+00 
    8.9304106828127860E+00 
    8.2976972211739035E+00 
    1.8452732821915063E+01 
    1.9297104038279844E+01 
    1.7247115436790093E+01 
    1.4421446309707802E+01 
    1.7596390236463421E+01 
    1.7310194453770059E+01 
    1.8030604258167749E+01 
    7.5258453760694861E+00 
    4.9247109813034511E+00 
    1.4159081122476740E+01 
    1.2415627610291970E+01 
    1.7495379399579427E+01 
    1.7492445420164422E+01 
    1.2914320149519511E+01 
    1.7538527925312138E+01 
    1.2766023625993173E+01 
    1.2666619010674887E+01 
    6.8130989497133294E+00 
    4.9013557721808105E+00 
    1.9042315992526053E+01 
    1.0002397687176853E+01 
    1.1487408981992560E+01 
    1.2809149080599120E+01 
    2.0777951891207586E+01 
    1.2904242686066507E+01 
    1.3104154308359737E+01 
    5.6017581933611700E+00 
    1.2904134693513328E+01 
    1.2918915456962658E+01 
    1.7804146071990392E+01 
    1.1149365885605601E+01 
    1.2151426393183586E+01 
    1.9234088380619440E+01 
    1.2791311102978403E+01 
    1.7266920101128580E+01 
    1.7533763619953014E+01 
    1.5379051766013971E+01 
    1.0837208266190441E+01 
    1.7565808291908322E+01 
    1.2564854761878291E+01 
    1.7457323872417721E+01 
    1.7194048536825768E+01 
    1.8475476160002025E+01 
    1.7558219327205503E+01 
    1.6238744310897467E+01 
    1.2778642079986914E+01 
    8.6207024242721602E+00 
    2.0647077897913771E+01 
    1.0226135201245638E+01 
    1.8379637882386074E+01 
    1.2775757601701713E+01 
    1.0783034213476862E+01 
    6.5197873217687023E+00 
    1.2957525625525198E+01 
    1.7546365085073248E+01 
    1.7542469443415403E+01 
    1.2594076177005213E+01 
    1.2769278003839331E+01 
    1.9462728420390363E+01 
    1.8746755589411300E+01 
    1.2925352750292578E+01 
    4.5854119809719576E+00 
    1.6124035579917226E+01 
    2.0907602905050634E+01 
    1.2782332951058892E+01 
    1.4879921534719946E+01 
    1.2242907844191048E+01 
    2.0497240812083284E+01 
    1.8841537666598661E+01 
    1.8557491461915973E+01 
    1.2949097344263382E+01 
    6.0544117458486042E+00 
    1.2197999980437947E+01 
    1.2268925591823297E+01 
    1.2314468648115534E+01 
    5.0125718588412154E+00 