# vtk DataFile Version 2.0
Pressure Field Data 
ASCII 
DATASET UNSTRUCTURED_GRID 

POINTS 2860 double 

    0.0000000000000000E+00     0.0000000000000000E+00     0.0000000000000000E+00 
    1.0000000000000000E+00     0.0000000000000000E+00     0.0000000000000000E+00 
    1.0000000000000000E+00     1.0000000000000000E+00     0.0000000000000000E+00 
    0.0000000000000000E+00     1.0000000000000000E+00     0.0000000000000000E+00 
    2.5000000000000000E-01     2.5000000000000000E-01     0.0000000000000000E+00 
    7.5000000000000000E-01     2.5000000000000000E-01     0.0000000000000000E+00 
    7.5000000000000000E-01     7.5000000000000000E-01     0.0000000000000000E+00 
    2.5000000000000000E-01     7.5000000000000000E-01     0.0000000000000000E+00 
    3.1249999999942091E-02     0.0000000000000000E+00     0.0000000000000000E+00 
    6.2499999999873469E-02     0.0000000000000000E+00     0.0000000000000000E+00 
    9.3749999999826514E-02     0.0000000000000000E+00     0.0000000000000000E+00 
    1.2499999999977961E-01     0.0000000000000000E+00     0.0000000000000000E+00 
    1.5624999999968961E-01     0.0000000000000000E+00     0.0000000000000000E+00 
    1.8749999999959971E-01     0.0000000000000000E+00     0.0000000000000000E+00 
    2.1874999999950970E-01     0.0000000000000000E+00     0.0000000000000000E+00 
    2.4999999999941969E-01     0.0000000000000000E+00     0.0000000000000000E+00 
    2.8124999999932920E-01     0.0000000000000000E+00     0.0000000000000000E+00 
    3.1249999999923850E-01     0.0000000000000000E+00     0.0000000000000000E+00 
    3.4374999999914790E-01     0.0000000000000000E+00     0.0000000000000000E+00 
    3.7499999999905720E-01     0.0000000000000000E+00     0.0000000000000000E+00 
    4.0624999999896660E-01     0.0000000000000000E+00     0.0000000000000000E+00 
    4.3749999999887590E-01     0.0000000000000000E+00     0.0000000000000000E+00 
    4.6874999999878530E-01     0.0000000000000000E+00     0.0000000000000000E+00 
    4.9999999999869471E-01     0.0000000000000000E+00     0.0000000000000000E+00 
    5.3124999999877620E-01     0.0000000000000000E+00     0.0000000000000000E+00 
    5.6249999999885780E-01     0.0000000000000000E+00     0.0000000000000000E+00 
    5.9374999999893940E-01     0.0000000000000000E+00     0.0000000000000000E+00 
    6.2499999999902101E-01     0.0000000000000000E+00     0.0000000000000000E+00 
    6.5624999999910261E-01     0.0000000000000000E+00     0.0000000000000000E+00 
    6.8749999999918421E-01     0.0000000000000000E+00     0.0000000000000000E+00 
    7.1874999999926570E-01     0.0000000000000000E+00     0.0000000000000000E+00 
    7.4999999999934730E-01     0.0000000000000000E+00     0.0000000000000000E+00 
    7.8124999999942890E-01     0.0000000000000000E+00     0.0000000000000000E+00 
    8.1249999999951039E-01     0.0000000000000000E+00     0.0000000000000000E+00 
    8.4374999999959199E-01     0.0000000000000000E+00     0.0000000000000000E+00 
    8.7499999999967359E-01     0.0000000000000000E+00     0.0000000000000000E+00 
    9.0624999999975520E-01     0.0000000000000000E+00     0.0000000000000000E+00 
    9.3749999999983680E-01     0.0000000000000000E+00     0.0000000000000000E+00 
    9.6874999999991840E-01     0.0000000000000000E+00     0.0000000000000000E+00 
    1.0000000000000000E+00     3.1249999999942091E-02     0.0000000000000000E+00 
    1.0000000000000000E+00     6.2499999999873469E-02     0.0000000000000000E+00 
    1.0000000000000000E+00     9.3749999999826514E-02     0.0000000000000000E+00 
    1.0000000000000000E+00     1.2499999999977961E-01     0.0000000000000000E+00 
    1.0000000000000000E+00     1.5624999999968961E-01     0.0000000000000000E+00 
    1.0000000000000000E+00     1.8749999999959971E-01     0.0000000000000000E+00 
    1.0000000000000000E+00     2.1874999999950970E-01     0.0000000000000000E+00 
    1.0000000000000000E+00     2.4999999999941969E-01     0.0000000000000000E+00 
    1.0000000000000000E+00     2.8124999999932920E-01     0.0000000000000000E+00 
    1.0000000000000000E+00     3.1249999999923850E-01     0.0000000000000000E+00 
    1.0000000000000000E+00     3.4374999999914790E-01     0.0000000000000000E+00 
    1.0000000000000000E+00     3.7499999999905720E-01     0.0000000000000000E+00 
    1.0000000000000000E+00     4.0624999999896660E-01     0.0000000000000000E+00 
    1.0000000000000000E+00     4.3749999999887590E-01     0.0000000000000000E+00 
    1.0000000000000000E+00     4.6874999999878530E-01     0.0000000000000000E+00 
    1.0000000000000000E+00     4.9999999999869471E-01     0.0000000000000000E+00 
    1.0000000000000000E+00     5.3124999999877620E-01     0.0000000000000000E+00 
    1.0000000000000000E+00     5.6249999999885780E-01     0.0000000000000000E+00 
    1.0000000000000000E+00     5.9374999999893940E-01     0.0000000000000000E+00 
    1.0000000000000000E+00     6.2499999999902101E-01     0.0000000000000000E+00 
    1.0000000000000000E+00     6.5624999999910261E-01     0.0000000000000000E+00 
    1.0000000000000000E+00     6.8749999999918421E-01     0.0000000000000000E+00 
    1.0000000000000000E+00     7.1874999999926570E-01     0.0000000000000000E+00 
    1.0000000000000000E+00     7.4999999999934730E-01     0.0000000000000000E+00 
    1.0000000000000000E+00     7.8124999999942890E-01     0.0000000000000000E+00 
    1.0000000000000000E+00     8.1249999999951039E-01     0.0000000000000000E+00 
    1.0000000000000000E+00     8.4374999999959199E-01     0.0000000000000000E+00 
    1.0000000000000000E+00     8.7499999999967359E-01     0.0000000000000000E+00 
    1.0000000000000000E+00     9.0624999999975520E-01     0.0000000000000000E+00 
    1.0000000000000000E+00     9.3749999999983680E-01     0.0000000000000000E+00 
    1.0000000000000000E+00     9.6874999999991840E-01     0.0000000000000000E+00 
    9.6875000000003686E-01     1.0000000000000000E+00     0.0000000000000000E+00 
    9.3750000000011691E-01     1.0000000000000000E+00     0.0000000000000000E+00 
    9.0625000000015765E-01     1.0000000000000000E+00     0.0000000000000000E+00 
    8.7500000000017863E-01     1.0000000000000000E+00     0.0000000000000000E+00 
    8.4375000000028044E-01     1.0000000000000000E+00     0.0000000000000000E+00 
    8.1250000000040856E-01     1.0000000000000000E+00     0.0000000000000000E+00 
    7.8125000000054956E-01     1.0000000000000000E+00     0.0000000000000000E+00 
    7.5000000000066480E-01     1.0000000000000000E+00     0.0000000000000000E+00 
    7.1875000000086831E-01     1.0000000000000000E+00     0.0000000000000000E+00 
    6.8750000000102829E-01     1.0000000000000000E+00     0.0000000000000000E+00 
    6.5625000000114431E-01     1.0000000000000000E+00     0.0000000000000000E+00 
    6.2500000000129829E-01     1.0000000000000000E+00     0.0000000000000000E+00 
    5.9375000000147926E-01     1.0000000000000000E+00     0.0000000000000000E+00 
    5.6250000000168354E-01     1.0000000000000000E+00     0.0000000000000000E+00 
    5.3125000000188671E-01     1.0000000000000000E+00     0.0000000000000000E+00 
    5.0000000000205835E-01     1.0000000000000000E+00     0.0000000000000000E+00 
    4.6875000000192979E-01     1.0000000000000000E+00     0.0000000000000000E+00 
    4.3750000000180111E-01     1.0000000000000000E+00     0.0000000000000000E+00 
    4.0625000000167238E-01     1.0000000000000000E+00     0.0000000000000000E+00 
    3.7500000000154382E-01     1.0000000000000000E+00     0.0000000000000000E+00 
    3.4375000000141509E-01     1.0000000000000000E+00     0.0000000000000000E+00 
    3.1250000000128642E-01     1.0000000000000000E+00     0.0000000000000000E+00 
    2.8125000000115769E-01     1.0000000000000000E+00     0.0000000000000000E+00 
    2.5000000000102918E-01     1.0000000000000000E+00     0.0000000000000000E+00 
    2.1875000000090050E-01     1.0000000000000000E+00     0.0000000000000000E+00 
    1.8750000000077180E-01     1.0000000000000000E+00     0.0000000000000000E+00 
    1.5625000000064329E-01     1.0000000000000000E+00     0.0000000000000000E+00 
    1.2500000000051459E-01     1.0000000000000000E+00     0.0000000000000000E+00 
    9.3750000000385914E-02     1.0000000000000000E+00     0.0000000000000000E+00 
    6.2500000000257239E-02     1.0000000000000000E+00     0.0000000000000000E+00 
    3.1250000000128557E-02     1.0000000000000000E+00     0.0000000000000000E+00 
    0.0000000000000000E+00     9.6875000000003686E-01     0.0000000000000000E+00 
    0.0000000000000000E+00     9.3750000000011691E-01     0.0000000000000000E+00 
    0.0000000000000000E+00     9.0625000000015765E-01     0.0000000000000000E+00 
    0.0000000000000000E+00     8.7500000000017863E-01     0.0000000000000000E+00 
    0.0000000000000000E+00     8.4375000000028044E-01     0.0000000000000000E+00 
    0.0000000000000000E+00     8.1250000000040856E-01     0.0000000000000000E+00 
    0.0000000000000000E+00     7.8125000000054956E-01     0.0000000000000000E+00 
    0.0000000000000000E+00     7.5000000000066480E-01     0.0000000000000000E+00 
    0.0000000000000000E+00     7.1875000000086831E-01     0.0000000000000000E+00 
    0.0000000000000000E+00     6.8750000000102829E-01     0.0000000000000000E+00 
    0.0000000000000000E+00     6.5625000000114431E-01     0.0000000000000000E+00 
    0.0000000000000000E+00     6.2500000000129829E-01     0.0000000000000000E+00 
    0.0000000000000000E+00     5.9375000000147926E-01     0.0000000000000000E+00 
    0.0000000000000000E+00     5.6250000000168354E-01     0.0000000000000000E+00 
    0.0000000000000000E+00     5.3125000000188671E-01     0.0000000000000000E+00 
    0.0000000000000000E+00     5.0000000000205835E-01     0.0000000000000000E+00 
    0.0000000000000000E+00     4.6875000000192979E-01     0.0000000000000000E+00 
    0.0000000000000000E+00     4.3750000000180111E-01     0.0000000000000000E+00 
    0.0000000000000000E+00     4.0625000000167238E-01     0.0000000000000000E+00 
[...]
CELL_DATA 2795 
SCALARS Pressure double 1 
LOOKUP_TABLE default 

    7.9455724042645484E+00 
    1.9340646648049233E+01 
    1.3243932912471237E+01 
    1.2900433726150295E+01 
    1.0046049667681519E+01 
    1.9039108084391568E+01 
    2.0187126588583272E+01 
    6.9681666716514519E+00 
    1.3833275172373964E+01 
    1.0464590944467425E+01 
    8.8112063905483513E+00 
    1.8590449215452200E+01 
    1.9179458518471684E+01 
    1.8979890307546309E+01 
    1.2104710014221972E+01 
    6.8329298453880041E+00 
    1.1825107093428919E+01 
    9.4250944675633708E+00 
    1.7997199656243321E+01 
    1.3221292931200692E+01 
    1.3110321634666846E+01 
    1.8859113006986920E+01 
    1.2539218888219128E+01 
    4.4738887254740584E-01 
    1.8628747746044063E+01 
    1.9159653487150361E+01 
    2.0239204854268110E+01 
    8.4419947484480655E+00 
    1.8456583209971395E+01 
    2.0221187161975365E+01 
    1.3448018770468508E+01 
    1.3438729967628424E+01 
    9.1601957167549415E+00 
    1.3204653247485981E+01 
    4.0470994445413151E+00 
    1.1836006939013258E+01 
    1.3187798106283537E+01 
    2.0276047657113704E+01 
    2.0161127474770229E+01 
    1.8611461322608662E+01 
    9.9155741802916086E+00 
    1.8695242976007759E+01 
    9.2889921635171013E-01 
    1.3196567996980106E+01 
    1.9970231436016583E+01 
    1.9512296682508762E+01 
    1.8573933049334237E+01 
    1.4279334374595019E+01 
    1.8630020786979305E+01 
    1.2091752311610518E+01 
    1.1510039983390215E+01 
    1.3399012876619750E+01 
    1.3075964761071496E+01 
    1.1880913871612890E+01 
    1.3534932658140164E+01 
    1.7669298753419749E+01 
    1.5559181497711977E+01 
    1.0108653384492987E+01 
    1.8876224911356182E+01 
    1.8722514709961203E+01 
    1.2846326103298905E+01 
    1.2716755992508096E+01 
    1.2773980184659143E+01 
    2.0082542856485908E+01 
    2.0516114363840348E+01 
    1.1832168313604411E+01 
    1.3397068268248630E+01 
    1.8287409654856027E+01 
    1.5365849445102047E+01 
    1.2779110679688745E+01 
    2.0454191498627011E+01 
    1.8876437149555279E+01 
    1.1672750654264162E+01 
    1.9659974185008362E+01 
    1.3834763311399447E+01 
    1.8448815011234256E+01 
    2.0310315334205178E+01 
    1.3871136101849427E+01 
    8.0528664981383624E+00 
    1.3417496869274609E+01 
    2.0165744086390141E+01 
    2.0495003981056250E+01 
    1.1855559309065105E+01 
    1.3338944925178003E+01 
    2.0565971564691964E+01 
    1.3184829969551457E+01 
    1.2658643281889537E+01 
    1.5948408137710974E+01 
    7.6650717512081847E+00 
    1.1546910649297995E+01 
    1.3335299646521735E+01 
    1.4001516044779823E+01 
    2.2411356226384250E+01 
    9.7274200995478441E+00 
    1.3405871824657840E+01 
    1.8543047803573717E+01 
    1.9079123701450616E+01 
    8.4100404430344220E+00 
    1.3027913203734629E+01 
    1.3372388543678998E+01 
    1.9124853337020795E+01 
    1.3359571004280042E+01 
    1.8994058273189001E+01 
    4.8478468717384047E+00 
    8.5554497129144202E+00 
    1.3650781340694044E+01 
    1.9355723133573612E+01 
    1.1794406733074551E+01 
    1.2535456090735801E+01 
    1.3332348801795193E+01 
    1.2616756933333473E+01 
    1.5103244401982840E+01 
    1.2178515331046720E+01 
    1.1685296194786506E+01 
    8.8493427552755666E+00 
    1.5943311093627745E+01 
    1.3444295700024959E+01 
    1.9965136813637017E+01 
    1.1434829433000534E+01 
    1.2873196134990001E+01 
    1.8881499165258202E+01 
    1.0572476446658150E+01 
    1.9600347181905327E+01 
    1.3262883434329506E+01 
    1.2785267925502680E+01 
    1.9089480882842569E+01 
    1.3431384760073897E+01 
    2.0317726531515465E+01 
    1.5979837995016853E+01 
    1.7414015698892452E+01 
    2.0263071701711318E+01 
    9.7484279285412541E+00 
    1.3673066655165885E+01 
    1.9119161920993342E+01 
    3.6055996933500509E+00 
    1.3507683429599336E+01 
    2.0215639274032057E+01 
    1.2818268918838653E+01 
    1.4745967223112126E+01 
    8.2806628013745769E+00 
    1.8560698575209436E+01 
    2.2982147585840458E+01 
    1.6649015043241125E+01 
    1.2821891467284605E+01 
    1.1395566108608577E+01 
    1.4354471666656808E+01 
    1.3281330156908192E+01 
    8.9037726715832175E+00 
    2.0259361803096663E+01 
    1.9072685892442024E+01 
    1.8547065876056450E+01 
    1.4002256871645937E+01 
    1.1618616676605834E+01 
    1.3103888691823723E+01 
    1.9696599718589056E+01 
    1.1988038482190184E+01 
    1.3397919182508188E+01 
    1.2211543896599492E+01 
    1.5722036385167035E+01 
    2.2968674584573176E+01 
    1.8527270683121117E+01 
    1.1446403968525145E+01 
    1.9414583843493592E+01 
    1.9293102442903031E+01 
    1.9413711950453660E+01 
    2.0839245605035458E+01 
    2.1546844893284973E+01 
    1.9477147809682677E+01 
    1.3387731305337629E+01 
    1.4524419689598858E+01 
    1.9205899687244706E+01 
    1.9953248600551831E+01 
    9.3147609615991840E+00 
    1.8568976697417913E+01 
    1.9628529095915638E+01 
    9.0589916815767886E+00 
    2.0744094641796323E+01 
    2.0697163139919720E+01 
    1.8098522526244803E+01 
    1.3753979639911838E+01 
    3.3542206437934450E+00 
    2.0214625183038201E+01 
    1.3581028428810095E+01 
    2.0409011748807142E+01 
    1.2724397526258700E+01 
    1.9888743971293714E+01 
    1.1645464360905597E+00 
    1.7408328294682121E+01 
    1.2772849174314381E+01 
    1.1572500147822948E+01 
    1.1243788978242286E+01 
    1.3227139371605093E+01 
    1.4613147262106612E+01 
    1.3937929784402943E+01 
    8.9682020234250750E+00 
    1.9959909320585446E+01 
    1.9164718199064620E+01 
    1.5520128705994873E+01 
    1.3640357742594924E+01 
    1.8121946073874018E+00 
    1.0260853201903011E+01 
    6.7610412002403137E+00 
    2.0239874934393985E+01 
    1.4959509991788691E+01 
    1.9074409274365699E+01 
    1.9262962070852439E+01 
    1.2076029144819021E+01 
    1.5653077354657272E+01 
    1.8524644922179409E+01 
    2.0681171908170633E+01 
    8.2705241882442806E+00 
    1.6694793631449269E+01 
    1.3912807549694378E+01 
    7.2488400853615147E+00 
    1.2084246066179878E+01 
    1.6404209734171797E+01 
    1.9205735557415977E+01 
    1.3282320679478758E+01 
    1.9379073281747797E+01 
    1.9010002757348676E+01 
    1.8937288303033512E+01 
    1.3106927654910095E+01 
    1.1419951511825507E+01 
    1.8562134608883511E+01 
    1.1658843264537319E+01 
    1.3370023174116156E+01 
    1.1413711988005517E+01 
    1.3339429750425220E+01 
    1.9273099205060358E+01 
    8.0509183536953586E+00 
    1.1959541999368676E+01 
    2.0115835455536132E+01 
    1.3114277549550373E+01 
    1.4825233597517109E+01 
    8.2589872738869250E+00 
    1.1758048894513824E+01 
    1.8974340956139994E+01 
    1.9464115977532614E+01 
    6.7358054060066568E+00 
    1.3131778307043410E+01 
    1.1443507600682672E+01 
    2.1251443451153875E+01 
    2.0513393022659109E+01 
    2.1586716293842606E+01 
    1.3153802561300211E+01 
    1.9236305469132038E+01 
    1.8439740081209720E+01 
    1.2986559928686384E+01 
    1.8543996214342055E+01 
    1.3640715180446712E+01 
    7.3439430259765031E+00 
    1.3567821365274639E+01 
    2.0104482042993379E+01 
    1.8537721359171197E+01 
    8.7557520353926197E+00 
    1.8582608335262542E+01 
    1.4648520097719453E+01 
    1.3480633088326362E+01 
    1.2910087370793233E+01 
    1.8313413490814217E+01 
    1.4146154286472045E+01 
    1.8567242740605128E+01 
    1.3119240473056701E+01 
    7.6171558905891823E+00 
    1.3455554332023173E+01 
    1.1255728022679437E+01 
    1.6679560763347229E+01 
    2.0387226730838684E+01 
    1.8565317702833905E+01 
    2.0204493904777696E+01 
    1.3044975098261620E+01 
    8.5279296742819408E+00 
    8.6556326437383468E+00 
    1.3720342221774787E+01 
    1.3337337372924937E+01 
    1.8337376434815971E+00 
    1.7715247790499703E+01 
    2.0900030966466051E+01 
    1.2747729192009157E+01 
    7.7121075541783908E+00 
    1.5445523888267406E+01 
    1.8574936062365559E+01 
    9.3841904416642983E+00 
    6.0540398607395645E+00 
    1.3322638740184365E+01 
    1.8722456267887456E+01 
    1.9841529170823559E+01 
    1.9516355601402573E+01 
    1.9469177417549059E+01 
    9.0950483981641312E+00 
    1.3475282815111662E+01 
    1.8015780382197782E+01 
    1.0258542533812575E+01 
    1.9154884738184553E+01 
    1.5957496425276979E+01 
    8.7856005203139613E+00 
    1.8710947613037803E+01 
    2.0249863429658568E+01 
    1.8831468424239183E+01 
    8.9976033575036514E+00 
    1.3392621997272839E+01 
    1.0011256732007119E+01 
    1.2599007265715400E+01 
    1.8566546134702751E+01 
    1.8549454299466905E+01 
    9.0569847377959380E+00 
    1.9952976948275417E+01 
    1.4061332120478754E+01 
    1.8630994179776344E+01 
    2.0031228466983240E+01 
    1.8597288154185524E+01 
    1.6991279648079502E+01 
    2.1331510915444575E+01 
    1.2671721757052600E+01 
    2.0161202411580032E+01 
    1.8654195699714688E+01 
    2.0267526649331487E+01 
    1.9940772847177911E+01 
    1.2808776985363068E+01 
    1.3231338887521861E+01 
    1.2736910805497185E+01 
    1.6254475144433055E+01 
    4.8714381972017398E+00 
    1.3638004620360569E+01 
    2.1488651154811301E+01 
    1.3647040821397471E+01 
    1.3894984485292213E+01 
    2.0225926837402920E+01 
    2.0540896237536380E+01 
    1.2532121199737936E+01 
    1.8587664619291214E+01 
    1.8550433120686893E+01 
    1.3878236952278941E+01 
    1.9866049626374231E+01 
    9.2582586430272844E+00 
    5.8595331614070680E+00 
    1.4255541472429138E+01 
    1.3662201880195676E+01 
    1.8540302859057803E+01 
    8.3901169225949612E+00 
    1.9402323659723862E+01 
    5.9722815660465507E+00 
    1.3588519168506867E+01 
    1.2811248863871947E+01 
    1.3366821700399271E+01 
    2.3021849225194874E+01 
    4.7264910982636712E+00 
    1.3530027523332775E+01 
    1.6300543229070705E+01 
    1.2916547596664625E+01 
    1.0008059965835464E+01 
    1.9685095672400202E+01 
    2.2520162028127661E+01 
    1.9859996732880340E+01 
    1.3449627757268962E+01 
    7.2110993467634339E+00 
    2.2351791753727600E+01 
    1.9138170791208065E+01 
    9.4526582109897070E+00 
    1.3010959820257122E+01 
    2.0813469271201257E+01 
    4.0054527816320427E+00 
    1.3731144272005807E+01 
    1.9948733523457999E+01 
    1.3384619940105825E+01 
    1.1552078059600325E+01 
    1.3582055313075259E+01 
    1.8150256650984197E+01 
    1.3365319207136370E+01 
    6.3190258244712751E+00 
    1.1513606338768210E+00 
    9.7591588816541321E+00 
    2.1123717419197408E+01 
    1.2736710494314901E+01 
    1.5204217574375368E+01 
    1.4547340773059862E+01 
    1.6775688163776742E+01 
    1.3399611712668333E+01 
    1.8991553987260403E+01 
    2.3037283224317569E+01 
    1.5836422570913797E+01 
    2.0119386364829644E+01 
    6.6992398553022714E-01 
    1.8550343654252725E+01 
    7.0837721684384265E+00 
    2.1696562776752458E+01 
    1.3547855319472143E+01 
    1.1813931563760313E+01 
    1.0237040024799773E+01 
    6.6847940544239890E+00 
    1.4873776566852809E+01 
    1.0392887051529240E+01 
    1.6527558988215500E+01 
    2.8135873760996888E+00 
    1.4698628547157009E+01 
    1.8424850041450746E+01 
    7.8416688089690130E+00 
    1.9267053288118380E+01 
    2.1405139722148903E+01 
    1.9074091887064551E+01 
    1.3366638108143395E+01 
    1.3359632414243007E+01 
    1.3538360895408408E+01 
    7.3295967707111140E+00 
    1.2362879521978680E+01 
    1.2149506646365801E+01 
    1.3523948059893380E+01 
    1.2641636434931913E+01 
    8.5960120552068053E-01 
    8.2158833358079590E+00 
    1.3149401119651744E+01 
    1.3490292252726695E+01 
    1.7033867339188649E+01 
    2.6172546862786135E+00 
    1.3824510021671939E+01 
    1.3671553589635300E+01 
    4.5408876962154272E+00 
    1.8855026352647496E+01 
    1.1669392052956630E+01 
    1.3510210509744480E+01 
    1.9121783305313677E+01 
    6.7055722359490595E+00 
    1.9012042725358921E+01 
    1.1859388483555312E+01 
    1.1788954652900057E+00 
    1.2817418894946595E+01 
    2.0013052944664885E+01 
    1.8557046700191155E+01 
    1.8591537425084368E+01 
    1.3987769548366106E+01 
    1.3591747058022708E+01 
    1.1668597752054536E+01 
    9.0027179673566398E+00 
    1.9289251615735136E+01 
    1.3004012828654743E+01 
    8.7238998978347038E+00 
    1.8579974629819034E+01 
    1.9681495746685027E+01 
    1.3750560303927726E+01 
    1.3169609889526741E+01 
    2.2901818444093212E+01 
    1.3879528612647254E+01 
    1.9331367001950870E+01 
    1.1011535973452586E+01 
    2.3065639907414738E+01 
    8.6049310926175977E+00 
    1.2178998472014307E+01 
    9.6954824510181279E+00 
    1.4189793561274946E+01 
    1.1245061832814255E+01 
    2.3048214706405489E+01 
    1.3943901803291515E+01 
    1.8128205485351753E+01 
    8.8534241713287845E+00 
    1.3393145236134636E+01 
    1.9089712157298557E+01 
    1.1295201218439566E+01 
    9.4318532559016912E+00 
    1.5086034764043731E+01 
    1.9354941678893223E+01 
    9.5503002700956863E+00 
    1.2841696643445646E+01 
    1.3213581411236838E+01 
    1.8513668845845071E+01 
    1.2945470126795017E+01 
    1.9412106990154580E+01 
    2.0308720721166519E+01 
    1.1700614331493199E+01 
    1.1437065255576455E+01 
    1.0425466734947118E+01 
    1.8739945324786401E+01 
    1.3692287231282052E+01 
    2.2563916015205560E+01 
    1.7222091996064538E+01 
    1.9018679644500963E+01 
    2.2196287467932436E+01 
    2.1410717556649939E+01 
    1.3445457360892110E+01 
    1.3503717443499065E+01 
    1.8118609599737120E+01 
    1.8609504738440744E+01 
    1.9589116910777374E+01 
    1.9166082080487278E+01 
    2.2930451645929839E+01 
    1.3878880003018528E+01 
    1.1849433202399995E+01 
    1.3842761099141802E+01 
    2.0180933912415572E+01 
    1.3551733356356147E+01 
    7.6366203406141331E+00 
    1.3344988627154954E+01 
    2.0781866407423124E+01 
    1.3718083927386031E+01 
    1.1861584811446576E+01 
    1.3148428251802329E+01 
    2.0927156426747313E+01 
    1.8798176585429999E+01 
    1.1141162215517303E+01 
    2.1110296988223084E+01 
    1.3477202064168429E+01 
    1.9570478516035241E+01 
    2.0944296663840490E+01 
    1.4291398052007260E+01 
    6.7266803958854045E+00 
    1.4873860134004060E+01 
    6.9830077986680035E+00 
    1.3607724716073859E+01 
    1.3389938528106759E+01 
    1.5695128958641559E+01 
    7.4413634000643842E+00 
    1.6749290641863482E+01 
    1.3407594459579174E+01 
    1.9153118249493975E+01 
    1.4463020422704576E+01 
    1.0752708880867662E+01 
    1.2980640811398860E+01 
    1.4189053243038730E+01 
    1.4017663905829552E+01 
    2.0413887316024418E+01 
    1.1267384424605293E+01 
    1.1047054165485259E+01 
    7.8819641772850320E+00 
    1.9646474321630205E+01 
    1.3036916744121140E+01 
    1.8448120715328724E+01 
    1.3355364932363159E+01 
    8.7311592374200497E+00 
    1.8816322673512641E+01 
    1.3330182517279461E+01 
    9.6485289013025710E+00 
    1.0319454109653078E+01 
    1.0746970826481625E+01 
    1.9194841516002821E+01 
    1.3526578912340653E+01 
    2.0127986924559579E+01 
    1.3287445552809208E+01 
    1.3220709411826348E+01 
    1.2734223321691385E+01 
    1.8946221567766013E+01 
    1.3123253661253239E+01 
    1.0808082272664729E+01 
    2.1400041226456434E+01 
    1.9066892723929957E+01 
    9.0285115198631249E+00 
    3.3046611397162806E+00 
    1.3512970679883223E+01 
    1.2557858593839466E+01 
    1.1435924481316762E+01 
    1.2463847015757045E+01 
    1.8895746414609615E+01 
    1.3121017770891656E+01 
    1.1889446815956926E+01 
    1.8648781998558967E+01 
    8.9466547709917652E+00 
    1.8066892808878144E+01 
    1.2084550312605174E+01 
    1.0626465724094151E+01 
    1.1562492776265421E+01 
    1.9696076225221841E+01 
    1.3369467741868773E+01 
    1.3379110858738176E+01 
    7.5780469932198518E+00 
    8.2933675456358813E+00 
    1.7117077000852092E+01 
    1.3390216940183352E+01 
    1.3565140613356588E+01 
    2.1094319200829769E+01 
    1.1048337059172512E+01 
    1.3403978277463306E+01 
    9.2814561762583292E+00 
    9.6033706363178304E+00 
    1.8896773284718353E+01 
    1.2973736965063498E+01 
    9.2726880490985142E+00 
    1.4004663847609750E+01 
    1.3288934615165575E+01 
    1.8916736913217388E+01 
    2.1215905530394085E+01 
    1.2469286635903611E+00 
    1.3519410600605619E+01 
    1.3660829749124836E+01 
    1.9040170689176918E+01 
    1.2909584168019750E+01 
    1.3337851574616186E+01 
    2.0510789371309684E+01 
    1.1610172429067919E+01 
    9.3646528397461957E+00 
    1.6111082966296504E+01 
    1.8576408805378286E+01 
    2.0264137020586244E+01 
    2.0636026072051976E+01 
    1.3311440404091295E+01 
    1.3507921798741297E+01 
    1.4940406154560616E+01 
    8.5518376634593238E+00 
    1.8798900236507340E+01 
    1.0193823420517429E+01 
    8.9292688870480497E+00 
    1.6771597893540616E+01 
    1.5706163608737292E+01 
    8.7458942569265101E+00 
    1.8633253718061660E+01 
    2.0243871581930911E+01 
    1.3900029262623287E+01 
    2.1349121526311059E+01 
    1.8686403039731939E+01 
    1.2977118252683605E+01 
    1.9767435419631504E+01 
    9.6004194040112463E+00 
    1.8598900108880407E+01 
    1.3517886798135038E+01 
    1.3468941739509848E+01 
    2.1323162760471277E+01 
    1.3088717809327758E+01 
    1.6385265340854765E+01 
    1.1529160123956979E+01 
    2.0413410785290573E+01 
    1.8441152489581427E+01 
    1.2045915730834997E+01 
    1.8554151921991835E+01 
    1.2093662278691495E+01 
    1.3344922363363725E+01 
    2.0185767962618513E+01 
    1.9147791907499300E+01 
    2.0248301464811735E+01 
    1.9043173707792963E+01 
    1.2380683615668866E+01 
    1.2647081453696057E+01 
    2.0258840339032766E+01 
    1.2818463306657700E+01 
    1.8291905440429439E+01 
    1.3064009165493124E+01 
    4.9266050054683275E+00 
    9.0305397326910590E+00 
    8.3458208844800730E+00 
    2.0189945872793114E+01 
    2.1226346220490850E+01 
    1.8573535402714093E+01 
    1.5390611388460306E+01 
    1.9034636189155613E+01 
    1.8642752509263666E+01 
    1.9641474634021730E+01 
    7.2724038571570615E+00 
    4.5743241141137609E+00 
    1.5092902003657020E+01 
    1.3107718363654230E+01 
    1.8914378762884802E+01 
    1.8909615831341664E+01 
    1.3683079124108096E+01 
    1.8972401335941573E+01 
    1.3500380195183485E+01 
    1.3395353576622886E+01 
    6.4630468396697607E+00 
    4.5452926254614034E+00 
    2.0918718824690522E+01 
    1.0255722996532368E+01 
    1.1986579962257181E+01 
    1.3565358996558412E+01 
    2.2905632450319477E+01 
    1.3672338403455266E+01 
    1.3897485246960740E+01 
    5.2566492835522105E+00 
    1.3672138382530520E+01 
    1.3688760907080564E+01 
    1.9317785747434726E+01 
    1.1561729333880182E+01 
    1.2810886262094392E+01 
    2.1149397211325631E+01 
    1.3530310590212613E+01 
    1.8595181880978984E+01 
    1.8954772438932395E+01 
    1.6478017987386970E+01 
    1.1250732762471923E+01 
    1.9039433825931329E+01 
    1.3272161357041394E+01 
    1.8863257091092549E+01 
    1.8489316021451241E+01 
    2.0218296457669105E+01 
    1.9047184744822541E+01 
    1.7443765373938898E+01 
    1.3515309510185622E+01 
    8.6820741897090237E+00 
    2.2761535464210986E+01 
    1.0435146963259992E+01 
    2.0104664892503497E+01 
    1.3511984885792748E+01 
    1.1109352958492744E+01 
    6.2622907433153348E+00 
    1.3732181727818952E+01 
    1.9021997363863090E+01 
    1.9005018258684867E+01 
    1.3322089116457148E+01 
    1.3504527073681272E+01 
    2.1411101122065009E+01 
    2.0556546883600483E+01 
    1.3696207736262437E+01 
    4.2589067973708552E+00 
    1.7320812156419485E+01 
    2.3043594010647965E+01 
    1.3519556240572545E+01 
    1.5910727392361649E+01 
    1.2909146565757997E+01 
    2.2594940072602459E+01 
    2.0672972489652725E+01 
    2.0354339713739162E+01 
    1.3723012574131824E+01 
    5.8758514583723116E+00 
    1.2856190622217456E+01 
    1.2938434321837141E+01 
    1.2987295021701105E+01 
    4.6774468974037759E+00 