# vtk DataFile Version 2.0
Pressure Field Data 
ASCII 
DATASET UNSTRUCTURED_GRID 

POINTS 2860 double 

    0.0000000000000000E+00     0.0000000000000000E+00     0.0000000000000000E+00 
    1.0000000000000000E+00     0.0000000000000000E+00     0.0000000000000000E+00 
    1.0000000000000000E+00     1.0000000000000000E+00     0.0000000000000000E+00 
    0.0000000000000000E+00     1.0000000000000000E+00     0.0000000000000000E+00 
    2.5000000000000000E-01     2.5000000000000000E-01     0.0000000000000000E+00 
    7.5000000000000000E-01     2.5000000000000000E-01     0.0000000000000000E+00 
    7.5000000000000000E-01     7.5000000000000000E-01     0.0000000000000000E+00 
    2.5000000000000000E-01     7.5000000000000000E-01     0.0000000000000000E+00 
    3.1249999999942091E-02     0.0000000000000000E+00     0.0000000000000000E+00 
    6.2499999999873469E-02     0.0000000000000000E+00     0.0000000000000000E+00 
    9.3749999999826514E-02     0.0000000000000000E+00     0.0000000000000000E+00 
    1.2499999999977961E-01     0.0000000000000000E+00     0.0000000000000000E+00 
    1.5624999999968961E-01     0.0000000000000000E+00     0.0000000000000000E+00 
    1.8749999999959971E-01     0.0000000000000000E+00     0.0000000000000000E+00 
    2.1874999999950970E-01     0.0000000000000000E+00     0.0000000000000000E+00 
    2.4999999999941969E-01     0.0000000000000000E+00     0.0000000000000000E+00 
    2.8124999999932920E-01     0.0000000000000000E+00     0.0000000000000000E+00 
    3.1249999999923850E-01     0.0000000000000000E+00     0.0000000000000000E+00 
    3.4374999999914790E-01     0.0000000000000000E+00     0.0000000000000000E+00 
    3.7499999999905720E-01     0.0000000000000000E+00     0.0000000000000000E+00 
    4.0624999999896660E-01     0.0000000000000000E+00     0.0000000000000000E+00 
    4.3749999999887590E-01     0.0000000000000000E+00     0.0000000000000000E+00 
    4.6874999999878530E-01     0.0000000000000000E+00     0.0000000000000000E+00 
    4.9999999999869471E-01     0.0000000000000000E+00     0.0000000000000000E+00 
    5.3124999999877620E-01     0.0000000000000000E+00     0.0000000000000000E+00 
    5.6249999999885780E-01     0.0000000000000000E+00     0.0000000000000000E+00 
    5.9374999999893940E-01     0.0000000000000000E+00     0.0000000000000000E+00 
    6.2499999999902101E-01     0.0000000000000000E+00     0.0000000000000000E+00 
    6.5624999999910261E-01     0.0000000000000000E+00     0.0000000000000000E+00 
    6.8749999999918421E-01     0.0000000000000000E+00     0.0000000000000000E+00 
    7.1874999999926570E-01     0.0000000000000000E+00     0.0000000000000000E+00 
    7.4999999999934730E-01     0.0000000000000000E+00     0.0000000000000000E+00 
    7.8124999999942890E-01     0.0000000000000000E+00     0.0000000000000000E+00 
    8.1249999999951039E-01     0.0000000000000000E+00     0.0000000000000000E+00 
    8.4374999999959199E-01     0.0000000000000000E+00     0.0000000000000000E+00 
    8.7499999999967359E-01     0.0000000000000000E+00     0.0000000000000000E+00 
    9.0624999999975520E-01     0.0000000000000000E+00     0.0000000000000000E+00 
    9.3749999999983680E-01     0.0000000000000000E+00     0.0000000000000000E+00 
    9.6874999999991840E-01     0.0000000000000000E+00     0.0000000000000000E+00 
    1.0000000000000000E+00     3.1249999999942091E-02     0.0000000000000000E+00 
    1.0000000000000000E+00     6.2499999999873469E-02     0.0000000000000000E+00 
    1.0000000000000000E+00     9.3749999999826514E-02     0.0000000000000000E+00 
    1.0000000000000000E+00     1.2499999999977961E-01     0.0000000000000000E+00 
    1.0000000000000000E+00     1.5624999999968961E-01     0.0000000000000000E+00 
    1.0000000000000000E+00     1.8749999999959971E-01     0.0000000000000000E+00 
    1.0000000000000000E+00     2.1874999999950970E-01     0.0000000000000000E+00 
    1.0000000000000000E+00     2.4999999999941969E-01     0.0000000000000000E+00 
    1.0000000000000000E+00     2.8124999999932920E-01     0.0000000000000000E+00 
    1.0000000000000000E+00     3.1249999999923850E-01     0.0000000000000000E+00 
    1.0000000000000000E+00     3.4374999999914790E-01     0.0000000000000000E+00 
    1.0000000000000000E+00     3.7499999999905720E-01     0.0000000000000000E+00 
    1.0000000000000000E+00     4.0624999999896660E-01     0.0000000000000000E+00 
    1.0000000000000000E+00     4.3749999999887590E-01     0.0000000000000000E+00 
    1.0000000000000000E+00     4.6874999999878530E-01     0.0000000000000000E+00 
    1.0000000000000000E+00     4.9999999999869471E-01     0.0000000000000000E+00 
    1.0000000000000000E+00     5.3124999999877620E-01     0.0000000000000000E+00 
    1.0000000000000000E+00     5.6249999999885780E-01     0.0000000000000000E+00 
    1.0000000000000000E+00     5.9374999999893940E-01     0.0000000000000000E+00 
    1.0000000000000000E+00     6.2499999999902101E-01     0.0000000000000000E+00 
    1.0000000000000000E+00     6.5624999999910261E-01     0.0000000000000000E+00 
    1.0000000000000000E+00     6.8749999999918421E-01     0.0000000000000000E+00 
    1.0000000000000000E+00     7.1874999999926570E-01     0.0000000000000000E+00 
    1.0000000000000000E+00     7.4999999999934730E-01     0.0000000000000000E+00 
    1.0000000000000000E+00     7.8124999999942890E-01     0.0000000000000000E+00 
    1.0000000000000000E+00     8.1249999999951039E-01     0.0000000000000000E+00 
    1.0000000000000000E+00     8.4374999999959199E-01     0.0000000000000000E+00 
    1.0000000000000000E+00     8.7499999999967359E-01     0.0000000000000000E+00 
    1.0000000000000000E+00     9.0624999999975520E-01     0.0000000000000000E+00 
    1.0000000000000000E+00     9.3749999999983680E-01     0.0000000000000000E+00 
    1.0000000000000000E+00     9.6874999999991840E-01     0.0000000000000000E+00 
    9.6875000000003686E-01     1.0000000000000000E+00     0.0000000000000000E+00 
    9.3750000000011691E-01     1.0000000000000000E+00     0.0000000000000000E+00 
    9.0625000000015765E-01     1.0000000000000000E+00     0.0000000000000000E+00 
    8.7500000000017863E-01     1.0000000000000000E+00     0.0000000000000000E+00 
    8.4375000000028044E-01     1.0000000000000000E+00     0.0000000000000000E+00 
    8.1250000000040856E-01     1.0000000000000000E+00     0.0000000000000000E+00 
    7.8125000000054956E-01     1.0000000000000000E+00     0.0000000000000000E+00 
    7.5000000000066480E-01     1.0000000000000000E+00     0.0000000000000000E+00 
    7.1875000000086831E-01     1.0000000000000000E+00     0.0000000000000000E+00 
    6.8750000000102829E-01     1.0000000000000000E+00     0.0000000000000000E+00 
    6.5625000000114431E-01     1.0000000000000000E+00     0.0000000000000000E+00 
    6.2500000000129829E-01     1.0000000000000000E+00     0.0000000000000000E+00 
    5.9375000000147926E-01     1.0000000000000000E+00     0.0000000000000000E+00 
    5.6250000000168354E-01     1.0000000000000000E+00     0.0000000000000000E+00 
    5.3125000000188671E-01     1.0000000000000000E+00     0.0000000000000000E+00 
    5.0000000000205835E-01     1.0000000000000000E+00     0.0000000000000000E+00 
    4.6875000000192979E-01     1.0000000000000000E+00     0.0000000000000000E+00 
    4.3750000000180111E-01     1.0000000000000000E+00     0.0000000000000000E+00 
    4.0625000000167238E-01     1.0000000000000000E+00     0.0000000000000000E+00 
    3.7500000000154382E-01     1.0000000000000000E+00     0.0000000000000000E+00 
    3.4375000000141509E-01     1.0000000000000000E+00     0.0000000000000000E+00 
    3.1250000000128642E-01     1.0000000000000000E+00     0.0000000000000000E+00 
    2.8125000000115769E-01     1.0000000000000000E+00     0.0000000000000000E+00 
    2.5000000000102918E-01     1.0000000000000000E+00     0.0000000000000000E+00 
    2.1875000000090050E-01     1.0000000000000000E+00     0.0000000000000000E+00 
    1.8750000000077180E-01     1.0000000000000000E+00     0.0000000000000000E+00 
    1.5625000000064329E-01     1.0000000000000000E+00     0.0000000000000000E+00 
    1.2500000000051459E-01     1.0000000000000000E+00     0.0000000000000000E+00 
    9.3750000000385914E-02     1.0000000000000000E+00     0.0000000000000000E+00 
    6.2500000000257239E-02     1.0000000000000000E+00     0.0000000000000000E+00 
    3.1250000000128557E-02     1.0000000000000000E+00     0.0000000000000000E+00 
    0.0000000000000000E+00     9.6875000000003686E-01     0.0000000000000000E+00 
    0.0000000000000000E+00     9.3750000000011691E-01     0.0000000000000000E+00 
    0.0000000000000000E+00     9.0625000000015765E-01     0.0000000000000000E+00 
    0.0000000000000000E+00     8.7500000000017863E-01     0.0000000000000000E+00 
    0.0000000000000000E+00     8.4375000000028044E-01     0.0000000000000000E+00 
    0.0000000000000000E+00     8.1250000000040856E-01     0.0000000000000000E+00 
    0.0000000000000000E+00     7.8125000000054956E-01     0.0000000000000000E+00 
    0.0000000000000000E+00     7.5000000000066480E-01     0.0000000000000000E+00 
    0.0000000000000000E+00     7.1875000000086831E-01     0.0000000000000000E+00 
    0.0000000000000000E+00     6.8750000000102829E-01     0.0000000000000000E+00 
    0.0000000000000000E+00     6.5625000000114431E-01     0.0000000000000000E+00 
    0.0000000000000000E+00     6.2500000000129829E-01     0.0000000000000000E+00 
    0.0000000000000000E+00     5.9375000000147926E-01     0.0000000000000000E+00 
    0.0000000000000000E+00     5.6250000000168354E-01     0.0000000000000000E+00 
    0.0000000000000000E+00     5.3125000000188671E-01     0.0000000000000000E+00 
    0.0000000000000000E+00     5.0000000000205835E-01     0.0000000000000000E+00 
    0.0000000000000000E+00     4.6875000000192979E-01     0.0000000000000000E+00 
    0.0000000000000000E+00     4.3750000000180111E-01     0.0000000000000000E+00 
    0.0000000000000000E+00     4.0625000000167238E-01     0.0000000000000000E+00 
[...]
CELL_DATA 2795 
SCALARS Pressure double 1 
LOOKUP_TABLE default 

    5.2702229131736100E+00 
    1.1882969971050819E+01 
    8.3978369300547229E+00 
    8.0381548605324777E+00 
    6.4366814198823734E+00 
    1.1783292280065917E+01 
    1.2406670597082590E+01 
    4.7195326529198907E+00 
    8.8757840546431570E+00 
    6.7620944761871318E+00 
    5.7521286749626848E+00 
    1.1569140810472382E+01 
    1.1798932944005335E+01 
    1.1757021689420673E+01 
    7.7158142316326659E+00 
    4.6392449642849716E+00 
    7.4069802852377391E+00 
    6.1288221131641416E+00 
    1.1266734016321220E+01 
    8.3935434680349168E+00 
    8.2840769227598852E+00 
    1.1702302809528055E+01 
    7.8147909002687017E+00 
    3.1986271230768104E-01 
    1.1546614676342536E+01 
    1.1777185811941109E+01 
    1.2434971973309624E+01 
    5.5339950520741921E+00 
    1.1502473085659732E+01 
    1.2422047024282868E+01 
    8.5006712913555909E+00 
    8.6200048547137627E+00 
    5.9417252260142464E+00 
    8.3596731759656464E+00 
    2.7425423524380346E+00 
    7.4091543799036970E+00 
    8.3516698480486387E+00 
    1.2456834058549804E+01 
    1.2387937751308133E+01 
    1.1580152231591198E+01 
    6.3792477221003807E+00 
    1.1527996970929285E+01 
    6.6310178671768505E-01 
    8.2522576719498293E+00 
    1.2221184909034214E+01 
    1.2078639733922369E+01 
    1.1560118160489715E+01 
    9.1798901993312576E+00 
    1.1620331330184701E+01 
    7.5729725124093923E+00 
    7.2237414280021461E+00 
    8.5849515057765942E+00 
    8.1471969168029350E+00 
    7.4502099308892769E+00 
    8.5755355391806081E+00 
    1.1092032720259446E+01 
    1.0025040949979863E+01 
    6.4702606666685645E+00 
    1.1705465193542022E+01 
    1.1642420372816353E+01 
    8.0897327649401962E+00 
    8.0558824684274359E+00 
    7.9565726325232449E+00 
    1.2337119639900259E+01 
    1.2562574694154687E+01 
    7.4167612212885050E+00 
    8.5830559978943892E+00 
    1.1488315649819215E+01 
    9.8329173107664438E+00 
    8.0899202485795580E+00 
    1.2575913684717053E+01 
    1.1641879918856491E+01 
    7.3133062106605387E+00 
    1.2161342035642676E+01 
    8.8177950554915281E+00 
    1.1421660462845397E+01 
    1.2469713880533037E+01 
    8.6782398179055544E+00 
    5.3221138290437890E+00 
    8.5991959428859204E+00 
    1.2394550058355442E+01 
    1.2593482813416028E+01 
    7.4336987448084155E+00 
    8.5164573362593661E+00 
    1.2634711120218448E+01 
    8.3571934909547814E+00 
    7.8864458537133553E+00 
    1.0174754476743214E+01 
    5.1103602903739596E+00 
    7.2450465660892638E+00 
    8.5176342879958717E+00 
    8.9931148224799227E+00 
    1.3964873535213657E+01 
    6.2591117767920901E+00 
    8.5900104104818613E+00 
    1.1541944981502837E+01 
    1.1756852525875932E+01 
    5.5280664460319464E+00 
    8.2307518050664150E+00 
    8.5469547614643027E+00 
    1.1774752311284232E+01 
    8.5507181958424603E+00 
    1.1716163279267020E+01 
    3.3936933950384973E+00 
    5.5896877449043441E+00 
    8.7781973803513420E+00 
    1.1890676622207543E+01 
    7.3799753097842871E+00 
    7.9083434986720116E+00 
    8.5368877842980648E+00 
    7.8640796718144532E+00 
    9.7284813453010219E+00 
    7.6829075288511781E+00 
    7.3200414918921810E+00 
    5.7965544152777904E+00 
    9.9311295858895736E+00 
    8.6219052425115450E+00 
    1.2261282783395226E+01 
    7.3606110459395389E+00 
    8.0288752958953520E+00 
    1.1632317498720491E+01 
    6.7277176876348479E+00 
    1.2020471836415297E+01 
    8.4369203390901664E+00 
    7.9657139019071144E+00 
    1.1758971783434381E+01 
    8.6105769284981193E+00 
    1.2479200353323511E+01 
    1.0184626350360768E+01 
    1.0966714133057552E+01 
    1.2449692293398229E+01 
    6.2710225046461820E+00 
    8.7934266607387315E+00 
    1.1761944212822565E+01 
    2.5492111351989277E+00 
    8.5534643985681278E+00 
    1.2420680413524668E+01 
    7.9951174730773822E+00 
    9.2208732303074630E+00 
    5.4664083415394682E+00 
    1.1542000000119229E+01 
    1.4420994656985114E+01 
    1.0570673749004452E+01 
    7.9886355662151374E+00 
    7.1614232833962017E+00 
    9.2143031851749910E+00 
    8.4536076160161091E+00 
    5.8148201285881473E+00 
    1.2443366196528723E+01 
    1.1859752797125855E+01 
    1.1543502422266821E+01 
    9.0064664760408952E+00 
    7.2938257072368327E+00 
    8.2837780832865686E+00 
    1.2184714938896477E+01 
    7.4887832137074701E+00 
    8.3794696809795770E+00 
    7.6224379155667821E+00 
    9.7293158311811450E+00 
    1.4409932339448188E+01 
    1.1536012289819764E+01 
    7.2419835883311094E+00 
    1.1924444778903919E+01 
    1.1855013904780987E+01 
    1.1924697182622078E+01 
    1.2808848057728927E+01 
    1.3299516203929489E+01 
    1.2073496119333377E+01 
    8.5756929788016318E+00 
    9.1148802658174244E+00 
    1.1925566159417897E+01 
    1.2274058659417046E+01 
    6.0584784396357252E+00 
    1.1559562294456633E+01 
    1.2151402082986261E+01 
    5.9098138035975012E+00 
    1.2727402481414067E+01 
    1.2719403837325704E+01 
    1.1324819942089986E+01 
    8.8472111747161097E+00 
    2.2735944527211949E+00 
    1.2418287293226960E+01 
    8.7278737643349267E+00 
    1.2523767716847034E+01 
    7.9400760894737674E+00 
    1.2271526708383552E+01 
    8.0630047896256896E-01 
    1.0982142231366854E+01 
    8.0958189826186011E+00 
    7.2602723665581790E+00 
    7.0785585068920760E+00 
    8.4080259542727891E+00 
    9.4245977617106274E+00 
    8.7010785630525920E+00 
    5.8502444700458192E+00 
    1.2267704822299747E+01 
    1.1783584812956068E+01 
    9.9375372700091287E+00 
    8.7708249621014591E+00 
    1.3046190074575028E+00 
    6.5531657377827859E+00 
    4.5627704291382916E+00 
    1.2432286036311694E+01 
    9.5907136171522431E+00 
    1.1838976907881872E+01 
    1.1840803381810419E+01 
    7.5719402090384511E+00 
    9.9894828259229165E+00 
    1.1539004117810540E+01 
    1.2705090161741724E+01 
    5.4613704309111117E+00 
    1.0398084448703592E+01 
    8.7404568559816767E+00 
    4.8679353518234141E+00 
    7.5492867835993822E+00 
    1.0404360369951045E+01 
    1.1807791275236536E+01 
    8.4643740279564152E+00 
    1.1904752514797108E+01 
    1.1699669328271359E+01 
    1.1656401616457707E+01 
    8.2912215625923391E+00 
    7.2262795624302729E+00 
    1.1550968765350623E+01 
    7.3108220780877877E+00 
    8.5543317718657228E+00 
    7.1713308370659563E+00 
    8.3274600712250209E+00 
    1.1848334039730309E+01 
    5.2710056225295139E+00 
    7.4784922257889184E+00 
    1.2359483168600566E+01 
    8.3057973584019145E+00 
    9.4880305971168717E+00 
    5.4086698538694069E+00 
    7.3583083917597119E+00 
    1.1680938559967004E+01 
    1.1953591433950669E+01 
    4.4289687382033920E+00 
    8.3075742177398784E+00 
    7.2084113041485445E+00 
    1.3085802172051110E+01 
    1.2601438627070879E+01 
    1.3322254228903143E+01 
    8.3287362987097779E+00 
    1.1825448370912698E+01 
    1.1502976227319310E+01 
    8.2079494691654240E+00 
    1.1543507805957258E+01 
    8.7709860226155083E+00 
    4.9040459888256649E+00 
    8.5314035486960957E+00 
    1.2345630982468975E+01 
    1.1540756754290172E+01 
    5.7243929417454646E+00 
    1.1565459305523834E+01 
    9.4319637444248148E+00 
    8.5372552885739967E+00 
    8.0711162468084847E+00 
    1.1428971904273514E+01 
    9.0455072652278758E+00 
    1.1555000213283311E+01 
    8.2073907747758383E+00 
    5.0306338851305679E+00 
    8.6201079788953177E+00 
    7.0866835104129100E+00 
    1.0572441556802993E+01 
    1.2523443705565827E+01 
    1.1550301641967366E+01 
    1.2414127746937716E+01 
    8.2552383698308169E+00 
    5.5781987822805537E+00 
    5.6557692498334671E+00 
    8.7279514273600576E+00 
    8.5321440786194902E+00 
    1.2460591802413228E+00 
    1.1134314110115302E+01 
    1.2834769292173602E+01 
    7.9461088627009815E+00 
    5.1394182326001818E+00 
    9.6721413912487773E+00 
    1.1564165191863619E+01 
    6.0694627801184140E+00 
    4.1613927049501411E+00 
    8.5065445832978277E+00 
    1.1654929793105484E+01 
    1.2183613846251117E+01 
    1.2088723911056574E+01 
    1.1957193579942787E+01 
    5.9278898605283814E+00 
    8.5261682277280322E+00 
    1.1143925150030503E+01 
    6.6389408455870624E+00 
    1.1787689702610470E+01 
    1.0172786956803243E+01 
    5.7349709831107090E+00 
    1.1655318333039824E+01 
    1.2424582603793523E+01 
    1.1647671240839250E+01 
    5.8537182654671591E+00 
    8.5795585152019846E+00 
    6.4170227958268953E+00 
    8.0810707507223700E+00 
    1.1557067076515368E+01 
    1.1547241507029524E+01 
    5.8867481288789074E+00 
    1.2306960089337801E+01 
    9.0483439246199850E+00 
    1.1584504471467010E+01 
    1.2279644558608309E+01 
    1.1569190830386669E+01 
    1.0776711244153068E+01 
    1.3130735064464242E+01 
    7.9247305401279498E+00 
    1.2387958493629574E+01 
    1.1612147939217829E+01 
    1.2450649058070253E+01 
    1.2301435144743502E+01 
    8.0072069156099772E+00 
    8.3921504028166201E+00 
    7.9365226954671462E+00 
    1.0366484499988445E+01 
    3.4026084517283550E+00 
    8.6540640405945197E+00 
    1.3247196339304914E+01 
    8.7748062496736967E+00 
    8.9394282024024356E+00 
    1.2426456407352724E+01 
    1.2637560660736304E+01 
    7.9099903004546688E+00 
    1.1569036468793918E+01 
    1.1544661776511621E+01 
    8.9285163842015240E+00 
    1.2262239751220374E+01 
    6.0309052233591318E+00 
    3.8737992571118252E+00 
    9.1757955219333063E+00 
    8.7868085169993453E+00 
    1.1548760558647938E+01 
    5.5145706100481382E+00 
    1.2017042470118106E+01 
    3.9462815850034869E+00 
    8.7309270327507473E+00 
    8.0914022103465122E+00 
    8.5580616954532882E+00 
    1.4458766719227485E+01 
    3.3076409862050702E+00 
    8.5719227029729552E+00 
    1.0107157021707946E+01 
    8.1668177660039660E+00 
    6.4497516577969840E+00 
    1.2122237065928523E+01 
    1.4050898604897172E+01 
    1.2245088100979702E+01 
    8.5164325654502182E+00 
    4.8521281165491521E+00 
    1.3909971734530886E+01 
    1.1773322818973105E+01 
    6.0635330265470246E+00 
    8.1076394451000269E+00 
    1.2794145631082822E+01 
    2.8069128228337501E+00 
    8.8315041252191602E+00 
    1.2215200328270811E+01 
    8.5709192924395712E+00 
    7.4345351323949735E+00 
    8.6113933372601874E+00 
    1.1325543699346763E+01 
    8.5520146196710503E+00 
    4.3374521510910080E+00 
    7.9162064224280204E-01 
    6.3276967389400909E+00 
    1.2985501039034606E+01 
    7.9348094039519950E+00 
    9.7479093063736162E+00 
    9.3515284485644905E+00 
    1.0617454877349683E+01 
    8.5845785216632162E+00 
    1.1694443145853004E+01 
    1.4472285921342069E+01 
    1.0096816156984096E+01 
    1.2363825925073392E+01 
    4.7255032308173101E-01 
    1.1548820368805337E+01 
    4.7122397404904541E+00 
    1.3403361645023923E+01 
    8.5854448853368588E+00 
    7.5334384867927708E+00 
    6.5393341180872921E+00 
    4.5547715003954492E+00 
    9.5462402827234385E+00 
    6.7016742303580648E+00 
    1.0483139770408245E+01 
    1.9323055466047192E+00 
    9.4622105515383694E+00 
    1.1491997931469111E+01 
    5.1358365056262798E+00 
    1.1966662876597388E+01 
    1.3239533130721847E+01 
    1.1849162092208125E+01 
    8.4604432692893674E+00 
    8.5530516236894893E+00 
    8.5781953370001975E+00 
    4.9232996386200796E+00 
    7.7095991520371721E+00 
    7.5827198842926906E+00 
    8.5673738420640255E+00 
    7.8832954576766303E+00 
    5.9568320871627367E-01 
    5.3926108036496272E+00 
    8.2061975223320420E+00 
    8.5440196389389662E+00 
    1.0771476615625534E+01 
    1.8350810431572171E+00 
    8.8931283954824529E+00 
    8.7917419947193860E+00 
    3.1836743408597159E+00 
    1.1737866715869087E+01 
    7.3339079128569971E+00 
    8.6708621710787650E+00 
    1.1770192164824085E+01 
    4.5682940153613085E+00 
    1.1830947320224288E+01 
    7.4154859190302567E+00 
    8.3486926171956366E-01 
    7.9884350635019743E+00 
    1.2318259091194095E+01 
    1.1549310055916637E+01 
    1.1568280252966506E+01 
    8.9365301889382618E+00 
    8.7340016438933041E+00 
    7.3083090538969877E+00 
    5.8572022751596036E+00 
    1.1864861079851291E+01 
    8.1080872180115691E+00 
    5.6428687706586649E+00 
    1.1562239068361187E+01 
    1.2151297750788002E+01 
    8.7489046425391841E+00 
    8.3529848317608852E+00 
    1.4359918094508240E+01 
    8.9292902496019710E+00 
    1.1882238194288727E+01 
    6.9574436421745975E+00 
    1.4500281821576685E+01 
    5.6225356435453664E+00 
    7.6871089354551296E+00 
    6.2902417280489837E+00 
    9.1315983449668803E+00 
    7.2204914529248629E+00 
    1.4484482933595556E+01 
    8.9713570814930979E+00 
    1.1272025548367180E+01 
    5.7825079336099945E+00 
    8.5800592182809989E+00 
    1.1743946013989797E+01 
    7.2369050482104509E+00 
    6.1225265749182292E+00 
    9.3920051194818583E+00 
    1.1957083757848096E+01 
    6.2055264244701469E+00 
    8.1073925138489251E+00 
    8.3764804878711772E+00 
    1.1528236432029695E+01 
    8.1909016032866973E+00 
    1.1923281700096998E+01 
    1.2476292405853599E+01 
    7.3306389954270230E+00 
    7.1898215739133837E+00 
    6.7420596751328965E+00 
    1.1649521767361479E+01 
    8.7947245603155242E+00 
    1.4085982343555177E+01 
    1.0997156398913281E+01 
    1.1708326758222906E+01 
    1.3792578516679102E+01 
    1.3241891018731851E+01 
    8.6252453517429988E+00 
    8.5530867093431286E+00 
    1.1350886328354139E+01 
    1.1580602696061790E+01 
    1.2016666289464403E+01 
    1.1791391874251923E+01 
    1.4377473607516809E+01 
    8.9288817192150098E+00 
    7.4160774372717473E+00 
    8.8995783460807871E+00 
    1.2400157016403925E+01 
    8.7057797451617596E+00 
    5.0284641820617555E+00 
    8.4455529376315432E+00 
    1.2765770034135944E+01 
    8.8232075017867242E+00 
    7.4182076758341688E+00 
    8.3180892850957537E+00 
    1.2864097622791883E+01 
    1.1575180545340933E+01 
    7.0574056017672238E+00 
    1.2989331059000749E+01 
    8.6497219120727387E+00 
    1.2014317595787739E+01 
    1.2877773961415846E+01 
    9.0268238687434490E+00 
    4.5644556630083777E+00 
    9.3694921890097920E+00 
    4.7189010861036014E+00 
    8.7471693911173372E+00 
    8.5724791372469191E+00 
    9.8522672923189685E+00 
    4.9858651323166363E+00 
    1.0459311822721768E+01 
    8.5925877772352326E+00 
    1.1782716081076806E+01 
    8.9840802455868420E+00 
    6.8590727440155570E+00 
    8.2026136193295880E+00 
    9.0884206122558009E+00 
    9.0202752497960379E+00 
    1.2512548005980543E+01 
    7.0936783036352358E+00 
    6.9738641238760213E+00 
    5.2371923416993909E+00 
    1.2041230415443101E+01 
    8.2399314223053501E+00 
    1.1400386998954815E+01 
    8.5432245610148865E+00 
    5.7167087025077565E+00 
    1.1600400170774185E+01 
    8.5181485395641925E+00 
    6.2225177178449442E+00 
    6.5840011679973358E+00 
    6.8108381952377792E+00 
    1.1809307749365468E+01 
    8.5692899160599509E+00 
    1.2372994782088146E+01 
    8.4760944168641821E+00 
    8.4139590363059842E+00 
    8.0300379121954943E+00 
    1.1670557143954770E+01 
    8.3297820824199995E+00 
    6.8444731656054616E+00 
    1.3228806826090372E+01 
    1.1739308291947127E+01 
    5.8910745554726107E+00 
    2.3356841856981552E+00 
    8.5586250979078144E+00 
    7.9705928093591130E+00 
    7.1861263947889551E+00 
    7.8554025858720706E+00 
    1.1720219306308822E+01 
    8.2886726752786313E+00 
    7.4734160245236989E+00 
    1.1599256455402562E+01 
    5.8371524025630297E+00 
    1.1317040893179584E+01 
    7.7009847029256200E+00 
    6.7882814700490961E+00 
    7.2519208949105476E+00 
    1.2088991734360240E+01 
    8.5609453265728277E+00 
    8.5684813148333294E+00 
    5.0615101334578068E+00 
    5.4606801774327556E+00 
    1.0742177370436135E+01 
    8.5776690977361483E+00 
    8.5987623786534364E+00 
    1.2973559948147681E+01 
    6.9732825554081153E+00 
    8.5886814658555171E+00 
    6.0407469092978090E+00 
    6.2356678959309439E+00 
    1.1663318590947176E+01 
    8.2221200597946211E+00 
    6.0058954310892529E+00 
    9.0082363792716507E+00 
    8.4540956598379733E+00 
    1.1666523976217150E+01 
    1.3058295295764966E+01 
    9.1228122651078847E-01 
    8.5633684147916451E+00 
    8.7854935733454571E+00 
    1.1722088465131160E+01 
    8.0531168221356531E+00 
    8.5358793904913490E+00 
    1.2559034040912882E+01 
    7.2784462519383784E+00 
    6.0572565902826350E+00 
    1.0373461004159850E+01 
    1.1560906117845979E+01 
    1.2451595441131889E+01 
    1.2682410660822731E+01 
    8.4128477407290880E+00 
    8.5557811332663594E+00 
    9.6028375281281999E+00 
    5.5980519177253818E+00 
    1.1667844073395065E+01 
    6.5165017546259429E+00 
    5.8291891216658209E+00 
    1.0721897066559384E+01 
    1.0068139027172402E+01 
    5.7164079130245682E+00 
    1.1592036879750831E+01 
    1.2438153820567365E+01 
    8.9427142569696176E+00 
    1.3150315892371584E+01 
    1.1618952260161063E+01 
    8.1424033573456054E+00 
    1.2204552780524239E+01 
    6.2387640612920583E+00 
    1.1575920659676147E+01 
    8.5626044241836450E+00 
    8.5221526899802402E+00 
    1.3125819997604051E+01 
    8.2697533064298767E+00 
    1.0462746068769370E+01 
    7.2365247896607716E+00 
    1.2541249575835375E+01 
    1.1497218622648155E+01 
    7.5420207802464487E+00 
    1.1541409331645175E+01 
    7.6975924437494330E+00 
    8.5457713355315210E+00 
    1.2402524759109671E+01 
    1.1784761483589318E+01 
    1.2441286973880844E+01 
    1.1724953585659298E+01 
    7.7218748361183254E+00 
    7.9295800716261615E+00 
    1.2446629223760381E+01 
    8.0380920841720087E+00 
    1.1440057415706663E+01 
    8.2618829359755921E+00 
    3.4258797323445078E+00 
    5.8866020115018696E+00 
    5.4565662628246079E+00 
    1.2405205835126031E+01 
    1.3063026129576143E+01 
    1.1557267190422493E+01 
    9.9298279579473068E+00 
    1.1799281780917868E+01 
    1.1596783470913543E+01 
    1.2100122409917740E+01 
    4.8901680993718584E+00 
    3.1986959477736949E+00 
    9.7439460698297058E+00 
    8.2043302439400421E+00 
    1.1721661199969837E+01 
    1.1719488951651993E+01 
    8.8005149216155925E+00 
    1.1751163970085663E+01 
    8.5504491134951071E+00 
    8.4322982481311701E+00 
    4.4276105081884811E+00 
    3.1888071965997318E+00 
    1.2860903605768483E+01 
    6.6272629917940415E+00 
    7.4891246874940496E+00 
    8.7134466231813263E+00 
    1.4360230169389233E+01 
    8.7939976101983710E+00 
    8.7959093995728868E+00 
    3.6013202946570804E+00 
    8.7945147903158922E+00 
    8.8062785072169962E+00 
    1.1991866513070120E+01 
    7.2604032471899140E+00 
    8.1437802507561585E+00 
    1.3013521987602232E+01 
    8.5714516828914551E+00 
    1.1571102765044161E+01 
    1.1791008656450629E+01 
    1.0599134878279655E+01 
    7.2022490981548870E+00 
    1.1724490944919536E+01 
    8.3594837097127677E+00 
    1.1747343915529612E+01 
    1.1516617864292501E+01 
    1.2422249022563037E+01 
    1.1722886060272232E+01 
    1.1022174862210747E+01 
    8.5608577234177474E+00 
    5.6707089462081797E+00 
    1.4239984722258441E+01 
    6.6485734545461606E+00 
    1.2351590445956603E+01 
    8.5582666212346901E+00 
    7.0236185141555261E+00 
    4.2082779368745253E+00 
    8.8357850751409863E+00 
    1.1713181207984105E+01 
    1.1709555328031161E+01 
    8.5268960183109090E+00 
    8.5524044099027332E+00 
    1.3205190426573054E+01 
    1.2631656618950361E+01 
    8.8104446359266326E+00 
    2.9780442959964111E+00 
    1.1005250576488450E+01 
    1.4483170063573041E+01 
    8.5641773788282336E+00 
    1.0258076888396557E+01 
    8.0480085998944375E+00 
    1.4106829602729167E+01 
    1.2703569300369848E+01 
    1.2467764900290632E+01 
    8.8291580287841533E+00 
    3.9407338870071924E+00 
    8.0104649784442010E+00 
    8.0733085115773253E+00 
    8.1236346141521469E+00 
    3.2352621890325519E+00 