# vtk DataFile Version 2.0
Pressure Field Data 
ASCII 
DATASET UNSTRUCTURED_GRID 

POINTS 2860 double 

    0.0000000000000000E+00     0.0000000000000000E+00     0.0000000000000000E+00 
    1.0000000000000000E+00     0.0000000000000000E+00     0.0000000000000000E+00 
    1.0000000000000000E+00     1.0000000000000000E+00     0.0000000000000000E+00 
    0.0000000000000000E+00     1.0000000000000000E+00     0.0000000000000000E+00 
    2.5000000000000000E-01     2.5000000000000000E-01     0.0000000000000000E+00 
    7.5000000000000000E-01     2.5000000000000000E-01     0.0000000000000000E+00 
    7.5000000000000000E-01     7.5000000000000000E-01     0.0000000000000000E+00 
    2.5000000000000000E-01     7.5000000000000000E-01     0.0000000000000000E+00 
    3.1249999999942091E-02     0.0000000000000000E+00     0.0000000000000000E+00 
    6.2499999999873469E-02     0.0000000000000000E+00     0.0000000000000000E+00 
    9.3749999999826514E-02     0.0000000000000000E+00     0.0000000000000000E+00 
    1.2499999999977961E-01     0.0000000000000000E+00     0.0000000000000000E+00 
    1.5624999999968961E-01     0.0000000000000000E+00     0.0000000000000000E+00 
    1.8749999999959971E-01     0.0000000000000000E+00     0.0000000000000000E+00 
    2.1874999999950970E-01     0.0000000000000000E+00     0.0000000000000000E+00 
    2.4999999999941969E-01     0.0000000000000000E+00     0.0000000000000000E+00 
    2.8124999999932920E-01     0.0000000000000000E+00     0.0000000000000000E+00 
    3.1249999999923850E-01     0.0000000000000000E+00     0.0000000000000000E+00 
    3.4374999999914790E-01     0.0000000000000000E+00     0.0000000000000000E+00 
    3.7499999999905720E-01     0.0000000000000000E+00     0.0000000000000000E+00 
    4.0624999999896660E-01     0.0000000000000000E+00     0.0000000000000000E+00 
    4.3749999999887590E-01     0.0000000000000000E+00     0.0000000000000000E+00 
    4.6874999999878530E-01     0.0000000000000000E+00     0.0000000000000000E+00 
    4.9999999999869471E-01     0.0000000000000000E+00     0.0000000000000000E+00 
    5.3124999999877620E-01     0.0000000000000000E+00     0.0000000000000000E+00 
    5.6249999999885780E-01     0.0000000000000000E+00     0.0000000000000000E+00 
    5.9374999999893940E-01     0.0000000000000000E+00     0.0000000000000000E+00 
    6.2499999999902101E-01     0.0000000000000000E+00     0.0000000000000000E+00 
    6.5624999999910261E-01     0.0000000000000000E+00     0.0000000000000000E+00 
    6.8749999999918421E-01     0.0000000000000000E+00     0.0000000000000000E+00 
    7.1874999999926570E-01     0.0000000000000000E+00     0.0000000000000000E+00 
    7.4999999999934730E-01     0.0000000000000000E+00     0.0000000000000000E+00 
    7.8124999999942890E-01     0.0000000000000000E+00     0.0000000000000000E+00 
    8.1249999999951039E-01     0.0000000000000000E+00     0.0000000000000000E+00 
    8.4374999999959199E-01     0.0000000000000000E+00     0.0000000000000000E+00 
    8.7499999999967359E-01     0.0000000000000000E+00     0.0000000000000000E+00 
    9.0624999999975520E-01     0.0000000000000000E+00     0.0000000000000000E+00 
    9.3749999999983680E-01     0.0000000000000000E+00     0.0000000000000000E+00 
    9.6874999999991840E-01     0.0000000000000000E+00     0.0000000000000000E+00 
    1.0000000000000000E+00     3.1249999999942091E-02     0.0000000000000000E+00 
    1.0000000000000000E+00     6.2499999999873469E-02     0.0000000000000000E+00 
    1.0000000000000000E+00     9.3749999999826514E-02     0.0000000000000000E+00 
    1.0000000000000000E+00     1.2499999999977961E-01     0.0000000000000000E+00 
    1.0000000000000000E+00     1.5624999999968961E-01     0.0000000000000000E+00 
    1.0000000000000000E+00     1.8749999999959971E-01     0.0000000000000000E+00 
    1.0000000000000000E+00     2.1874999999950970E-01     0.0000000000000000E+00 
    1.0000000000000000E+00     2.4999999999941969E-01     0.0000000000000000E+00 
    1.0000000000000000E+00     2.8124999999932920E-01     0.0000000000000000E+00 
    1.0000000000000000E+00     3.1249999999923850E-01     0.0000000000000000E+00 
    1.0000000000000000E+00     3.4374999999914790E-01     0.0000000000000000E+00 
    1.0000000000000000E+00     3.7499999999905720E-01     0.0000000000000000E+00 
    1.0000000000000000E+00     4.0624999999896660E-01     0.0000000000000000E+00 
    1.0000000000000000E+00     4.3749999999887590E-01     0.0000000000000000E+00 
    1.0000000000000000E+00     4.6874999999878530E-01     0.0000000000000000E+00 
    1.0000000000000000E+00     4.9999999999869471E-01     0.0000000000000000E+00 
    1.0000000000000000E+00     5.3124999999877620E-01     0.0000000000000000E+00 
    1.0000000000000000E+00     5.6249999999885780E-01     0.0000000000000000E+00 
    1.0000000000000000E+00     5.9374999999893940E-01     0.0000000000000000E+00 
    1.0000000000000000E+00     6.2499999999902101E-01     0.0000000000000000E+00 
    1.0000000000000000E+00     6.5624999999910261E-01     0.0000000000000000E+00 
    1.0000000000000000E+00     6.8749999999918421E-01     0.0000000000000000E+00 
    1.0000000000000000E+00     7.1874999999926570E-01     0.0000000000000000E+00 
    1.0000000000000000E+00     7.4999999999934730E-01     0.0000000000000000E+00 
    1.0000000000000000E+00     7.8124999999942890E-01     0.0000000000000000E+00 
    1.0000000000000000E+00     8.1249999999951039E-01     0.0000000000000000E+00 
    1.0000000000000000E+00     8.4374999999959199E-01     0.0000000000000000E+00 
    1.0000000000000000E+00     8.7499999999967359E-01     0.0000000000000000E+00 
    1.0000000000000000E+00     9.0624999999975520E-01     0.0000000000000000E+00 
    1.0000000000000000E+00     9.3749999999983680E-01     0.0000000000000000E+00 
    1.0000000000000000E+00     9.6874999999991840E-01     0.0000000000000000E+00 
    9.6875000000003686E-01     1.0000000000000000E+00     0.0000000000000000E+00 
    9.3750000000011691E-01     1.0000000000000000E+00     0.0000000000000000E+00 
    9.0625000000015765E-01     1.0000000000000000E+00     0.0000000000000000E+00 
    8.7500000000017863E-01     1.0000000000000000E+00     0.0000000000000000E+00 
    8.4375000000028044E-01     1.0000000000000000E+00     0.0000000000000000E+00 
    8.1250000000040856E-01     1.0000000000000000E+00     0.0000000000000000E+00 
    7.8125000000054956E-01     1.0000000000000000E+00     0.0000000000000000E+00 
    7.5000000000066480E-01     1.0000000000000000E+00     0.0000000000000000E+00 
    7.1875000000086831E-01     1.0000000000000000E+00     0.0000000000000000E+00 
    6.8750000000102829E-01     1.0000000000000000E+00     0.0000000000000000E+00 
    6.5625000000114431E-01     1.0000000000000000E+00     0.0000000000000000E+00 
    6.2500000000129829E-01     1.0000000000000000E+00     0.0000000000000000E+00 
    5.9375000000147926E-01     1.0000000000000000E+00     0.0000000000000000E+00 
    5.6250000000168354E-01     1.0000000000000000E+00     0.0000000000000000E+00 
    5.3125000000188671E-01     1.0000000000000000E+00     0.0000000000000000E+00 
    5.0000000000205835E-01     1.0000000000000000E+00     0.0000000000000000E+00 
    4.6875000000192979E-01     1.0000000000000000E+00     0.0000000000000000E+00 
    4.3750000000180111E-01     1.0000000000000000E+00     0.0000000000000000E+00 
    4.0625000000167238E-01     1.0000000000000000E+00     0.0000000000000000E+00 
    3.7500000000154382E-01     1.0000000000000000E+00     0.0000000000000000E+00 
    3.4375000000141509E-01     1.0000000000000000E+00     0.0000000000000000E+00 
    3.1250000000128642E-01     1.0000000000000000E+00     0.0000000000000000E+00 
    2.8125000000115769E-01     1.0000000000000000E+00     0.0000000000000000E+00 
    2.5000000000102918E-01     1.0000000000000000E+00     0.0000000000000000E+00 
    2.1875000000090050E-01     1.0000000000000000E+00     0.0000000000000000E+00 
    1.8750000000077180E-01     1.0000000000000000E+00     0.0000000000000000E+00 
    1.5625000000064329E-01     1.0000000000000000E+00     0.0000000000000000E+00 
    1.2500000000051459E-01     1.0000000000000000E+00     0.0000000000000000E+00 
    9.3750000000385914E-02     1.0000000000000000E+00     0.0000000000000000E+00 
    6.2500000000257239E-02     1.0000000000000000E+00     0.0000000000000000E+00 
    3.1250000000128557E-02     1.0000000000000000E+00     0.0000000000000000E+00 
    0.0000000000000000E+00     9.6875000000003686E-01     0.0000000000000000E+00 
    0.0000000000000000E+00     9.3750000000011691E-01     0.0000000000000000E+00 
    0.0000000000000000E+00     9.0625000000015765E-01     0.0000000000000000E+00 
    0.0000000000000000E+00     8.7500000000017863E-01     0.0000000000000000E+00 
    0.0000000000000000E+00     8.4375000000028044E-01     0.0000000000000000E+00 
    0.0000000000000000E+00     8.1250000000040856E-01     0.0000000000000000E+00 
    0.0000000000000000E+00     7.8125000000054956E-01     0.0000000000000000E+00 
    0.0000000000000000E+00     7.5000000000066480E-01     0.0000000000000000E+00 
    0.0000000000000000E+00     7.1875000000086831E-01     0.0000000000000000E+00 
    0.0000000000000000E+00     6.8750000000102829E-01     0.0000000000000000E+00 
    0.0000000000000000E+00     6.5625000000114431E-01     0.0000000000000000E+00 
    0.0000000000000000E+00     6.2500000000129829E-01     0.0000000000000000E+00 
    0.0000000000000000E+00     5.9375000000147926E-01     0.0000000000000000E+00 
    0.0000000000000000E+00     5.6250000000168354E-01     0.0000000000000000E+00 
    0.0000000000000000E+00     5.3125000000188671E-01     0.0000000000000000E+00 
    0.0000000000000000E+00     5.0000000000205835E-01     0.0000000000000000E+00 
    0.0000000000000000E+00     4.6875000000192979E-01     0.0000000000000000E+00 
    0.0000000000000000E+00     4.3750000000180111E-01     0.0000000000000000E+00 
    0.0000000000000000E+00     4.0625000000167238E-01     0.0000000000000000E+00 
[...]
CELL_DATA 2795 
SCALARS Pressure double 1 
LOOKUP_TABLE default 

    7.7728040098875093E+00 
    1.9486059723531529E+01 
    1.3049283780943808E+01 
    1.2658858940890141E+01 
    9.6770555201859718E+00 
    1.9090897942711752E+01 
    2.0389090968749361E+01 
    6.8858349823723586E+00 
    1.3671447780832814E+01 
    1.0331626764319186E+01 
    8.7081031456373683E+00 
    1.8651649860923644E+01 
    1.9284101894137532E+01 
    1.9027378882494222E+01 
    1.1951076851701186E+01 
    6.7632743114450680E+00 
    1.1510274324049604E+01 
    9.3110568137769842E+00 
    1.8032445804643462E+01 
    1.3026800613732838E+01 
    1.2906492827383905E+01 
    1.8898537124773821E+01 
    1.2272742637604864E+01 
    4.4728657520119858E-01 
    1.8711216368485420E+01 
    1.9292281119706356E+01 
    2.0450585714648408E+01 
    8.3494690840564161E+00 
    1.8513027594277599E+01 
    2.0432829334926186E+01 
    1.3237713615085442E+01 
    1.3261232872133808E+01 
    9.0480005078894425E+00 
    1.3006940315019268E+01 
    4.0267485436019692E+00 
    1.1523860173237194E+01 
    1.2989599552845675E+01 
    2.0490725015874304E+01 
    2.0365951090529375E+01 
    1.8671977078917582E+01 
    9.6345798203850883E+00 
    1.8789362489155376E+01 
    9.2840847613778466E-01 
    1.2973814015234371E+01 
    2.0104241845428241E+01 
    1.9664061986586869E+01 
    1.8635110444925616E+01 
    1.4140954995963767E+01 
    1.8671286508596882E+01 
    1.1794870056679478E+01 
    1.1175011497679195E+01 
    1.3220232446594492E+01 
    1.2847908196387483E+01 
    1.1573050503952283E+01 
    1.3329443944428892E+01 
    1.7689442049782212E+01 
    1.5477461714774410E+01 
    9.7303233869893830E+00 
    1.8915884663603443E+01 
    1.8770802166515136E+01 
    1.2599885342093165E+01 
    1.2523592268347098E+01 
    1.2523247178459908E+01 
    2.0282828034506668E+01 
    2.0742083638880754E+01 
    1.1519001540720353E+01 
    1.3218435328401847E+01 
    1.8314182928255264E+01 
    1.5277626454660391E+01 
    1.2582941282816051E+01 
    2.0678928380474847E+01 
    1.8977387425791289E+01 
    1.1347508841036278E+01 
    1.9822259808787514E+01 
    1.3646481122538084E+01 
    1.8524945658682757E+01 
    2.0529260970433487E+01 
    1.3691553453194956E+01 
    7.9321939207172729E+00 
    1.3239753194123818E+01 
    2.0365104541860884E+01 
    2.0724051440749417E+01 
    1.1543940805202739E+01 
    1.3154226812617253E+01 
    2.0800422676446399E+01 
    1.2987481523850743E+01 
    1.2400312127226536E+01 
    1.5886927407552996E+01 
    7.5479314242385271E+00 
    1.1214095803946748E+01 
    1.3151022483574607E+01 
    1.3848295335763618E+01 
    2.2739510870478920E+01 
    9.3877481969380607E+00 
    1.3227646081144609E+01 
    1.8604981413812968E+01 
    1.9183775648654990E+01 
    8.1929570672442900E+00 
    1.2822460855778862E+01 
    1.3189353073261866E+01 
    1.9229377011463367E+01 
    1.3178975938436828E+01 
    1.9095714624846966E+01 
    4.8597191632146375E+00 
    8.4559617485233467E+00 
    1.3483489964421493E+01 
    1.9504262751778530E+01 
    1.1474181975285404E+01 
    1.2270933011893963E+01 
    1.3153226233679529E+01 
    1.2355546291742074E+01 
    1.5000199669200526E+01 
    1.1893163157336959E+01 
    1.1360288448237071E+01 
    8.6711631201105472E+00 
    1.5883248805673022E+01 
    1.3266361445775491E+01 
    2.0158557234417348E+01 
    1.1286057778392129E+01 
    1.2629434679033464E+01 
    1.8986168877720186E+01 
    1.0241998737853667E+01 
    1.9732076398758551E+01 
    1.3071931331945759E+01 
    1.2535515536986326E+01 
    1.9194880002408819E+01 
    1.3254229548965416E+01 
    2.0536425623230190E+01 
    1.5920178017495596E+01 
    1.7421327962459969E+01 
    2.0476182039994566E+01 
    9.4045671546821623E+00 
    1.3506782468428021E+01 
    1.9240020873203520E+01 
    3.6122917302601270E+00 
    1.3300649997152030E+01 
    2.0425746455421976E+01 
    1.2570809090096077E+01 
    1.4618994387609582E+01 
    8.1364156457769869E+00 
    1.8630539269564462E+01 
    2.3336279272463671E+01 
    1.6619795897596060E+01 
    1.2574723462419987E+01 
    1.1056550289319917E+01 
    1.4195975785762380E+01 
    1.3091571545356015E+01 
    8.8001273923640788E+00 
    2.0470311754345211E+01 
    1.9186044512367843E+01 
    1.8609533930893608E+01 
    1.3850915800791231E+01 
    1.1293691918588005E+01 
    1.2900995672412311E+01 
    1.9859854335038211E+01 
    1.1683321192692725E+01 
    1.3188155051682045E+01 
    1.1922172798534953E+01 
    1.5710630651291558E+01 
    2.3322376795958583E+01 
    1.8587387441139597E+01 
    1.1185920430536669E+01 
    1.9548135148637321E+01 
    1.9435914801076450E+01 
    1.9566098790146665E+01 
    2.1091512193378222E+01 
    2.1839294585507478E+01 
    1.9622466414097751E+01 
    1.3208729503545435E+01 
    1.4381888544916389E+01 
    1.9314145427772338E+01 
    2.0142648421433929E+01 
    9.2032014344025725E+00 
    1.8628604277644577E+01 
    1.9782209420295835E+01 
    8.9523818725560069E+00 
    2.0996077043556998E+01 
    2.0939928694398557E+01 
    1.8137684243133279E+01 
    1.3591419587816359E+01 
    3.3255056319774603E+00 
    2.0418967756090215E+01 
    1.3410471205534741E+01 
    2.0636675776451728E+01 
    1.2470648754431314E+01 
    2.0070760107922748E+01 
    1.1626856289086942E+00 
    1.7413993378953112E+01 
    1.2580187616351651E+01 
    1.1241966202979720E+01 
    1.0893226370215141E+01 
    1.3034455116342048E+01 
    1.4488698119019290E+01 
    1.3759596670662546E+01 
    8.8067319870259517E+00 
    2.0150537141212144E+01 
    1.9294259169093465E+01 
    1.5438520771507406E+01 
    1.3472585997362708E+01 
    1.8147463783428401E+00 
    9.8773382913320464E+00 
    6.7013647154694329E+00 
    2.0452102267999329E+01 
    1.4835624373079723E+01 
    1.9160199970375764E+01 
    1.9395565520514459E+01 
    1.1779911300760913E+01 
    1.5568721376578907E+01 
    1.8582468392511331E+01 
    2.0923970680948592E+01 
    8.1041705538816995E+00 
    1.6667799665291998E+01 
    1.3732571607878782E+01 
    7.1561794493928259E+00 
    1.1786433939684937E+01 
    1.6362463983159241E+01 
    1.9337234420526265E+01 
    1.3094012725331472E+01 
    1.9526435941727911E+01 
    1.9124011567086384E+01 
    1.9047673221047486E+01 
    1.2905540614291175E+01 
    1.1093164983458200E+01 
    1.8625783905083008E+01 
    1.1334273719007763E+01 
    1.3188607848110403E+01 
    1.1071546865435504E+01 
    1.3129714632830842E+01 
    1.9401954980911068E+01 
    7.9596327300178142E+00 
    1.1653120784164248E+01 
    2.0315115879846459E+01 
    1.2915337155013423E+01 
    1.4693915259689403E+01 
    8.1654812378502246E+00 
    1.1438448234858521E+01 
    1.9085015135721640E+01 
    1.9617113556256658E+01 
    6.6616153901717068E+00 
    1.2930710004053488E+01 
    1.1122866574411001E+01 
    2.1528242382548740E+01 
    2.0744428865299799E+01 
    2.1882798401716222E+01 
    1.2954384071314381E+01 
    1.9369034204873756E+01 
    1.8492368472770497E+01 
    1.2783611407076512E+01 
    1.8605252606842878E+01 
    1.3472922673976953E+01 
    7.2573757200466789E+00 
    1.3366381098239778E+01 
    2.0308153109288732E+01 
    1.8598487406827871E+01 
    8.6553720232494591E+00 
    1.8643122828971549E+01 
    1.4525367167148499E+01 
    1.3271955700657504E+01 
    1.2668260762787604E+01 
    1.8363685927189270E+01 
    1.3976051536638584E+01 
    1.8629841569837783E+01 
    1.2891332805149279E+01 
    7.5297619387419088E+00 
    1.3276627934321303E+01 
    1.0911563711951850E+01 
    1.6652529291758555E+01 
    2.0609873687345818E+01 
    1.8631186598475004E+01 
    2.0411011365067790E+01 
    1.2845352284174883E+01 
    8.4310427170183875E+00 
    8.5555889067258892E+00 
    1.3525600632205091E+01 
    1.3155991492672788E+01 
    1.8263977188806357E+00 
    1.7735895257881936E+01 
    2.1159682082941583E+01 
    1.2495472256569737E+01 
    7.5824363270010808E+00 
    1.5358443815721563E+01 
    1.8633676120417793E+01 
    9.0797507191315336E+00 
    6.0350320676347176E+00 
    1.3137670179951197E+01 
    1.8804256619286370E+01 
    2.0026400152576734E+01 
    1.9653984516084613E+01 
    1.9626605228193771E+01 
    8.8738469757752245E+00 
    1.3266422350176777E+01 
    1.8063886800278567E+01 
    1.0129910855430156E+01 
    1.9257901828817054E+01 
    1.5890207656297759E+01 
    8.6826896892880558E+00 
    1.8749420681025040E+01 
    2.0462202565159586E+01 
    1.8923655119652501E+01 
    8.7253156722399012E+00 
    1.3213851083352607E+01 
    9.6472276566310864E+00 
    1.2431445754480125E+01 
    1.8626953617010319E+01 
    1.8610244203947477E+01 
    8.7765938158219363E+00 
    2.0139009439893766E+01 
    1.3912216977802679E+01 
    1.8709085268036457E+01 
    2.0226727292295614E+01 
    1.8666289781407801E+01 
    1.6976673239291863E+01 
    2.1614859227860975E+01 
    1.2414573065708375E+01 
    2.0365841826974290E+01 
    1.8725973818914088E+01 
    2.0480614997050083E+01 
    2.0124040530655265E+01 
    1.2560469263559247E+01 
    1.3036370635407753E+01 
    1.2483833265247709E+01 
    1.6206387244433039E+01 
    4.8829104515736885E+00 
    1.3438423793005457E+01 
    2.1780137229182930E+01 
    1.3479576731878796E+01 
    1.3738508631410726E+01 
    2.0432769499610938E+01 
    2.0772805611368558E+01 
    1.2267569617455194E+01 
    1.8647485428124721E+01 
    1.8613511640840819E+01 
    1.3721021141426423E+01 
    2.0039163941687015E+01 
    9.1482828391701059E+00 
    5.7961546400474608E+00 
    1.4115031119307003E+01 
    1.3495428710837786E+01 
    1.8597454633416159E+01 
    8.1701619957581268E+00 
    1.9520099618106084E+01 
    5.9105011820308615E+00 
    1.3418430596437840E+01 
    1.2563079755965116E+01 
    1.3186849671425829E+01 
    2.3377277123556585E+01 
    4.7359741932276345E+00 
    1.3324250349170695E+01 
    1.6310414258331402E+01 
    1.2715547890545031E+01 
    9.7821080762268338E+00 
    1.9823525600324910E+01 
    2.2851043548202732E+01 
    2.0040956714677630E+01 
    1.3239118300669787E+01 
    7.1127489315039805E+00 
    2.2683070870236843E+01 
    1.9258784617113665E+01 
    9.3046096016579494E+00 
    1.2777948515759197E+01 
    2.1063768314905776E+01 
    4.0143510088970027E+00 
    1.3567414523835755E+01 
    2.0118390161387630E+01 
    1.3204641285882488E+01 
    1.1401682326307034E+01 
    1.3379273725431442E+01 
    1.8205573591164491E+01 
    1.3184018180399875E+01 
    6.2928794614296315E+00 
    1.1481236927883338E+00 
    9.6379001465265830E+00 
    2.1394410956179875E+01 
    1.2483512354262704E+01 
    1.5094150847816058E+01 
    1.4399802570700732E+01 
    1.6754572282021936E+01 
    1.3220275266094198E+01 
    1.9101200079138398E+01 
    2.3393088462022490E+01 
    1.5770351845478659E+01 
    2.0318882189313150E+01 
    6.6958938069389184E-01 
    1.8610449808818377E+01 
    7.0180567191633898E+00 
    2.1998209318944483E+01 
    1.3343103736946366E+01 
    1.1643664034045839E+01 
    9.8600684967786396E+00 
    6.6291021038548035E+00 
    1.4762650376478478E+01 
    1.0255611868309039E+01 
    1.6493779614911407E+01 
    2.7899164905177050E+00 
    1.4577613757117334E+01 
    1.8478155079079123E+01 
    7.7519537494004380E+00 
    1.9392440937333319E+01 
    2.1680912718549067E+01 
    1.9191759705339933E+01 
    1.3151226186539841E+01 
    1.3179718732105311E+01 
    1.3333066091742788E+01 
    7.2095129393624600E+00 
    1.2082804437520783E+01 
    1.1854376367818361E+01 
    1.3317819196277316E+01 
    1.2382177902524083E+01 
    8.5865499092529807E-01 
    8.0998989489224602E+00 
    1.2925194823791577E+01 
    1.3282183702357697E+01 
    1.7023007242342526E+01 
    2.6221984579479205E+00 
    1.3664915119688288E+01 
    1.3505181269687005E+01 
    4.5514667432904341E+00 
    1.8950064203846594E+01 
    1.1347101203857877E+01 
    1.3336616752996791E+01 
    1.9235052524153677E+01 
    6.6492146565465582E+00 
    1.9115714287897561E+01 
    1.1543959180504578E+01 
    1.1802584095045485E+00 
    1.2569948945292698E+01 
    2.0206337309246361E+01 
    1.8619442034984409E+01 
    1.8656537192643235E+01 
    1.3808223485922579E+01 
    1.3421789733063589E+01 
    1.1343383090422524E+01 
    8.8507006111868058E+00 
    1.9399301641711141E+01 
    1.2769847967801571E+01 
    8.6024589828408260E+00 
    1.8642719796641728E+01 
    1.9848212649977075E+01 
    1.3557719034388706E+01 
    1.2973011450982417E+01 
    2.3253550310912299E+01 
    1.3722368882814539E+01 
    1.9458930959919059E+01 
    1.0663668906720201E+01 
    2.3421743272271023E+01 
    8.5053710283468256E+00 
    1.1894025427926648E+01 
    9.5783374486881065E+00 
    1.4046337889093827E+01 
    1.1112275857273584E+01 
    2.3404009574036298E+01 
    1.3789587485891669E+01 
    1.8185329174712038E+01 
    8.7503771865818969E+00 
    1.3214195443020394E+01 
    1.9210292327891281E+01 
    1.1152448036586170E+01 
    9.2418509329596592E+00 
    1.4989282478681755E+01 
    1.9445796641697385E+01 
    9.4341955410920306E+00 
    1.2595227661234919E+01 
    1.3017421989542195E+01 
    1.8573736096199976E+01 
    1.2746768384240752E+01 
    1.9565653371295927E+01 
    2.0525001415344565E+01 
    1.1377342230250418E+01 
    1.1103112168410577E+01 
    1.0294163345443836E+01 
    1.8799227038548302E+01 
    1.3524855130968643E+01 
    2.2897393803707264E+01 
    1.7210310258851514E+01 
    1.9130377809056132E+01 
    2.2520010110579101E+01 
    2.1686429551513456E+01 
    1.3268567643823385E+01 
    1.3296401955433131E+01 
    1.8156019640636877E+01 
    1.8668907969115985E+01 
    1.9694706045487489E+01 
    1.9285182470347323E+01 
    2.3282789663559296E+01 
    1.3721691798555995E+01 
    1.1535864445885304E+01 
    1.3682890572281016E+01 
    2.0385282376681491E+01 
    1.3379889101128105E+01 
    7.5601661692461155E+00 
    1.3128296116905393E+01 
    2.1032151178096846E+01 
    1.3553778418327630E+01 
    1.1547744002031642E+01 
    1.2947728382164758E+01 
    2.1185294802186991E+01 
    1.8902527036667472E+01 
    1.0840005521101505E+01 
    2.1378736167954855E+01 
    1.3301895565622894E+01 
    1.9732834434807923E+01 
    2.1202852425832557E+01 
    1.4131828429243226E+01 
    6.6636511247999808E+00 
    1.4749050064711405E+01 
    6.9017532982724701E+00 
    1.3438467616694624E+01 
    1.3209397350495905E+01 
    1.5619074531772197E+01 
    7.3195065117194771E+00 
    1.6729647138292815E+01 
    1.3228970313980536E+01 
    1.9273370646546617E+01 
    1.4417036096726896E+01 
    1.0522818846282766E+01 
    1.2775730718271776E+01 
    1.4021207492767626E+01 
    1.3866628472333588E+01 
    2.0642167887353160E+01 
    1.0918718757727168E+01 
    1.0686818371007410E+01 
    7.7244889097097449E+00 
    1.9765501776728620E+01 
    1.2833413315987681E+01 
    1.8522834204131907E+01 
    1.3173590929766103E+01 
    8.5093943526900322E+00 
    1.8915002126822824E+01 
    1.3146572655058790E+01 
    9.3555601255955132E+00 
    9.9753692539725183E+00 
    1.0386001094357441E+01 
    1.9311730528054827E+01 
    1.3320603810543286E+01 
    2.0321773558768019E+01 
    1.3100769358172025E+01 
    1.3029940607749927E+01 
    1.2481239084572332E+01 
    1.9052963247280619E+01 
    1.2928768432286468E+01 
    1.0438588411209606E+01 
    2.1676373808857708E+01 
    1.9177709601362793E+01 
    8.9222105131557736E+00 
    3.3111727867152339E+00 
    1.3306215632920845E+01 
    1.2378709683454817E+01 
    1.1096561593108520E+01 
    1.2194785260685778E+01 
    1.8935228576207784E+01 
    1.2891023974207716E+01 
    1.1582804567034033E+01 
    1.8706580279058599E+01 
    8.8413309528598933E+00 
    1.8103231149044365E+01 
    1.1910369023054962E+01 
    1.0360323909878694E+01 
    1.1230381215286009E+01 
    1.9869797603841718E+01 
    1.3189801247212282E+01 
    1.3199691125440093E+01 
    7.4343873839985282E+00 
    8.0816150972283349E+00 
    1.7116966225115828E+01 
    1.3211240664612802E+01 
    1.3361413549827930E+01 
    2.1362988799061878E+01 
    1.0691800922801221E+01 
    1.3225598893487604E+01 
    9.1694583638061964E+00 
    9.4840403517925669E+00 
    1.8996151514827474E+01 
    1.2778740732098711E+01 
    8.9695298418001368E+00 
    1.3853119051418576E+01 
    1.3098921859200983E+01 
    1.9019041984211629E+01 
    2.1491449047130125E+01 
    1.2473757836883119E+00 
    1.3313034351593741E+01 
    1.3493990753944983E+01 
    1.9151907906348942E+01 
    1.2668235824570857E+01 
    1.3157449435918538E+01 
    2.0737443313797847E+01 
    1.1281165713314319E+01 
    9.0547238294030166E+00 
    1.6053021488044244E+01 
    1.8638243040921790E+01 
    2.0478667175246901E+01 
    2.0874460368371071E+01 
    1.3092775445175256E+01 
    1.3300856570365266E+01 
    1.4831884185430150E+01 
    8.4557508800092940E+00 
    1.8837217530882942E+01 
    9.8173229938213495E+00 
    8.8246565478310295E+00 
    1.6743515058682334E+01 
    1.5632413557968036E+01 
    8.6451602120620095E+00 
    1.8693477631011554E+01 
    2.0455660925503871E+01 
    1.3743776197061674E+01 
    2.1632468597319313E+01 
    1.8743614417177316E+01 
    1.2738912187885207E+01 
    1.9924494134695355E+01 
    9.4848181106135900E+00 
    1.8658075089202303E+01 
    1.3311411742681756E+01 
    1.3259682845727967E+01 
    2.1605992342249543E+01 
    1.2884130485508438E+01 
    1.6342198464872215E+01 
    1.1198310548126271E+01 
    2.0636658857343427E+01 
    1.8496020197106837E+01 
    1.1744931983221207E+01 
    1.8621332323731391E+01 
    1.1927573258775530E+01 
    1.3165816835252413E+01 
    2.0393088896973598E+01 
    1.9253732413563419E+01 
    2.0460670339565660E+01 
    1.9154090199243598E+01 
    1.2103081704953651E+01 
    1.2388353895404094E+01 
    2.0471669066346614E+01 
    1.2570462462078671E+01 
    1.8336085188287068E+01 
    1.2862175151227904E+01 
    4.9328173407583513E+00 
    8.9235027517426495E+00 
    8.2496208142664162E+00 
    2.0397219636922340E+01 
    2.1502990052488791E+01 
    1.8637775624975799E+01 
    1.5300466019366414E+01 
    1.9101903270077983E+01 
    1.8699363952009033E+01 
    1.9775213473388703E+01 
    7.1592756929253252E+00 
    4.5817342560557952E+00 
    1.4989820611539123E+01 
    1.2878740476526156E+01 
    1.8948777322137033E+01 
    1.8945816105096828E+01 
    1.3517270993241002E+01 
    1.9010815807105910E+01 
    1.3292871322625659E+01 
    1.3183221537981222E+01 
    6.4307883963836145E+00 
    4.5550414484645412E+00 
    2.1175975261107222E+01 
    1.0129536626154225E+01 
    1.1679492672677485E+01 
    1.3394221213126960E+01 
    2.3257541450804457E+01 
    1.3506016191415654E+01 
    1.3714421221759167E+01 
    5.2502959583238971E+00 
    1.3505817448148672E+01 
    1.3523197603849903E+01 
    1.9442795962955103E+01 
    1.1230426519645501E+01 
    1.2624792232468591E+01 
    2.1420869244836418E+01 
    1.3324577763237848E+01 
    1.8658089915846936E+01 
    1.9043485363140732E+01 
    1.6434348503406511E+01 
    1.1103703754031587E+01 
    1.9149142861060938E+01 
    1.3051627907260581E+01 
    1.8952607765329294E+01 
    1.8548047056266252E+01 
    2.0428000337700198E+01 
    1.9161891205855934E+01 
    1.7449115176618495E+01 
    1.3308680799199347E+01 
    8.5810103689663109E+00 
    2.3108009217436848E+01 
    1.0057535840512871E+01 
    2.0306959986613563E+01 
    1.3305164496690352E+01 
    1.0757544955037844E+01 
    6.2284549319448415E+00 
    1.3568600984494084E+01 
    1.9132380514746881E+01 
    1.9111971501747774E+01 
    1.3142353180134528E+01 
    1.3297276419119070E+01 
    2.1694571527025658E+01 
    2.0789759395133022E+01 
    1.3530952250395272E+01 
    4.2638350072533049E+00 
    1.7316994427667961E+01 
    2.3398961508252469E+01 
    1.3313171439167004E+01 
    1.5843213844862598E+01 
    1.2667983296827554E+01 
    2.2935306411820886E+01 
    2.0913981769650466E+01 
    2.0569248253397834E+01 
    1.3558964564310658E+01 
    5.8385942558051944E+00 
    1.2611445878809738E+01 
    1.2698977037419159E+01 
    1.2750324743155293E+01 
    4.6773542025304522E+00 