# vtk DataFile Version 2.0
Pressure Field Data 
ASCII 
DATASET UNSTRUCTURED_GRID 

POINTS 2860 double 

    0.0000000000000000E+00     0.0000000000000000E+00     0.0000000000000000E+00 
    1.0000000000000000E+00     0.0000000000000000E+00     0.0000000000000000E+00 
    1.0000000000000000E+00     1.0000000000000000E+00     0.0000000000000000E+00 
    0.0000000000000000E+00     1.0000000000000000E+00     0.0000000000000000E+00 
    2.5000000000000000E-01     2.5000000000000000E-01     0.0000000000000000E+00 
    7.5000000000000000E-01     2.5000000000000000E-01     0.0000000000000000E+00 
    7.5000000000000000E-01     7.5000000000000000E-01     0.0000000000000000E+00 
    2.5000000000000000E-01     7.5000000000000000E-01     0.0000000000000000E+00 
    3.1249999999942091E-02     0.0000000000000000E+00     0.0000000000000000E+00 
    6.2499999999873469E-02     0.0000000000000000E+00     0.0000000000000000E+00 
    9.3749999999826514E-02     0.0000000000000000E+00     0.0000000000000000E+00 
    1.2499999999977961E-01     0.0000000000000000E+00     0.0000000000000000E+00 
    1.5624999999968961E-01     0.0000000000000000E+00     0.0000000000000000E+00 
    1.8749999999959971E-01     0.0000000000000000E+00     0.0000000000000000E+00 
    2.1874999999950970E-01     0.0000000000000000E+00     0.0000000000000000E+00 
    2.4999999999941969E-01     0.0000000000000000E+00     0.0000000000000000E+00 
    2.8124999999932920E-01     0.0000000000000000E+00     0.0000000000000000E+00 
    3.1249999999923850E-01     0.0000000000000000E+00     0.0000000000000000E+00 
    3.4374999999914790E-01     0.0000000000000000E+00     0.0000000000000000E+00 
    3.7499999999905720E-01     0.0000000000000000E+00     0.0000000000000000E+00 
    4.0624999999896660E-01     0.0000000000000000E+00     0.0000000000000000E+00 
    4.3749999999887590E-01     0.0000000000000000E+00     0.0000000000000000E+00 
    4.6874999999878530E-01     0.0000000000000000E+00     0.0000000000000000E+00 
    4.9999999999869471E-01     0.0000000000000000E+00     0.0000000000000000E+00 
    5.3124999999877620E-01     0.0000000000000000E+00     0.0000000000000000E+00 
    5.6249999999885780E-01     0.0000000000000000E+00     0.0000000000000000E+00 
    5.9374999999893940E-01     0.0000000000000000E+00     0.0000000000000000E+00 
    6.2499999999902101E-01     0.0000000000000000E+00     0.0000000000000000E+00 
    6.5624999999910261E-01     0.0000000000000000E+00     0.0000000000000000E+00 
    6.8749999999918421E-01     0.0000000000000000E+00     0.0000000000000000E+00 
    7.1874999999926570E-01     0.0000000000000000E+00     0.0000000000000000E+00 
    7.4999999999934730E-01     0.0000000000000000E+00     0.0000000000000000E+00 
    7.8124999999942890E-01     0.0000000000000000E+00     0.0000000000000000E+00 
    8.1249999999951039E-01     0.0000000000000000E+00     0.0000000000000000E+00 
    8.4374999999959199E-01     0.0000000000000000E+00     0.0000000000000000E+00 
    8.7499999999967359E-01     0.0000000000000000E+00     0.0000000000000000E+00 
    9.0624999999975520E-01     0.0000000000000000E+00     0.0000000000000000E+00 
    9.3749999999983680E-01     0.0000000000000000E+00     0.0000000000000000E+00 
    9.6874999999991840E-01     0.0000000000000000E+00     0.0000000000000000E+00 
    1.0000000000000000E+00     3.1249999999942091E-02     0.0000000000000000E+00 
    1.0000000000000000E+00     6.2499999999873469E-02     0.0000000000000000E+00 
    1.0000000000000000E+00     9.3749999999826514E-02     0.0000000000000000E+00 
    1.0000000000000000E+00     1.2499999999977961E-01     0.0000000000000000E+00 
    1.0000000000000000E+00     1.5624999999968961E-01     0.0000000000000000E+00 
    1.0000000000000000E+00     1.8749999999959971E-01     0.0000000000000000E+00 
    1.0000000000000000E+00     2.1874999999950970E-01     0.0000000000000000E+00 
    1.0000000000000000E+00     2.4999999999941969E-01     0.0000000000000000E+00 
    1.0000000000000000E+00     2.8124999999932920E-01     0.0000000000000000E+00 
    1.0000000000000000E+00     3.1249999999923850E-01     0.0000000000000000E+00 
    1.0000000000000000E+00     3.4374999999914790E-01     0.0000000000000000E+00 
    1.0000000000000000E+00     3.7499999999905720E-01     0.0000000000000000E+00 
    1.0000000000000000E+00     4.0624999999896660E-01     0.0000000000000000E+00 
    1.0000000000000000E+00     4.3749999999887590E-01     0.0000000000000000E+00 
    1.0000000000000000E+00     4.6874999999878530E-01     0.0000000000000000E+00 
    1.0000000000000000E+00     4.9999999999869471E-01     0.0000000000000000E+00 
    1.0000000000000000E+00     5.3124999999877620E-01     0.0000000000000000E+00 
    1.0000000000000000E+00     5.6249999999885780E-01     0.0000000000000000E+00 
    1.0000000000000000E+00     5.9374999999893940E-01     0.0000000000000000E+00 
    1.0000000000000000E+00     6.2499999999902101E-01     0.0000000000000000E+00 
    1.0000000000000000E+00     6.5624999999910261E-01     0.0000000000000000E+00 
    1.0000000000000000E+00     6.8749999999918421E-01     0.0000000000000000E+00 
    1.0000000000000000E+00     7.1874999999926570E-01     0.0000000000000000E+00 
    1.0000000000000000E+00     7.4999999999934730E-01     0.0000000000000000E+00 
    1.0000000000000000E+00     7.8124999999942890E-01     0.0000000000000000E+00 
    1.0000000000000000E+00     8.1249999999951039E-01     0.0000000000000000E+00 
    1.0000000000000000E+00     8.4374999999959199E-01     0.0000000000000000E+00 
    1.0000000000000000E+00     8.7499999999967359E-01     0.0000000000000000E+00 
    1.0000000000000000E+00     9.0624999999975520E-01     0.0000000000000000E+00 
    1.0000000000000000E+00     9.3749999999983680E-01     0.0000000000000000E+00 
    1.0000000000000000E+00     9.6874999999991840E-01     0.0000000000000000E+00 
    9.6875000000003686E-01     1.0000000000000000E+00     0.0000000000000000E+00 
    9.3750000000011691E-01     1.0000000000000000E+00     0.0000000000000000E+00 
    9.0625000000015765E-01     1.0000000000000000E+00     0.0000000000000000E+00 
    8.7500000000017863E-01     1.0000000000000000E+00     0.0000000000000000E+00 
    8.4375000000028044E-01     1.0000000000000000E+00     0.0000000000000000E+00 
    8.1250000000040856E-01     1.0000000000000000E+00     0.0000000000000000E+00 
    7.8125000000054956E-01     1.0000000000000000E+00     0.0000000000000000E+00 
    7.5000000000066480E-01     1.0000000000000000E+00     0.0000000000000000E+00 
    7.1875000000086831E-01     1.0000000000000000E+00     0.0000000000000000E+00 
    6.8750000000102829E-01     1.0000000000000000E+00     0.0000000000000000E+00 
    6.5625000000114431E-01     1.0000000000000000E+00     0.0000000000000000E+00 
    6.2500000000129829E-01     1.0000000000000000E+00     0.0000000000000000E+00 
    5.9375000000147926E-01     1.0000000000000000E+00     0.0000000000000000E+00 
    5.6250000000168354E-01     1.0000000000000000E+00     0.0000000000000000E+00 
    5.3125000000188671E-01     1.0000000000000000E+00     0.0000000000000000E+00 
    5.0000000000205835E-01     1.0000000000000000E+00     0.0000000000000000E+00 
    4.6875000000192979E-01     1.0000000000000000E+00     0.0000000000000000E+00 
    4.3750000000180111E-01     1.0000000000000000E+00     0.0000000000000000E+00 
    4.0625000000167238E-01     1.0000000000000000E+00     0.0000000000000000E+00 
    3.7500000000154382E-01     1.0000000000000000E+00     0.0000000000000000E+00 
    3.4375000000141509E-01     1.0000000000000000E+00     0.0000000000000000E+00 
    3.1250000000128642E-01     1.0000000000000000E+00     0.0000000000000000E+00 
    2.8125000000115769E-01     1.0000000000000000E+00     0.0000000000000000E+00 
    2.5000000000102918E-01     1.0000000000000000E+00     0.0000000000000000E+00 
    2.1875000000090050E-01     1.0000000000000000E+00     0.0000000000000000E+00 
    1.8750000000077180E-01     1.0000000000000000E+00     0.0000000000000000E+00 
    1.5625000000064329E-01     1.0000000000000000E+00     0.0000000000000000E+00 
    1.2500000000051459E-01     1.0000000000000000E+00     0.0000000000000000E+00 
    9.3750000000385914E-02     1.0000000000000000E+00     0.0000000000000000E+00 
    6.2500000000257239E-02     1.0000000000000000E+00     0.0000000000000000E+00 
    3.1250000000128557E-02     1.0000000000000000E+00     0.0000000000000000E+00 
    0.0000000000000000E+00     9.6875000000003686E-01     0.0000000000000000E+00 
    0.0000000000000000E+00     9.3750000000011691E-01     0.0000000000000000E+00 
    0.0000000000000000E+00     9.0625000000015765E-01     0.0000000000000000E+00 
    0.0000000000000000E+00     8.7500000000017863E-01     0.0000000000000000E+00 
    0.0000000000000000E+00     8.4375000000028044E-01     0.0000000000000000E+00 
    0.0000000000000000E+00     8.1250000000040856E-01     0.0000000000000000E+00 
    0.0000000000000000E+00     7.8125000000054956E-01     0.0000000000000000E+00 
    0.0000000000000000E+00     7.5000000000066480E-01     0.0000000000000000E+00 
    0.0000000000000000E+00     7.1875000000086831E-01     0.0000000000000000E+00 
    0.0000000000000000E+00     6.8750000000102829E-01     0.0000000000000000E+00 
    0.0000000000000000E+00     6.5625000000114431E-01     0.0000000000000000E+00 
    0.0000000000000000E+00     6.2500000000129829E-01     0.0000000000000000E+00 
    0.0000000000000000E+00     5.9375000000147926E-01     0.0000000000000000E+00 
    0.0000000000000000E+00     5.6250000000168354E-01     0.0000000000000000E+00 
    0.0000000000000000E+00     5.3125000000188671E-01     0.0000000000000000E+00 
    0.0000000000000000E+00     5.0000000000205835E-01     0.0000000000000000E+00 
    0.0000000000000000E+00     4.6875000000192979E-01     0.0000000000000000E+00 
    0.0000000000000000E+00     4.3750000000180111E-01     0.0000000000000000E+00 
    0.0000000000000000E+00     4.0625000000167238E-01     0.0000000000000000E+00 
[...]
CELL_DATA 2795 
SCALARS Pressure double 1 
LOOKUP_TABLE default 

    5.6525331774436198E+00 
    1.2675665536232474E+01 
    8.9318272144296582E+00 
    8.5985372413688204E+00 
    6.8967261532144111E+00 
    1.2562310419422746E+01 
    1.3221366872229623E+01 
    5.0656139657748964E+00 
    9.4537620967102463E+00 
    7.1834261204739054E+00 
    6.1057206047620909E+00 
    1.2334335920865847E+01 
    1.2591029757359777E+01 
    1.2534571335060260E+01 
    8.2051993494115596E+00 
    4.9806730270843200E+00 
    7.9317901556817665E+00 
    6.5070562960408544E+00 
    1.2012690554521244E+01 
    8.9223998872089023E+00 
    8.8145024516508901E+00 
    1.2476386383359705E+01 
    8.3619157576946179E+00 
    3.4094318795291689E-01 
    1.2329564136071538E+01 
    1.2565165050222030E+01 
    1.3250719251138911E+01 
    5.8607609926763136E+00 
    1.2263458110287710E+01 
    1.3236764101472525E+01 
    9.0485241935165490E+00 
    9.1528478625853165E+00 
    6.2753445560792045E+00 
    8.8926000115399990E+00 
    2.9309374311588456E+00 
    7.9341992971743389E+00 
    8.8826179929186555E+00 
    1.3272807340635312E+01 
    1.3201279917410607E+01 
    1.2346114865039841E+01 
    6.8437762869473904E+00 
    1.2305076264618748E+01 
    7.0689909053725342E-01 
    8.8312434777413849E+00 
    1.3031499469742618E+01 
    1.2887423306399072E+01 
    1.2324734341903982E+01 
    9.7663704173174928E+00 
    1.2389633921927064E+01 
    8.1085207381576829E+00 
    7.7384812433037107E+00 
    9.1210692359409045E+00 
    8.7164879483605766E+00 
    7.9791984388854695E+00 
    9.1205041813956615E+00 
    1.1826815029966404E+01 
    1.0658309930751019E+01 
    6.9329830100939889E+00 
    1.2479753106816162E+01 
    1.2412691277557331E+01 
    8.6304187024112640E+00 
    8.5758478087260350E+00 
    8.5121390589644665E+00 
    1.3148198763792140E+01 
    1.3386266189616606E+01 
    7.9427526182507835E+00 
    9.1190915387415910E+00 
    1.2250824486211906E+01 
    1.0471404629383404E+01 
    8.6088381640951503E+00 
    1.3397060259540353E+01 
    1.2426144536134627E+01 
    7.8335126548981826E+00 
    1.2971862981686050E+01 
    9.3487189419055365E+00 
    1.2197164024238475E+01 
    1.3287078507475274E+01 
    9.2896315385507684E+00 
    5.7316414141223877E+00 
    9.1364542453855613E+00 
    1.3208574901588898E+01 
    1.3414752563985667E+01 
    7.9578133285395403E+00 
    9.0477124382938303E+00 
    1.3458587486723111E+01 
    8.8862491066961802E+00 
    8.4380747893772128E+00 
    1.0839061264384277E+01 
    5.4937858259269614E+00 
    7.7615435471149095E+00 
    9.0474236280159896E+00 
    9.5812622361079871E+00 
    1.4821889625743543E+01 
    6.7074427569460831E+00 
    9.1265536124815441E+00 
    1.2305331965572043E+01 
    1.2547135977849305E+01 
    5.9296264751005987E+00 
    8.7598862248759239E+00 
    9.0779669351636016E+00 
    1.2565640290050501E+01 
    9.0835029379759682E+00 
    1.2504733319267265E+01 
    3.6425702280179868E+00 
    5.9336930305160527E+00 
    9.3304416511597044E+00 
    1.2683323143451664E+01 
    7.9038817916214521E+00 
    8.4395587386499784E+00 
    9.0699658810455315E+00 
    8.4132752238184469E+00 
    1.0319058104129258E+01 
    8.2066997245029523E+00 
    7.8403167898648078E+00 
    6.2341281402597746E+00 
    1.0617588105369670E+01 
    9.1545943082042633E+00 
    1.3069379060004676E+01 
    7.8206138685013666E+00 
    8.5863571019241860E+00 
    1.2414858183577207E+01 
    7.2120871630659176E+00 
    1.2820572504115130E+01 
    8.9661661656605052E+00 
    8.5214336820400298E+00 
    1.2549135219973545E+01 
    9.1487272908942323E+00 
    1.3296991906215927E+01 
    1.0850898611151175E+01 
    1.1691922260125303E+01 
    1.3266103882303597E+01 
    6.7200160183705515E+00 
    9.3492635293614015E+00 
    1.2550493791565614E+01 
    2.7328512784841013E+00 
    9.0988833644124654E+00 
    1.3235646690571908E+01 
    8.5506986215711187E+00 
    9.8658979068390540E+00 
    5.8809407642041958E+00 
    1.2304381011542946E+01 
    1.5283558599579081E+01 
    1.1264842086678938E+01 
    8.5459655358722184E+00 
    7.6720572701315222E+00 
    9.7546719235161348E+00 
    8.9839736513722013E+00 
    6.1670598982740943E+00 
    1.3259736330189890E+01 
    1.2645323078588200E+01 
    1.2306932041411997E+01 
    9.5850901943970701E+00 
    7.8129015828576556E+00 
    8.8132029725119985E+00 
    1.2994536313349107E+01 
    8.0190270497981366E+00 
    8.9699511980761706E+00 
    8.1584334553594680E+00 
    1.0397729689601565E+01 
    1.5272318669597277E+01 
    1.2299120313135049E+01 
    7.7802759621552573E+00 
    1.2722548403108371E+01 
    1.2646343521550085E+01 
    1.2718831557204833E+01 
    1.3638619997479770E+01 
    1.4143153675609341E+01 
    1.2881559161234527E+01 
    9.1110261114802302E+00 
    9.7620503070596154E+00 
    1.2723160599968113E+01 
    1.3083134744209021E+01 
    6.4247428195003584E+00 
    1.2324231263630102E+01 
    1.2958739214972347E+01 
    6.2686096426222084E+00 
    1.3557692476953815E+01 
    1.3545701520286228E+01 
    1.2074344783088236E+01 
    9.4077465345258258E+00 
    2.4224985865417716E+00 
    1.3233632540029168E+01 
    9.2798082830247921E+00 
    1.3344004152493012E+01 
    8.4921527311993721E+00 
    1.3083756207746491E+01 
    8.6261251372972603E-01 
    1.1706633015990240E+01 
    8.6168396931681226E+00 
    7.7779214513878987E+00 
    7.5841987347779254E+00 
    8.9353192566338624E+00 
    9.9960696946841505E+00 
    9.3093841244955886E+00 
    6.3040945901010508E+00 
    1.3075814590895913E+01 
    1.2572431035918370E+01 
    1.0582469143166845E+01 
    9.3240986282145659E+00 
    1.3953589839394764E+00 
    7.0213918605280767E+00 
    4.9054577273842241E+00 
    1.3247359527647966E+01 
    1.0232928277764046E+01 
    1.2628428438134215E+01 
    1.2632450229816461E+01 
    8.1015222689387851E+00 
    1.0702871123033070E+01 
    1.2302358661842538E+01 
    1.3531395466800339E+01 
    5.8667877578993357E+00 
    1.1114560594364198E+01 
    9.3642716560744290E+00 
    5.2318324967485399E+00 
    8.0812676105659111E+00 
    1.1143312250292265E+01 
    1.2597820443699106E+01 
    8.9914494599123742E+00 
    1.2698444330575715E+01 
    1.2485231777526799E+01 
    1.2439589153442958E+01 
    8.8199021716458414E+00 
    7.7301963929463220E+00 
    1.2314497185580812E+01 
    7.8302966757726846E+00 
    9.0866943839272061E+00 
    7.6832305923236053E+00 
    8.9111121748542459E+00 
    1.2640523261049704E+01 
    5.5971574994036128E+00 
    8.0067897626517102E+00 
    1.3172038286281122E+01 
    8.8338737370508245E+00 
    1.0129212914071157E+01 
    5.7425201180272980E+00 
    7.8805575623591162E+00 
    1.2465745296270724E+01 
    1.2749206830296952E+01 
    4.7052344854026638E+00 
    8.8369296175928600E+00 
    7.7245014560423826E+00 
    1.3924490501695436E+01 
    1.3423464709897726E+01 
    1.4166948931641452E+01 
    8.8577235720738550E+00 
    1.2616329818313350E+01 
    1.2264048989192499E+01 
    8.7366339361306888E+00 
    1.2307047117837394E+01 
    9.3260195227479414E+00 
    5.2762716286867475E+00 
    9.1356288343557104E+00 
    1.3157460625252680E+01 
    1.2304147346377809E+01 
    6.0691220925456442E+00 
    1.2330470498074177E+01 
    1.0010355855935172E+01 
    9.0818943111190151E+00 
    8.6255026067666911E+00 
    1.2185302587194302E+01 
    9.5988830272904444E+00 
    1.2319004293205895E+01 
    8.7738398888542495E+00 
    5.4179497005397117E+00 
    9.1556277908369843E+00 
    7.5925403992690290E+00 
    1.1268651362325370E+01 
    1.3343090511284972E+01 
    1.2313303831337011E+01 
    1.3228990714973428E+01 
    8.7840645172882130E+00 
    5.9220012301134064E+00 
    6.0036900205799322E+00 
    9.2608041546944140E+00 
    9.0631776368473620E+00 
    1.3335669102518029E+00 
    1.1870763614396958E+01 
    1.3667073987483406E+01 
    8.5002344577853837E+00 
    5.5214286281977376E+00 
    1.0350040894122474E+01 
    1.2329164754148648E+01 
    6.5068619083929136E+00 
    4.4670919753374392E+00 
    9.0349377039970715E+00 
    1.2410900860482142E+01 
    1.2988538338900742E+01 
    1.2891614733907335E+01 
    1.2752497849565280E+01 
    6.3649311285917465E+00 
    9.0724566805467290E+00 
    1.1900439428191408E+01 
    7.0512041600972575E+00 
    1.2579263220902270E+01 
    1.0901132836824564E+01 
    6.0876925038505485E+00 
    1.2426978915170780E+01 
    1.3243813655521292E+01 
    1.2434229209439390E+01 
    6.2749980482364682E+00 
    9.1153040728589296E+00 
    6.8761580035842780E+00 
    8.5863609159884255E+00 
    1.2321537820660781E+01 
    1.2311051013622002E+01 
    6.3102643784273695E+00 
    1.3119549460519533E+01 
    9.6114013813368597E+00 
    1.2344279816951151E+01 
    1.3090257608365452E+01 
    1.2331652163012919E+01 
    1.1484223967669530E+01 
    1.3971821212013635E+01 
    8.4722574548938745E+00 
    1.3201273645808435E+01 
    1.2370536886568793E+01 
    1.3267250095830153E+01 
    1.3113162719013895E+01 
    8.5589453423621880E+00 
    8.9242406153884932E+00 
    8.4906661306749065E+00 
    1.1043336668676888E+01 
    3.6524382095820709E+00 
    9.1989316963754781E+00 
    1.4090612215770951E+01 
    9.3266134670367329E+00 
    9.4980390880920726E+00 
    1.3242085052655197E+01 
    1.3460730080482257E+01 
    8.4404185513907581E+00 
    1.2334319594436433E+01 
    1.2308078608059974E+01 
    9.4866815184117037E+00 
    1.3071493347893316E+01 
    6.3988448157561324E+00 
    4.1160206139946709E+00 
    9.7440493975670162E+00 
    9.3397228818290259E+00 
    1.2312773020307992E+01 
    5.9144198867132793E+00 
    1.2814043164583035E+01 
    4.1955419993467391E+00 
    9.2793347739235461E+00 
    8.6266400096753557E+00 
    9.0915971827331017E+00 
    1.5321202830944490E+01 
    3.5493844026408778E+00 
    9.1169178640459041E+00 
    1.0801481588826704E+01 
    8.6928401068856829E+00 
    6.9361197947138802E+00 
    1.2920851602508780E+01 
    1.4909801060095743E+01 
    1.3055933444951240E+01 
    9.0606703406311748E+00 
    5.2115245990463688E+00 
    1.4764945742195085E+01 
    1.2562485071723840E+01 
    6.5535124305571104E+00 
    8.6740647176240344E+00 
    1.3623172989679597E+01 
    3.0117643588535339E+00 
    9.3857444756179476E+00 
    1.3024171912561528E+01 
    9.1048049084416451E+00 
    7.8986844839798138E+00 
    9.1563403882943160E+00 
    1.2101452800937077E+01 
    9.0842772380602153E+00 
    4.6585015021614975E+00 
    8.4853233991481680E-01 
    6.7186765959904307E+00 
    1.3823351827038310E+01 
    8.4889295757844927E+00 
    1.0414482764034464E+01 
    9.9074975801217509E+00 
    1.1368416879163158E+01 
    9.1179653295590715E+00 
    1.2480280170650060E+01 
    1.5334839612689645E+01 
    1.0757574982042824E+01 
    1.3175845954694308E+01 
    5.0428014957483869E-01 
    1.2312766216008047E+01 
    5.0780112764980689E+00 
    1.4249658085120164E+01 
    9.1304129810675292E+00 
    8.0138167677352623E+00 
    7.0066359792095421E+00 
    4.8882717604234669E+00 
    1.0161467860852261E+01 
    7.1209614764188389E+00 
    1.1173785107916810E+01 
    2.0585877545034141E+00 
    1.0042115849538463E+01 
    1.2252361119656294E+01 
    5.4529924932481668E+00 
    1.2769019232417556E+01 
    1.4080919160838560E+01 
    1.2626345142824647E+01 
    9.0036583778832782E+00 
    9.0862033085709264E+00 
    9.1231703971339506E+00 
    5.2833101673956113E+00 
    8.2511079169141635E+00 
    8.1178489107494656E+00 
    9.1123731279150491E+00 
    8.4334158273056943E+00 
    6.3728969637173161E-01 
    5.8151160456029816E+00 
    8.7810739166899392E+00 
    9.0887278643458362E+00 
    1.1481990873608984E+01 
    1.9678271613737051E+00 
    9.4498557881999847E+00 
    9.3443797341310209E+00 
    3.4164846862732876E+00 
    1.2499623811843817E+01 
    7.8517190969276802E+00 
    9.2141294063701089E+00 
    1.2559908188896364E+01 
    4.9043373386447628E+00 
    1.2616210862629989E+01 
    7.9415223157280774E+00 
    8.9283917619655950E-01 
    8.5451184122856123E+00 
    1.3130032252993761E+01 
    1.2313101533757489E+01 
    1.2331687944089976E+01 
    9.4650148503914799E+00 
    9.2830664032740007E+00 
    7.8282552146491708E+00 
    6.3187116438660089E+00 
    1.2659468716082147E+01 
    8.6744167408268034E+00 
    6.0857623444015942E+00 
    1.2326300051322589E+01 
    1.2961101022082813E+01 
    9.2836826134301003E+00 
    8.8804291485708156E+00 
    1.5220919497143349E+01 
    9.4874879564722860E+00 
    1.2676101280730043E+01 
    7.4554262009724308E+00 
    1.5362803536533724E+01 
    5.9685682864314140E+00 
    8.2101886898867029E+00 
    6.6743672325771337E+00 
    9.6980353672022694E+00 
    7.6722788283274257E+00 
    1.5346901801671191E+01 
    9.5312693997456961E+00 
    1.2043488720476951E+01 
    6.1359539702353123E+00 
    9.1158621628013936E+00 
    1.2531500576302253E+01 
    7.6899311683779761E+00 
    6.5920823665569195E+00 
    1.0043440064734098E+01 
    1.2746498029980312E+01 
    6.5888839934386061E+00 
    8.6438993625607576E+00 
    8.9078618058309118E+00 
    1.2290837002523395E+01 
    8.7185558600322430E+00 
    1.2717103192488532E+01 
    1.3293961486346481E+01 
    7.8512979728523469E+00 
    7.7023273344256173E+00 
    7.1609194163032983E+00 
    1.2422768854914981E+01 
    9.3624245045073717E+00 
    1.4944945368345394E+01 
    1.1706287240644254E+01 
    1.2494760134244476E+01 
    1.4645449115849464E+01 
    1.4082755266390514E+01 
    9.1604701316764654E+00 
    9.0979582815272568E+00 
    1.2101882142273842E+01 
    1.2346652299047669E+01 
    1.2818336661429898E+01 
    1.2581590359384299E+01 
    1.5239545120832382E+01 
    9.4870622652890990E+00 
    7.9415891286915103E+00 
    9.4796263843867958E+00 
    1.3214269324038666E+01 
    9.2537996452192370E+00 
    5.3461779325310008E+00 
    8.9885586487672136E+00 
    1.3594788118456197E+01 
    9.3770907350094035E+00 
    7.9437054215322043E+00 
    8.8482742413931064E+00 
    1.3696051073911768E+01 
    1.2353821665824146E+01 
    7.5682321014067719E+00 
    1.3825332640578836E+01 
    9.1902659541468150E+00 
    1.2812470643771235E+01 
    1.3710288142765204E+01 
    9.6740266844198963E+00 
    4.9027087028305623E+00 
    1.0039077423368774E+01 
    5.0678834139809092E+00 
    9.2981251122481723E+00 
    9.1043558133012930E+00 
    1.0547137726571489E+01 
    5.3531958728612947E+00 
    1.1183862951906706E+01 
    9.1274889918349000E+00 
    1.2572391585682055E+01 
    9.6076583503241988E+00 
    7.3866262681842887E+00 
    8.7300022670414599E+00 
    9.6271268513430872E+00 
    9.5822090589606521E+00 
    1.3333463135405738E+01 
    7.6009572405629884E+00 
    7.4727793555392132E+00 
    5.6220523950059231E+00 
    1.2843172436034010E+01 
    8.7688825891877293E+00 
    1.2171795573258203E+01 
    9.0749243933277572E+00 
    6.1344112258985248E+00 
    1.2381728288211944E+01 
    9.0472404473205916E+00 
    6.6729650741220530E+00 
    7.0572416111811718E+00 
    7.2986017933102403E+00 
    1.2600511433715280E+01 
    9.1142922519679317E+00 
    1.3185839732225492E+01 
    9.0032356192071674E+00 
    8.9403531957358116E+00 
    8.5661505211877422E+00 
    1.2455308502842387E+01 
    8.8574806953673324E+00 
    7.3343375831461985E+00 
    1.4069716602317625E+01 
    1.2527645418988332E+01 
    6.2504614136559740E+00 
    2.5037752728843121E+00 
    9.1037510073577366E+00 
    8.4820964758317832E+00 
    7.6995043553664457E+00 
    8.3865912164274583E+00 
    1.2495466116406085E+01 
    8.8300714977734778E+00 
    7.9958111591709047E+00 
    1.2366650907626742E+01 
    6.1954889640408597E+00 
    1.2065955535190618E+01 
    8.1928727913215003E+00 
    7.2890595029491987E+00 
    7.7692235625049699E+00 
    1.2890335273051145E+01 
    9.0948021528471230E+00 
    9.1032773268423988E+00 
    5.4305997608933829E+00 
    5.8563242321769851E+00 
    1.1490961549644926E+01 
    9.1131944034854353E+00 
    9.1431297004463410E+00 
    1.3809304651321566E+01 
    7.4717515389601532E+00 
    9.1252242168042912E+00 
    6.4118433342061705E+00 
    6.6205070114061595E+00 
    1.2449433053127441E+01 
    8.7502922009140747E+00 
    6.4378348375434866E+00 
    9.5906183317904894E+00 
    8.9864682278773564E+00 
    1.2452178771405620E+01 
    1.3896442669974306E+01 
    9.7203163107030743E-01 
    9.1084768148564947E+00 
    9.3381736868113290E+00 
    1.2509338283698655E+01 
    8.6116046107299429E+00 
    9.0679005537234438E+00 
    1.3382748362121630E+01 
    7.7964849230550231E+00 
    6.4931775060696504E+00 
    1.1013400356651774E+01 
    1.2325485895627295E+01 
    1.3267844806723664E+01 
    1.3507127367000395E+01 
    8.9575133058682130E+00 
    9.1007325803273194E+00 
    1.0220963079882489E+01 
    5.9401297202789900E+00 
    1.2439615030510234E+01 
    6.9817947968964909E+00 
    6.1856818017498458E+00 
    1.1416223156686328E+01 
    1.0720153074376466E+01 
    6.0656822475562286E+00 
    1.2358995354899887E+01 
    1.3253993563558208E+01 
    9.5014590627747424E+00 
    1.3991065993180237E+01 
    1.2388229105997508E+01 
    8.6921764370397838E+00 
    1.3009867238553250E+01 
    6.6211030663710302E+00 
    1.2341683969492138E+01 
    9.1076518949814975E+00 
    9.0682503682139046E+00 
    1.3966656633046044E+01 
    8.7995785756380158E+00 
    1.1143175747236310E+01 
    7.7516119063398259E+00 
    1.3361580217463551E+01 
    1.2257891230568049E+01 
    8.0748395255946264E+00 
    1.2304040427720462E+01 
    8.1850120514801450E+00 
    9.0792802917729940E+00 
    1.3216590138245301E+01 
    1.2576005214404253E+01 
    1.3257192885453298E+01 
    1.2512465275084780E+01 
    8.2625041752792416E+00 
    8.4726479182519956E+00 
    1.3262960281585130E+01 
    8.5850332120217967E+00 
    1.2196978352023777E+01 
    8.7902914722170742E+00 
    3.6796038935441979E+00 
    6.2489576646705078E+00 
    5.7929627264772856E+00 
    1.3219514875115584E+01 
    1.3901609713155912E+01 
    1.2320667345760546E+01 
    1.0521457400053828E+01 
    1.2581454263824279E+01 
    1.2363920703461599E+01 
    1.2897394676004794E+01 
    5.2488098322843584E+00 
    3.4324647208589938E+00 
    1.0328512260702009E+01 
    8.7649541440244469E+00 
    1.2496898734622283E+01 
    1.2494593792502982E+01 
    9.3560944100178407E+00 
    1.2528274087344514E+01 
    9.0953575482075895E+00 
    9.0037880121107730E+00 
    4.7530596163748564E+00 
    3.4211829547663450E+00 
    1.3692451229229315E+01 
    7.0377646060658554E+00 
    8.0188602071750505E+00 
    9.2605606557445661E+00 
    1.5221581818186431E+01 
    9.3468669309032570E+00 
    9.4096859985961210E+00 
    3.8605202344915153E+00 
    9.3479652640309787E+00 
    9.3607326183259758E+00 
    1.2794456391899278E+01 
    7.7769378653515426E+00 
    8.6671020818687534E+00 
    1.3850272538913382E+01 
    9.1164926458550344E+00 
    1.2335186458654718E+01 
    1.2580445261015095E+01 
    1.1226432361352847E+01 
    7.6603370771068926E+00 
    1.2512153523560453E+01 
    8.9096150139484855E+00 
    1.2516171351451442E+01 
    1.2278486412404723E+01 
    1.3237384011182156E+01 
    1.2509845262319701E+01 
    1.1747726930338413E+01 
    9.1058796629131908E+00 
    6.0194746039982450E+00 
    1.5100061081052740E+01 
    7.1234639153397517E+00 
    1.3163097737141841E+01 
    9.1033186547787395E+00 
    7.5227150877022284E+00 
    4.4812743657739027E+00 
    9.3928045669426652E+00 
    1.2500084141657803E+01 
    1.2496825945253564E+01 
    9.0595502356278921E+00 
    9.0975416136158991E+00 
    1.4047037964267872E+01 
    1.3454678207084344E+01 
    9.3638724033448693E+00 
    3.1951397025657173E+00 
    1.1726302359247089E+01 
    1.5345329238599096E+01 
    9.1091657034908113E+00 
    1.0863118391148481E+01 
    8.6078067984770144E+00 
    1.4964778012552470E+01 
    1.3529698185812860E+01 
    1.3288091118013046E+01 
    9.3836647197321490E+00 
    4.2047775289222473E+00 
    8.5688800992394185E+00 
    8.6324857878118149E+00 
    8.6793516905597201E+00 
    3.4693471131242735E+00 