# vtk DataFile Version 2.0
Pressure Field Data 
ASCII 
DATASET UNSTRUCTURED_GRID 

POINTS 2860 double 

    0.0000000000000000E+00     0.0000000000000000E+00     0.0000000000000000E+00 
    1.0000000000000000E+00     0.0000000000000000E+00     0.0000000000000000E+00 
    1.0000000000000000E+00     1.0000000000000000E+00     0.0000000000000000E+00 
    0.0000000000000000E+00     1.0000000000000000E+00     0.0000000000000000E+00 
    2.5000000000000000E-01     2.5000000000000000E-01     0.0000000000000000E+00 
    7.5000000000000000E-01     2.5000000000000000E-01     0.0000000000000000E+00 
    7.5000000000000000E-01     7.5000000000000000E-01     0.0000000000000000E+00 
    2.5000000000000000E-01     7.5000000000000000E-01     0.0000000000000000E+00 
    3.1249999999942091E-02     0.0000000000000000E+00     0.0000000000000000E+00 
    6.2499999999873469E-02     0.0000000000000000E+00     0.0000000000000000E+00 
    9.3749999999826514E-02     0.0000000000000000E+00     0.0000000000000000E+00 
    1.2499999999977961E-01     0.0000000000000000E+00     0.0000000000000000E+00 
    1.5624999999968961E-01     0.0000000000000000E+00     0.0000000000000000E+00 
    1.8749999999959971E-01     0.0000000000000000E+00     0.0000000000000000E+00 
    2.1874999999950970E-01     0.0000000000000000E+00     0.0000000000000000E+00 
    2.4999999999941969E-01     0.0000000000000000E+00     0.0000000000000000E+00 
    2.8124999999932920E-01     0.0000000000000000E+00     0.0000000000000000E+00 
    3.1249999999923850E-01     0.0000000000000000E+00     0.0000000000000000E+00 
    3.4374999999914790E-01     0.0000000000000000E+00     0.0000000000000000E+00 
    3.7499999999905720E-01     0.0000000000000000E+00     0.0000000000000000E+00 
    4.0624999999896660E-01     0.0000000000000000E+00     0.0000000000000000E+00 
    4.3749999999887590E-01     0.0000000000000000E+00     0.0000000000000000E+00 
    4.6874999999878530E-01     0.0000000000000000E+00     0.0000000000000000E+00 
    4.9999999999869471E-01     0.0000000000000000E+00     0.0000000000000000E+00 
    5.3124999999877620E-01     0.0000000000000000E+00     0.0000000000000000E+00 
    5.6249999999885780E-01     0.0000000000000000E+00     0.0000000000000000E+00 
    5.9374999999893940E-01     0.0000000000000000E+00     0.0000000000000000E+00 
    6.2499999999902101E-01     0.0000000000000000E+00     0.0000000000000000E+00 
    6.5624999999910261E-01     0.0000000000000000E+00     0.0000000000000000E+00 
    6.8749999999918421E-01     0.0000000000000000E+00     0.0000000000000000E+00 
    7.1874999999926570E-01     0.0000000000000000E+00     0.0000000000000000E+00 
    7.4999999999934730E-01     0.0000000000000000E+00     0.0000000000000000E+00 
    7.8124999999942890E-01     0.0000000000000000E+00     0.0000000000000000E+00 
    8.1249999999951039E-01     0.0000000000000000E+00     0.0000000000000000E+00 
    8.4374999999959199E-01     0.0000000000000000E+00     0.0000000000000000E+00 
    8.7499999999967359E-01     0.0000000000000000E+00     0.0000000000000000E+00 
    9.0624999999975520E-01     0.0000000000000000E+00     0.0000000000000000E+00 
    9.3749999999983680E-01     0.0000000000000000E+00     0.0000000000000000E+00 
    9.6874999999991840E-01     0.0000000000000000E+00     0.0000000000000000E+00 
    1.0000000000000000E+00     3.1249999999942091E-02     0.0000000000000000E+00 
    1.0000000000000000E+00     6.2499999999873469E-02     0.0000000000000000E+00 
    1.0000000000000000E+00     9.3749999999826514E-02     0.0000000000000000E+00 
    1.0000000000000000E+00     1.2499999999977961E-01     0.0000000000000000E+00 
    1.0000000000000000E+00     1.5624999999968961E-01     0.0000000000000000E+00 
    1.0000000000000000E+00     1.8749999999959971E-01     0.0000000000000000E+00 
    1.0000000000000000E+00     2.1874999999950970E-01     0.0000000000000000E+00 
    1.0000000000000000E+00     2.4999999999941969E-01     0.0000000000000000E+00 
    1.0000000000000000E+00     2.8124999999932920E-01     0.0000000000000000E+00 
    1.0000000000000000E+00     3.1249999999923850E-01     0.0000000000000000E+00 
    1.0000000000000000E+00     3.4374999999914790E-01     0.0000000000000000E+00 
    1.0000000000000000E+00     3.7499999999905720E-01     0.0000000000000000E+00 
    1.0000000000000000E+00     4.0624999999896660E-01     0.0000000000000000E+00 
    1.0000000000000000E+00     4.3749999999887590E-01     0.0000000000000000E+00 
    1.0000000000000000E+00     4.6874999999878530E-01     0.0000000000000000E+00 
    1.0000000000000000E+00     4.9999999999869471E-01     0.0000000000000000E+00 
    1.0000000000000000E+00     5.3124999999877620E-01     0.0000000000000000E+00 
    1.0000000000000000E+00     5.6249999999885780E-01     0.0000000000000000E+00 
    1.0000000000000000E+00     5.9374999999893940E-01     0.0000000000000000E+00 
    1.0000000000000000E+00     6.2499999999902101E-01     0.0000000000000000E+00 
    1.0000000000000000E+00     6.5624999999910261E-01     0.0000000000000000E+00 
    1.0000000000000000E+00     6.8749999999918421E-01     0.0000000000000000E+00 
    1.0000000000000000E+00     7.1874999999926570E-01     0.0000000000000000E+00 
    1.0000000000000000E+00     7.4999999999934730E-01     0.0000000000000000E+00 
    1.0000000000000000E+00     7.8124999999942890E-01     0.0000000000000000E+00 
    1.0000000000000000E+00     8.1249999999951039E-01     0.0000000000000000E+00 
    1.0000000000000000E+00     8.4374999999959199E-01     0.0000000000000000E+00 
    1.0000000000000000E+00     8.7499999999967359E-01     0.0000000000000000E+00 
    1.0000000000000000E+00     9.0624999999975520E-01     0.0000000000000000E+00 
    1.0000000000000000E+00     9.3749999999983680E-01     0.0000000000000000E+00 
    1.0000000000000000E+00     9.6874999999991840E-01     0.0000000000000000E+00 
    9.6875000000003686E-01     1.0000000000000000E+00     0.0000000000000000E+00 
    9.3750000000011691E-01     1.0000000000000000E+00     0.0000000000000000E+00 
    9.0625000000015765E-01     1.0000000000000000E+00     0.0000000000000000E+00 
    8.7500000000017863E-01     1.0000000000000000E+00     0.0000000000000000E+00 
    8.4375000000028044E-01     1.0000000000000000E+00     0.0000000000000000E+00 
    8.1250000000040856E-01     1.0000000000000000E+00     0.0000000000000000E+00 
    7.8125000000054956E-01     1.0000000000000000E+00     0.0000000000000000E+00 
    7.5000000000066480E-01     1.0000000000000000E+00     0.0000000000000000E+00 
    7.1875000000086831E-01     1.0000000000000000E+00     0.0000000000000000E+00 
    6.8750000000102829E-01     1.0000000000000000E+00     0.0000000000000000E+00 
    6.5625000000114431E-01     1.0000000000000000E+00     0.0000000000000000E+00 
    6.2500000000129829E-01     1.0000000000000000E+00     0.0000000000000000E+00 
    5.9375000000147926E-01     1.0000000000000000E+00     0.0000000000000000E+00 
    5.6250000000168354E-01     1.0000000000000000E+00     0.0000000000000000E+00 
    5.3125000000188671E-01     1.0000000000000000E+00     0.0000000000000000E+00 
    5.0000000000205835E-01     1.0000000000000000E+00     0.0000000000000000E+00 
    4.6875000000192979E-01     1.0000000000000000E+00     0.0000000000000000E+00 
    4.3750000000180111E-01     1.0000000000000000E+00     0.0000000000000000E+00 
    4.0625000000167238E-01     1.0000000000000000E+00     0.0000000000000000E+00 
    3.7500000000154382E-01     1.0000000000000000E+00     0.0000000000000000E+00 
    3.4375000000141509E-01     1.0000000000000000E+00     0.0000000000000000E+00 
    3.1250000000128642E-01     1.0000000000000000E+00     0.0000000000000000E+00 
    2.8125000000115769E-01     1.0000000000000000E+00     0.0000000000000000E+00 
    2.5000000000102918E-01     1.0000000000000000E+00     0.0000000000000000E+00 
    2.1875000000090050E-01     1.0000000000000000E+00     0.0000000000000000E+00 
    1.8750000000077180E-01     1.0000000000000000E+00     0.0000000000000000E+00 
    1.5625000000064329E-01     1.0000000000000000E+00     0.0000000000000000E+00 
    1.2500000000051459E-01     1.0000000000000000E+00     0.0000000000000000E+00 
    9.3750000000385914E-02     1.0000000000000000E+00     0.0000000000000000E+00 
    6.2500000000257239E-02     1.0000000000000000E+00     0.0000000000000000E+00 
    3.1250000000128557E-02     1.0000000000000000E+00     0.0000000000000000E+00 
    0.0000000000000000E+00     9.6875000000003686E-01     0.0000000000000000E+00 
    0.0000000000000000E+00     9.3750000000011691E-01     0.0000000000000000E+00 
    0.0000000000000000E+00     9.0625000000015765E-01     0.0000000000000000E+00 
    0.0000000000000000E+00     8.7500000000017863E-01     0.0000000000000000E+00 
    0.0000000000000000E+00     8.4375000000028044E-01     0.0000000000000000E+00 
    0.0000000000000000E+00     8.1250000000040856E-01     0.0000000000000000E+00 
    0.0000000000000000E+00     7.8125000000054956E-01     0.0000000000000000E+00 
    0.0000000000000000E+00     7.5000000000066480E-01     0.0000000000000000E+00 
    0.0000000000000000E+00     7.1875000000086831E-01     0.0000000000000000E+00 
    0.0000000000000000E+00     6.8750000000102829E-01     0.0000000000000000E+00 
    0.0000000000000000E+00     6.5625000000114431E-01     0.0000000000000000E+00 
    0.0000000000000000E+00     6.2500000000129829E-01     0.0000000000000000E+00 
    0.0000000000000000E+00     5.9375000000147926E-01     0.0000000000000000E+00 
    0.0000000000000000E+00     5.6250000000168354E-01     0.0000000000000000E+00 
    0.0000000000000000E+00     5.3125000000188671E-01     0.0000000000000000E+00 
    0.0000000000000000E+00     5.0000000000205835E-01     0.0000000000000000E+00 
    0.0000000000000000E+00     4.6875000000192979E-01     0.0000000000000000E+00 
    0.0000000000000000E+00     4.3750000000180111E-01     0.0000000000000000E+00 
    0.0000000000000000E+00     4.0625000000167238E-01     0.0000000000000000E+00 
[...]
CELL_DATA 2795 
SCALARS Pressure double 1 
LOOKUP_TABLE default 

    7.5161857449113141E+00 
    1.6444916385946918E+01 
    1.1607360567526005E+01 
    1.1322265732683935E+01 
    9.1674456325550242E+00 
    1.6280470089428853E+01 
    1.7079135876098405E+01 
    6.7413285700881245E+00 
    1.2163514382586413E+01 
    9.3899399893739890E+00 
    8.0524275912884153E+00 
    1.5995388286014773E+01 
    1.6362592241748484E+01 
    1.6247054216982388E+01 
    1.0716720957545734E+01 
    6.6315660763920086E+00 
    1.0522419851162811E+01 
    8.5525531728098780E+00 
    1.5597348310287716E+01 
    1.1589682126678934E+01 
    1.1487905233295921E+01 
    1.6172828961861320E+01 
    1.1045323312328922E+01 
    4.4508495316836022E-01 
    1.6025539071495707E+01 
    1.6313697256103637E+01 
    1.7113202343365650E+01 
    7.8114638591857544E+00 
    1.5909007592694309E+01 
    1.7096728098119044E+01 
    1.1777444403520283E+01 
    1.1793214095184410E+01 
    8.5198820799927564E+00 
    1.1570630553241429E+01 
    3.8842253701620351E+00 
    1.0523568069712418E+01 
    1.1556879770249127E+01 
    1.7138423889728809E+01 
    1.7054374030381943E+01 
    1.6009452748921067E+01 
    9.1467605969540262E+00 
    1.6011387315058673E+01 
    9.3058465565983062E-01 
    1.1564840552509235E+01 
    1.6873670798949927E+01 
    1.6618057251419870E+01 
    1.5983704633984054E+01 
    1.2545811064951220E+01 
    1.6048413743736944E+01 
    1.0748966188808922E+01 
    1.0277950878061223E+01 
    1.1757375032411758E+01 
    1.1466046492907051E+01 
    1.0586074302780462E+01 
    1.1850257531813744E+01 
    1.5366690730299799E+01 
    1.3574491174049962E+01 
    9.2149215320677786E+00 
    1.6179051616711234E+01 
    1.6092778895499332E+01 
    1.1305799633477294E+01 
    1.1179600589529516E+01 
    1.1223730518967619E+01 
    1.6992679346691823E+01 
    1.7282583370572567E+01 
    1.0539219470783820E+01 
    1.1755895281070384E+01 
    1.5788744651646899E+01 
    1.3564669108993870E+01 
    1.1229718103589708E+01 
    1.7281505575346905E+01 
    1.6162215095317151E+01 
    1.0399697339057351E+01 
    1.6736797439075474E+01 
    1.2093737302242880E+01 
    1.5854864283833310E+01 
    1.7158346271063390E+01 
    1.2123849968651127E+01 
    7.6679797980201254E+00 
    1.1773871663549670E+01 
    1.7063854435346293E+01 
    1.7303387900564367E+01 
    1.0537788367276338E+01 
    1.1700226814906497E+01 
    1.7356570305653996E+01 
    1.1556117550157898E+01 
    1.1134859296018814E+01 
    1.4054250305796868E+01 
    7.3441011098726978E+00 
    1.0310998516168473E+01 
    1.1697545012641594E+01 
    1.2321730118465183E+01 
    1.8864199308570473E+01 
    8.9174359488024262E+00 
    1.1763667445206583E+01 
    1.5959650825054752E+01 
    1.6309003497579241E+01 
    7.8941495978857006E+00 
    1.1421268055404688E+01 
    1.1731222303571665E+01 
    1.6332327779394998E+01 
    1.1722406919159916E+01 
    1.6258267794726361E+01 
    4.8471105456646910E+00 
    7.8272038706749676E+00 
    1.1978832856794513E+01 
    1.6451560183888290E+01 
    1.0488494495944169E+01 
    1.1070897075571601E+01 
    1.1701785934243089E+01 
    1.1102979363971635E+01 
    1.3182032731939401E+01 
    1.0796208068989825E+01 
    1.0408993474664257E+01 
    8.3692603125226146E+00 
    1.3868561219111312E+01 
    1.1798788715604802E+01 
    1.6901676613665721E+01 
    1.0171310144376653E+01 
    1.1303472905550640E+01 
    1.6145517268751110E+01 
    9.6014625809347933E+00 
    1.6621658385209560E+01 
    1.1628614413168165E+01 
    1.1233139832482683E+01 
    1.6312500595962977E+01 
    1.1786086560089315E+01 
    1.7168706281164607E+01 
    1.4097824336183475E+01 
    1.5185800257094392E+01 
    1.7131290914264099E+01 
    8.9337924679448317E+00 
    1.2002139797044363E+01 
    1.6305852234409706E+01 
    3.6197435327867797E+00 
    1.1827805324618213E+01 
    1.7095003509277369E+01 
    1.1261406363739358E+01 
    1.2868558971189138E+01 
    7.8579937209908790E+00 
    1.5955753198068228E+01 
    1.9352203479923354E+01 
    1.4615397492833614E+01 
    1.1261516412385498E+01 
    1.0188656797726619E+01 
    1.2516012525803262E+01 
    1.1645440571509926E+01 
    8.1594911240145844E+00 
    1.7125085744918231E+01 
    1.6311542512803616E+01 
    1.5961382026999905E+01 
    1.2316130613520842E+01 
    1.0373696713046279E+01 
    1.1483837443201155E+01 
    1.6777865697290874E+01 
    1.0630023717374110E+01 
    1.1730264725239911E+01 
    1.0798787151725705E+01 
    1.3591893530151580E+01 
    1.9340247241260442E+01 
    1.5952571743112204E+01 
    1.0374269510330391E+01 
    1.6517838641879109E+01 
    1.6409356326827560E+01 
    1.6493450503493104E+01 
    1.7563869893365805E+01 
    1.8128246738250763E+01 
    1.6606330607621128E+01 
    1.1747717746858815E+01 
    1.2653372468803990E+01 
    1.6426787717912489E+01 
    1.6917573723244978E+01 
    8.5206239195084859E+00 
    1.5983393006807633E+01 
    1.6738149150184334E+01 
    8.2850781304481469E+00 
    1.7483042827711930E+01 
    1.7455997653160004E+01 
    1.5670319891046599E+01 
    1.2077053483548385E+01 
    3.2141791419958099E+00 
    1.7094619947497733E+01 
    1.1919928299170461E+01 
    1.7226912570720820E+01 
    1.1190487300156629E+01 
    1.6903891132752726E+01 
    1.1597555571392810E+00 
    1.5182744610149538E+01 
    1.1225224593993335E+01 
    1.0329072219724722E+01 
    1.0076672455317434E+01 
    1.1597257801262817E+01 
    1.2780398395755851E+01 
    1.2198453574083626E+01 
    8.4347538532732091E+00 
    1.6907541852498547E+01 
    1.6326353002584085E+01 
    1.3640669555944758E+01 
    1.1971551218827852E+01 
    1.8352102268880413E+00 
    9.3323735179661238E+00 
    6.5755296342216933E+00 
    1.7109208989324877E+01 
    1.3007945006514198E+01 
    1.6336575038951889E+01 
    1.6399726603264526E+01 
    1.0706046675283249E+01 
    1.3572489915784242E+01 
    1.5956050135669019E+01 
    1.7441235616035112E+01 
    7.8682948854200312E+00 
    1.4476413481887894E+01 
    1.2149517222138064E+01 
    6.9859886497724464E+00 
    1.0702147927397174E+01 
    1.4184001910782298E+01 
    1.6357263882144515E+01 
    1.1648394474278749E+01 
    1.6472033200856078E+01 
    1.6227259949824212E+01 
    1.6170526452798121E+01 
    1.1488008941581255E+01 
    1.0217683541651915E+01 
    1.5969821947285235E+01 
    1.0394047169070546E+01 
    1.1730241625271553E+01 
    1.0209081721299484E+01 
    1.1687503291065259E+01 
    1.6410934624840024E+01 
    7.3894996842944174E+00 
    1.0607914539841993E+01 
    1.7021928224781707E+01 
    1.1497036894953334E+01 
    1.2896842416230323E+01 
    7.5785587895790059E+00 
    1.0455742875645825E+01 
    1.6205268825163557E+01 
    1.6530357867019728E+01 
    6.2155714950017966E+00 
    1.1508315213794159E+01 
    1.0264685022569006E+01 
    1.7887642198435437E+01 
    1.7315094443260456E+01 
    1.8156998134415325E+01 
    1.1528257800599761E+01 
    1.6379787631297532E+01 
    1.5904497652242297E+01 
    1.1390277481900482E+01 
    1.5961983785099809E+01 
    1.1973184315225410E+01 
    7.0707041305895935E+00 
    1.1867782579995016E+01 
    1.7005375353080424E+01 
    1.5958581075239641E+01 
    8.0453834484593401E+00 
    1.5991016709187019E+01 
    1.2805761093788476E+01 
    1.1807304029012343E+01 
    1.1337466796384490E+01 
    1.5813175894740374E+01 
    1.2344628525408105E+01 
    1.5975736724575187E+01 
    1.1501552435758528E+01 
    7.3087759639784275E+00 
    1.1808945514635123E+01 
    1.0084280515671267E+01 
    1.4643120199747875E+01 
    1.7222321500196490E+01 
    1.5967268695827119E+01 
    1.7087835678307428E+01 
    1.1439891875647904E+01 
    7.8198079616364264E+00 
    7.9237313838158032E+00 
    1.2000084380776135E+01 
    1.1703078845586825E+01 
    1.7908371024420775E+00 
    1.5405344743509465E+01 
    1.7601579026570775E+01 
    1.1205708854846684E+01 
    7.3807854419798220E+00 
    1.3425102996831141E+01 
    1.5989322356477984E+01 
    8.6544968961845470E+00 
    5.9462660092008104E+00 
    1.1686100338670895E+01 
    1.6069244776717166E+01 
    1.6807578730582176E+01 
    1.6664680820865353E+01 
    1.6531662103118364E+01 
    8.5493222317931910E+00 
    1.1800882452772687E+01 
    1.5511004718301489E+01 
    9.2237786274768467E+00 
    1.6348521491878781E+01 
    1.3825107079272298E+01 
    8.0269822407369773E+00 
    1.6097815642454968E+01 
    1.7124045595743009E+01 
    1.6162289848662439E+01 
    8.3435501208720577E+00 
    1.1752045424482088E+01 
    9.1408819241308237E+00 
    1.1110023700147618E+01 
    1.5980011008413117E+01 
    1.5967029988286617E+01 
    8.3904263026151877E+00 
    1.6955188944569798E+01 
    1.2319523250431901E+01 
    1.5998828261538847E+01 
    1.6932132860441630E+01 
    1.5986860220915419E+01 
    1.4852895005543488E+01 
    1.7945129769518843E+01 
    1.1155471145745055E+01 
    1.7054270460399856E+01 
    1.6028622172578416E+01 
    1.7133302826001170E+01 
    1.6950714510897487E+01 
    1.1259554757301906E+01 
    1.1596732628827873E+01 
    1.1196512936276219E+01 
    1.4264641326164922E+01 
    4.8595331013388057E+00 
    1.1934019798946180E+01 
    1.8075065984195454E+01 
    1.1975297057748488E+01 
    1.2181635047828559E+01 
    1.7103994715436187E+01 
    1.7352834222320453E+01 
    1.1069351916195492E+01 
    1.5995924405709859E+01 
    1.5962513824908621E+01 
    1.2167774136534495E+01 
    1.6904250705277907E+01 
    8.4328755403034688E+00 
    5.4374858977192080E+00 
    1.2480644174702810E+01 
    1.1988861944615035E+01 
    1.5968319700110484E+01 
    7.8692380377493816E+00 
    1.6583738139255669E+01 
    5.5488209631839958E+00 
    1.1924292303424165E+01 
    1.1285615213350724E+01 
    1.1729202498642335E+01 
    1.9389628147129006E+01 
    4.7229174196913828E+00 
    1.1846349917153802E+01 
    1.4120188363187225E+01 
    1.1336091747528251E+01 
    9.3219214673221398E+00 
    1.6716864225629916E+01 
    1.8959503539161140E+01 
    1.6868688579697366E+01 
    1.1783091541985598E+01 
    6.9493645168338949E+00 
    1.8800036414277255E+01 
    1.6321113047698660E+01 
    8.8363027645850760E+00 
    1.1411874815705515E+01 
    1.7545270937508764E+01 
    4.0081799721019946E+00 
    1.2045619125801773E+01 
    1.6859509645106307E+01 
    1.1744080784607261E+01 
    1.0265875638466428E+01 
    1.1888503884270477E+01 
    1.5685011768900216E+01 
    1.1726306920005063E+01 
    6.2028652653744674E+00 
    1.1506211289790378E+00 
    8.8261250710575396E+00 
    1.7782017820916082E+01 
    1.1195594804992457E+01 
    1.3208899276596398E+01 
    1.2673570645855245E+01 
    1.4501434814226911E+01 
    1.1757630232175222E+01 
    1.6226234519797504E+01 
    1.9403784222385379E+01 
    1.3991453601610539E+01 
    1.7023883482797483E+01 
    6.6552515104268373E-01 
    1.5969265039969224E+01 
    6.8533403580346963E+00 
    1.8247795300655984E+01 
    1.1860798210570559E+01 
    1.0464020494554621E+01 
    9.3141060222568957E+00 
    6.5025528189146700E+00 
    1.3075041514705305E+01 
    9.3348296303891658E+00 
    1.4532184069386195E+01 
    2.7293676209983389E+00 
    1.2846271433736232E+01 
    1.5892660126403035E+01 
    7.1963876276649268E+00 
    1.6456378964440415E+01 
    1.8050913766754309E+01 
    1.6305183623582622E+01 
    1.1718207328396145E+01 
    1.1723336734287763E+01 
    1.1853071964123718E+01 
    7.0300855647301406E+00 
    1.0912610066267684E+01 
    1.0750532254872541E+01 
    1.1841449029670937E+01 
    1.1125349023858957E+01 
    8.5608325137793173E-01 
    7.8053368484950747E+00 
    1.1526844378556170E+01 
    1.1814930839134464E+01 
    1.4910425890374526E+01 
    2.6198912765982336E+00 
    1.2123169101417911E+01 
    1.1995973916224248E+01 
    4.5414597561153593E+00 
    1.6158288515435366E+01 
    1.0400025491694409E+01 
    1.1855460072248883E+01 
    1.6323952907818072E+01 
    6.5283549820254310E+00 
    1.6275890419144279E+01 
    1.0534510112351439E+01 
    1.1862156516619093E+00 
    1.1258843181503652E+01 
    1.6973708203124040E+01 
    1.5968874804766953E+01 
    1.5988829920209598E+01 
    1.2218339592314852E+01 
    1.1927353239007052E+01 
    1.0390199207938267E+01 
    8.4607200026730194E+00 
    1.6442265072939776E+01 
    1.1406728134635552E+01 
    8.2416475163265570E+00 
    1.5984093244300523E+01 
    1.6730601061262316E+01 
    1.2023582090834042E+01 
    1.1545063043544763E+01 
    1.9283102551392432E+01 
    1.2168818234511594E+01 
    1.6453742309853233E+01 
    9.9092785509924735E+00 
    1.9431674420127781E+01 
    7.8765948567673814E+00 
    1.0797555489356288E+01 
    8.8087148165784477E+00 
    1.2425623176263338E+01 
    1.0026313024063079E+01 
    1.9415322747065037E+01 
    1.2222138240301559E+01 
    1.5613607521526788E+01 
    8.1001511881308694E+00 
    1.1752277315234952E+01 
    1.6281672789444126E+01 
    1.0081177902377833E+01 
    8.8456515175456172E+00 
    1.3152796838655703E+01 
    1.6512273732863946E+01 
    8.6515511816589772E+00 
    1.1308135773668738E+01 
    1.1580620209432478E+01 
    1.5942488865693436E+01 
    1.1360095864520114E+01 
    1.6490017488503092E+01 
    1.7164527371870694E+01 
    1.0421284862401004E+01 
    1.0228604478582218E+01 
    9.3577142853060327E+00 
    1.6097084939456632E+01 
    1.2030607025939887E+01 
    1.8995799894004204E+01 
    1.4909916079068989E+01 
    1.6242744506923053E+01 
    1.8671775172954792E+01 
    1.8052143726989534E+01 
    1.1798789036977469E+01 
    1.1825429893241019E+01 
    1.5691278574312895E+01 
    1.6011309419069118E+01 
    1.6627718244115211E+01 
    1.6345939792583309E+01 
    1.9306082535520584E+01 
    1.2168286411903269E+01 
    1.0528006014436736E+01 
    1.2171091656445519E+01 
    1.7070268699645403E+01 
    1.1892857229080194E+01 
    7.0695122778794861E+00 
    1.1701198566702162E+01 
    1.7515932127650981E+01 
    1.2034875684837059E+01 
    1.0535790874592649E+01 
    1.1521976375201307E+01 
    1.7630573342863542E+01 
    1.6063664685655709E+01 
    1.0078418135198836E+01 
    1.7776414941549852E+01 
    1.1826854460862261E+01 
    1.6603630223047912E+01 
    1.7646150315683183E+01 
    1.2456574957338399E+01 
    6.5416452929603208E+00 
    1.2930923253890562E+01 
    6.7568315954301417E+00 
    1.1942110796659835E+01 
    1.1748487197297063E+01 
    1.3603106816437011E+01 
    7.1423192787992242E+00 
    1.4479357499774840E+01 
    1.1764903163063700E+01 
    1.6333850412245376E+01 
    1.2591743502353859E+01 
    9.9148097228716647E+00 
    1.1384216784991276E+01 
    1.2380678959197118E+01 
    1.2283551319779006E+01 
    1.7218253907560374E+01 
    1.0099983241856235E+01 
    9.9313095345770446E+00 
    7.5168714202199185E+00 
    1.6652070514943844E+01 
    1.1429915304374047E+01 
    1.5845850532114934E+01 
    1.1717400300634898E+01 
    8.2088450219641373E+00 
    1.6107694521414583E+01 
    1.1694173654283718E+01 
    8.8982779613641956E+00 
    9.3886349933922002E+00 
    9.6997173740958136E+00 
    1.6369581274856749E+01 
    1.1843548418732150E+01 
    1.7036895180936462E+01 
    1.1654935408830257E+01 
    1.1594754542120773E+01 
    1.1222767817660095E+01 
    1.6197001407388228E+01 
    1.1510058202991909E+01 
    9.7465173593510634E+00 
    1.8038986861186608E+01 
    1.6285881439936070E+01 
    8.2476099456937231E+00 
    3.3202775537113065E+00 
    1.1832439067902097E+01 
    1.1064267103885715E+01 
    1.0226236185824586E+01 
    1.1013696351058528E+01 
    1.6196657086196470E+01 
    1.1524440773688811E+01 
    1.0568034389403358E+01 
    1.6035485598345833E+01 
    8.1702115492184344E+00 
    1.5652871209929094E+01 
    1.0680473915855535E+01 
    9.7480089060860546E+00 
    1.0314819191604000E+01 
    1.6694371051188000E+01 
    1.1731779881346219E+01 
    1.1740066295623844E+01 
    7.2253072158110774E+00 
    7.7895499890169297E+00 
    1.4754729436910974E+01 
    1.1749810073388529E+01 
    1.1874556462325101E+01 
    1.7759927671655223E+01 
    9.9258127138385852E+00 
    1.1761929258839302E+01 
    8.4440898206461714E+00 
    8.7035540442178085E+00 
    1.6190555170836507E+01 
    1.1386907648683177E+01 
    8.5601813931200823E+00 
    1.2320787374171850E+01 
    1.1651499707450572E+01 
    1.6194752957677757E+01 
    1.7857195206005169E+01 
    1.2620447299051698E+00 
    1.1837580138294241E+01 
    1.1987462938967054E+01 
    1.6261732931845167E+01 
    1.1331951717723287E+01 
    1.1704717980103259E+01 
    1.7279642278009327E+01 
    1.0354270724734992E+01 
    8.6342181158600084E+00 
    1.4017231790165260E+01 
    1.5984090341484944E+01 
    1.7132177359062901E+01 
    1.7410611855263419E+01 
    1.1672042130490803E+01 
    1.1828672777393704E+01 
    1.3091807870276240E+01 
    7.8589191080205136E+00 
    1.6128181677380830E+01 
    9.2808057478958492E+00 
    8.1612866098165160E+00 
    1.4567514070510025E+01 
    1.3745298149592896E+01 
    8.0148746932474406E+00 
    1.6023669331965507E+01 
    1.7116814668321020E+01 
    1.2185809428747410E+01 
    1.7963142224321071E+01 
    1.6060718851415494E+01 
    1.1397555132516946E+01 
    1.6834022524036214E+01 
    8.6912567881459442E+00 
    1.6005074970657972E+01 
    1.1836486955999643E+01 
    1.1796024901455276E+01 
    1.7938767205042552E+01 
    1.1470122471214667E+01 
    1.4311167235795036E+01 
    1.0291631715179127E+01 
    1.7243407106364973E+01 
    1.5901306007362351E+01 
    1.0705581604599738E+01 
    1.5956019743114776E+01 
    1.0715031383666428E+01 
    1.1712198605820836E+01 
    1.7072463261696971E+01 
    1.6344791154709053E+01 
    1.7120240157429304E+01 
    1.6266625243440281E+01 
    1.0922989924098934E+01 
    1.1142642118739102E+01 
    1.7127836784603574E+01 
    1.1274379862900080E+01 
    1.5809536505809378E+01 
    1.1453003920844457E+01 
    4.9058352455406311E+00 
    8.2301744208122525E+00 
    7.6449864658955189E+00 
    1.7076320429376786E+01 
    1.7863893611564205E+01 
    1.5976597529192818E+01 
    1.3421863755169811E+01 
    1.6301933818437554E+01 
    1.6033046341272716E+01 
    1.6687887755291396E+01 
    6.9902637223451123E+00 
    4.5667806398562538E+00 
    1.3178979270153008E+01 
    1.1492704191926251E+01 
    1.6199688903852270E+01 
    1.6197088614113277E+01 
    1.2010097687189502E+01 
    1.6238446830442996E+01 
    1.1822703228593719E+01 
    1.1727815428846007E+01 
    6.3247365866276457E+00 
    4.5474398955810100E+00 
    1.7625427191509438E+01 
    9.2243289668610284E+00 
    1.0628892758117937E+01 
    1.1904063533175890E+01 
    1.9285263549900037E+01 
    1.1997263732648204E+01 
    1.2137062442308183E+01 
    5.1978564482475393E+00 
    1.1997581408134254E+01 
    1.2012115519452905E+01 
    1.6501065860769856E+01 
    1.0317109668929749E+01 
    1.1263361253982747E+01 
    1.7805065111729196E+01 
    1.1846275049547625E+01 
    1.5994503469008162E+01 
    1.6246097409039386E+01 
    1.4305388614942226E+01 
    1.0028350084886327E+01 
    1.6267522346757076E+01 
    1.1633481295218514E+01 
    1.6173905821486073E+01 
    1.5927648526536961E+01 
    1.7097432866021006E+01 
    1.6259208962439075E+01 
    1.5188875724898045E+01 
    1.1834474439162541E+01 
    7.9409893731016190E+00 
    1.9157965631985856E+01 
    9.4664229216363225E+00 
    1.7009810760220454E+01 
    1.1831768100398202E+01 
    9.9799530759555832E+00 
    6.0627523876668805E+00 
    1.2050094195975625E+01 
    1.6251416368197098E+01 
    1.6250085910211034E+01 
    1.1692541193463365E+01 
    1.1825688269162685E+01 
    1.8022604227404848E+01 
    1.7350342715665093E+01 
    1.2017311920269520E+01 
    4.2494528019222946E+00 
    1.5013276387262641E+01 
    1.9412657110133246E+01 
    1.1837940043233189E+01 
    1.3847096823469219E+01 
    1.1330289571120231E+01 
    1.9013418236934115E+01 
    1.7438151282012722E+01 
    1.7171938693327402E+01 
    1.2040110016242300E+01 
    5.5820328562711277E+00 
    1.1288029136001757E+01 
    1.1354839216968038E+01 
    1.1398022263451088E+01 
    4.6389894751331395E+00 