# vtk DataFile Version 2.0
Pressure Field Data 
ASCII 
DATASET UNSTRUCTURED_GRID 

POINTS 2860 double 

    0.0000000000000000E+00     0.0000000000000000E+00     0.0000000000000000E+00 
    1.0000000000000000E+00     0.0000000000000000E+00     0.0000000000000000E+00 
    1.0000000000000000E+00     1.0000000000000000E+00     0.0000000000000000E+00 
    0.0000000000000000E+00     1.0000000000000000E+00     0.0000000000000000E+00 
    2.5000000000000000E-01     2.5000000000000000E-01     0.0000000000000000E+00 
    7.5000000000000000E-01     2.5000000000000000E-01     0.0000000000000000E+00 
    7.5000000000000000E-01     7.5000000000000000E-01     0.0000000000000000E+00 
    2.5000000000000000E-01     7.5000000000000000E-01     0.0000000000000000E+00 
    3.1249999999942091E-02     0.0000000000000000E+00     0.0000000000000000E+00 
    6.2499999999873469E-02     0.0000000000000000E+00     0.0000000000000000E+00 
    9.3749999999826514E-02     0.0000000000000000E+00     0.0000000000000000E+00 
    1.2499999999977961E-01     0.0000000000000000E+00     0.0000000000000000E+00 
    1.5624999999968961E-01     0.0000000000000000E+00     0.0000000000000000E+00 
    1.8749999999959971E-01     0.0000000000000000E+00     0.0000000000000000E+00 
    2.1874999999950970E-01     0.0000000000000000E+00     0.0000000000000000E+00 
    2.4999999999941969E-01     0.0000000000000000E+00     0.0000000000000000E+00 
    2.8124999999932920E-01     0.0000000000000000E+00     0.0000000000000000E+00 
    3.1249999999923850E-01     0.0000000000000000E+00     0.0000000000000000E+00 
    3.4374999999914790E-01     0.0000000000000000E+00     0.0000000000000000E+00 
    3.7499999999905720E-01     0.0000000000000000E+00     0.0000000000000000E+00 
    4.0624999999896660E-01     0.0000000000000000E+00     0.0000000000000000E+00 
    4.3749999999887590E-01     0.0000000000000000E+00     0.0000000000000000E+00 
    4.6874999999878530E-01     0.0000000000000000E+00     0.0000000000000000E+00 
    4.9999999999869471E-01     0.0000000000000000E+00     0.0000000000000000E+00 
    5.3124999999877620E-01     0.0000000000000000E+00     0.0000000000000000E+00 
    5.6249999999885780E-01     0.0000000000000000E+00     0.0000000000000000E+00 
    5.9374999999893940E-01     0.0000000000000000E+00     0.0000000000000000E+00 
    6.2499999999902101E-01     0.0000000000000000E+00     0.0000000000000000E+00 
    6.5624999999910261E-01     0.0000000000000000E+00     0.0000000000000000E+00 
    6.8749999999918421E-01     0.0000000000000000E+00     0.0000000000000000E+00 
    7.1874999999926570E-01     0.0000000000000000E+00     0.0000000000000000E+00 
    7.4999999999934730E-01     0.0000000000000000E+00     0.0000000000000000E+00 
    7.8124999999942890E-01     0.0000000000000000E+00     0.0000000000000000E+00 
    8.1249999999951039E-01     0.0000000000000000E+00     0.0000000000000000E+00 
    8.4374999999959199E-01     0.0000000000000000E+00     0.0000000000000000E+00 
    8.7499999999967359E-01     0.0000000000000000E+00     0.0000000000000000E+00 
    9.0624999999975520E-01     0.0000000000000000E+00     0.0000000000000000E+00 
    9.3749999999983680E-01     0.0000000000000000E+00     0.0000000000000000E+00 
    9.6874999999991840E-01     0.0000000000000000E+00     0.0000000000000000E+00 
    1.0000000000000000E+00     3.1249999999942091E-02     0.0000000000000000E+00 
    1.0000000000000000E+00     6.2499999999873469E-02     0.0000000000000000E+00 
    1.0000000000000000E+00     9.3749999999826514E-02     0.0000000000000000E+00 
    1.0000000000000000E+00     1.2499999999977961E-01     0.0000000000000000E+00 
    1.0000000000000000E+00     1.5624999999968961E-01     0.0000000000000000E+00 
    1.0000000000000000E+00     1.8749999999959971E-01     0.0000000000000000E+00 
    1.0000000000000000E+00     2.1874999999950970E-01     0.0000000000000000E+00 
    1.0000000000000000E+00     2.4999999999941969E-01     0.0000000000000000E+00 
    1.0000000000000000E+00     2.8124999999932920E-01     0.0000000000000000E+00 
    1.0000000000000000E+00     3.1249999999923850E-01     0.0000000000000000E+00 
    1.0000000000000000E+00     3.4374999999914790E-01     0.0000000000000000E+00 
    1.0000000000000000E+00     3.7499999999905720E-01     0.0000000000000000E+00 
    1.0000000000000000E+00     4.0624999999896660E-01     0.0000000000000000E+00 
    1.0000000000000000E+00     4.3749999999887590E-01     0.0000000000000000E+00 
    1.0000000000000000E+00     4.6874999999878530E-01     0.0000000000000000E+00 
    1.0000000000000000E+00     4.9999999999869471E-01     0.0000000000000000E+00 
    1.0000000000000000E+00     5.3124999999877620E-01     0.0000000000000000E+00 
    1.0000000000000000E+00     5.6249999999885780E-01     0.0000000000000000E+00 
    1.0000000000000000E+00     5.9374999999893940E-01     0.0000000000000000E+00 
    1.0000000000000000E+00     6.2499999999902101E-01     0.0000000000000000E+00 
    1.0000000000000000E+00     6.5624999999910261E-01     0.0000000000000000E+00 
    1.0000000000000000E+00     6.8749999999918421E-01     0.0000000000000000E+00 
    1.0000000000000000E+00     7.1874999999926570E-01     0.0000000000000000E+00 
    1.0000000000000000E+00     7.4999999999934730E-01     0.0000000000000000E+00 
    1.0000000000000000E+00     7.8124999999942890E-01     0.0000000000000000E+00 
    1.0000000000000000E+00     8.1249999999951039E-01     0.0000000000000000E+00 
    1.0000000000000000E+00     8.4374999999959199E-01     0.0000000000000000E+00 
    1.0000000000000000E+00     8.7499999999967359E-01     0.0000000000000000E+00 
    1.0000000000000000E+00     9.0624999999975520E-01     0.0000000000000000E+00 
    1.0000000000000000E+00     9.3749999999983680E-01     0.0000000000000000E+00 
    1.0000000000000000E+00     9.6874999999991840E-01     0.0000000000000000E+00 
    9.6875000000003686E-01     1.0000000000000000E+00     0.0000000000000000E+00 
    9.3750000000011691E-01     1.0000000000000000E+00     0.0000000000000000E+00 
    9.0625000000015765E-01     1.0000000000000000E+00     0.0000000000000000E+00 
    8.7500000000017863E-01     1.0000000000000000E+00     0.0000000000000000E+00 
    8.4375000000028044E-01     1.0000000000000000E+00     0.0000000000000000E+00 
    8.1250000000040856E-01     1.0000000000000000E+00     0.0000000000000000E+00 
    7.8125000000054956E-01     1.0000000000000000E+00     0.0000000000000000E+00 
    7.5000000000066480E-01     1.0000000000000000E+00     0.0000000000000000E+00 
    7.1875000000086831E-01     1.0000000000000000E+00     0.0000000000000000E+00 
    6.8750000000102829E-01     1.0000000000000000E+00     0.0000000000000000E+00 
    6.5625000000114431E-01     1.0000000000000000E+00     0.0000000000000000E+00 
    6.2500000000129829E-01     1.0000000000000000E+00     0.0000000000000000E+00 
    5.9375000000147926E-01     1.0000000000000000E+00     0.0000000000000000E+00 
    5.6250000000168354E-01     1.0000000000000000E+00     0.0000000000000000E+00 
    5.3125000000188671E-01     1.0000000000000000E+00     0.0000000000000000E+00 
    5.0000000000205835E-01     1.0000000000000000E+00     0.0000000000000000E+00 
    4.6875000000192979E-01     1.0000000000000000E+00     0.0000000000000000E+00 
    4.3750000000180111E-01     1.0000000000000000E+00     0.0000000000000000E+00 
    4.0625000000167238E-01     1.0000000000000000E+00     0.0000000000000000E+00 
    3.7500000000154382E-01     1.0000000000000000E+00     0.0000000000000000E+00 
    3.4375000000141509E-01     1.0000000000000000E+00     0.0000000000000000E+00 
    3.1250000000128642E-01     1.0000000000000000E+00     0.0000000000000000E+00 
    2.8125000000115769E-01     1.0000000000000000E+00     0.0000000000000000E+00 
    2.5000000000102918E-01     1.0000000000000000E+00     0.0000000000000000E+00 
    2.1875000000090050E-01     1.0000000000000000E+00     0.0000000000000000E+00 
    1.8750000000077180E-01     1.0000000000000000E+00     0.0000000000000000E+00 
    1.5625000000064329E-01     1.0000000000000000E+00     0.0000000000000000E+00 
    1.2500000000051459E-01     1.0000000000000000E+00     0.0000000000000000E+00 
    9.3750000000385914E-02     1.0000000000000000E+00     0.0000000000000000E+00 
    6.2500000000257239E-02     1.0000000000000000E+00     0.0000000000000000E+00 
    3.1250000000128557E-02     1.0000000000000000E+00     0.0000000000000000E+00 
    0.0000000000000000E+00     9.6875000000003686E-01     0.0000000000000000E+00 
    0.0000000000000000E+00     9.3750000000011691E-01     0.0000000000000000E+00 
    0.0000000000000000E+00     9.0625000000015765E-01     0.0000000000000000E+00 
    0.0000000000000000E+00     8.7500000000017863E-01     0.0000000000000000E+00 
    0.0000000000000000E+00     8.4375000000028044E-01     0.0000000000000000E+00 
    0.0000000000000000E+00     8.1250000000040856E-01     0.0000000000000000E+00 
    0.0000000000000000E+00     7.8125000000054956E-01     0.0000000000000000E+00 
    0.0000000000000000E+00     7.5000000000066480E-01     0.0000000000000000E+00 
    0.0000000000000000E+00     7.1875000000086831E-01     0.0000000000000000E+00 
    0.0000000000000000E+00     6.8750000000102829E-01     0.0000000000000000E+00 
    0.0000000000000000E+00     6.5625000000114431E-01     0.0000000000000000E+00 
    0.0000000000000000E+00     6.2500000000129829E-01     0.0000000000000000E+00 
    0.0000000000000000E+00     5.9375000000147926E-01     0.0000000000000000E+00 
    0.0000000000000000E+00     5.6250000000168354E-01     0.0000000000000000E+00 
    0.0000000000000000E+00     5.3125000000188671E-01     0.0000000000000000E+00 
    0.0000000000000000E+00     5.0000000000205835E-01     0.0000000000000000E+00 
    0.0000000000000000E+00     4.6875000000192979E-01     0.0000000000000000E+00 
    0.0000000000000000E+00     4.3750000000180111E-01     0.0000000000000000E+00 
    0.0000000000000000E+00     4.0625000000167238E-01     0.0000000000000000E+00 
[...]
CELL_DATA 2795 
SCALARS Pressure double 1 
LOOKUP_TABLE default 

    5.1526431733847904E+00 
    1.1620959478172121E+01 
    8.2283363347729015E+00 
    7.8583878303296535E+00 
    6.2917056179631690E+00 
    1.1525608602527379E+01 
    1.2136351250573069E+01 
    4.6148934666405497E+00 
    8.6872970500845224E+00 
    6.6216894784003246E+00 
    5.6345977399978420E+00 
    1.1316366400232701E+01 
    1.1537286708547253E+01 
    1.1499890152276489E+01 
    7.5629515569274490E+00 
    4.5362692797846584E+00 
    7.2399022691756274E+00 
    6.0028056150966700E+00 
    1.1021060424407141E+01 
    8.2231601965702374E+00 
    8.1162003123664608E+00 
    1.1446300165687177E+01 
    7.6397364876809544E+00 
    3.1324390511500455E-01 
    1.1288664898539315E+01 
    1.1516888679645064E+01 
    1.2164288718864910E+01 
    5.4233157915970960E+00 
    1.1251275673963638E+01 
    1.2152060220552311E+01 
    8.3283058654880247E+00 
    8.4421138207060995E+00 
    5.8256171788373106E+00 
    8.1900479408739404E+00 
    2.6836186458773512E+00 
    7.2422006647935788E+00 
    8.1822178759908297E+00 
    1.2186435356940626E+01 
    1.2118086437589733E+01 
    1.1327077421248065E+01 
    6.2314438724022754E+00 
    1.1271859108868931E+01 
    6.4951916450016689E-01 
    8.0663495279178932E+00 
    1.1952852534818307E+01 
    1.1810056004699826E+01 
    1.1307589419258127E+01 
    8.9874365628335156E+00 
    1.1365569945728122E+01 
    7.4018380734952505E+00 
    7.0605783051020712E+00 
    8.4088345343898627E+00 
    7.9645344318229041E+00 
    7.2812912872049420E+00 
    8.4060915455282164E+00 
    1.0850490024383509E+01 
    9.8111345469087006E+00 
    6.3244086405818560E+00 
    1.1449456049766432E+01 
    1.1387746641176969E+01 
    7.9192391135613427E+00 
    7.9044927265958513E+00 
    7.7782877623615043E+00 
    1.2068409102305834E+01 
    1.2289481485611667E+01 
    7.2491210121024015E+00 
    8.4070634332424632E+00 
    1.1234895823940278E+01 
    9.6225237564482207E+00 
    7.9279843241540657E+00 
    1.2303350432359810E+01 
    1.1383223089070944E+01 
    7.1484365352559074E+00 
    1.1892566247630754E+01 
    8.6438452921108748E+00 
    1.1166567224275040E+01 
    1.2198890223864920E+01 
    8.4826795375665824E+00 
    5.1908613359390561E+00 
    8.4227333205086659E+00 
    1.2124462786088870E+01 
    1.2321304064214637E+01 
    7.2676364407708522E+00 
    8.3432749576549270E+00 
    1.2361390167782776E+01 
    8.1874575451041380E+00 
    7.7098478372200665E+00 
    9.9551764998381032E+00 
    4.9906791958281929E+00 
    7.0814301115733889E+00 
    8.3442844222599657E+00 
    8.8017245911133788E+00 
    1.3680030577314991E+01 
    6.1181844930744793E+00 
    8.4138097487868606E+00 
    1.1289959286573817E+01 
    1.1495861759585914E+01 
    5.4039409666421312E+00 
    8.0656123411158767E+00 
    8.3733804013763660E+00 
    1.1513536955820566E+01 
    8.3755467354306781E+00 
    1.1455863655310896E+01 
    3.3205458647746733E+00 
    5.4753710709132513E+00 
    8.5971502446796215E+00 
    1.1628665501011495E+01 
    7.2135777048366574E+00 
    7.7411068298821188E+00 
    8.3616056540401278E+00 
    7.6881245771088729E+00 
    9.5423284043961267E+00 
    7.5177181972855784E+00 
    7.1548564327060751E+00 
    5.6554153020507210E+00 
    9.7082889443679417E+00 
    8.4441231738666236E+00 
    1.1993702211543553E+01 
    7.2080504736388669E+00 
    7.8502981817545843E+00 
    1.1374143631905005E+01 
    6.5740587799852861E+00 
    1.1755777618861874E+01 
    8.2659102272265894E+00 
    7.7874685793875100E+00 
    1.1498030068424558E+01 
    8.4337622127338747E+00 
    1.2207945814612890E+01 
    9.9646408614027528E+00 
    1.0727861430558068E+01 
    1.2178780822626837E+01 
    6.1298699823445864E+00 
    8.6112696849555448E+00 
    1.1501525870096522E+01 
    2.4949847242859837E+00 
    8.3833532964458595E+00 
    1.2150264015666554E+01 
    7.8172015364141565E+00 
    9.0133711421301772E+00 
    5.3339068746048559E+00 
    1.1290611217489694E+01 
    1.4134269804751655E+01 
    1.0340926363676303E+01 
    7.8099291658337444E+00 
    6.9996007223525343E+00 
    9.0033866985015152E+00 
    8.2825738852346262E+00 
    5.6960065782787668E+00 
    1.2172547252239204E+01 
    1.1592156163291829E+01 
    1.1291500560491663E+01 
    8.8173185763691286E+00 
    7.1286693419123068E+00 
    8.1160989436735704E+00 
    1.1915962955776115E+01 
    7.3202161266029879E+00 
    8.1904950425770799E+00 
    7.4514508075587056E+00 
    9.5117566595819358E+00 
    1.4123270549276011E+01 
    1.1284087807145013E+01 
    7.0581901612863236E+00 
    1.1660671358452085E+01 
    1.1593497114444141E+01 
    1.1662142660236610E+01 
    1.2533646629315927E+01 
    1.3019431997523505E+01 
    1.1804983508056814E+01 
    8.3999346843260234E+00 
    8.9085249879397015E+00 
    1.1661544675863251E+01 
    1.2005976317366503E+01 
    5.9358001546434815E+00 
    1.1307024605222372E+01 
    1.1883593666409828E+01 
    5.7884064776476123E+00 
    1.2452004615539302E+01 
    1.2445451606953110E+01 
    1.1077690948733318E+01 
    8.6635508882463217E+00 
    2.2242468057702665E+00 
    1.2147822595556404E+01 
    8.5468414945657418E+00 
    1.2251912718761622E+01 
    7.7634248250686797E+00 
    1.2002289793509334E+01 
    7.8895155877865297E-01 
    1.0742498867802970E+01 
    7.9381088391354444E+00 
    7.0964896230531345E+00 
    6.9185240158531967E+00 
    8.2369255820232716E+00 
    9.2421141312599691E+00 
    8.5056063437993306E+00 
    5.7005285829289774E+00 
    1.2000013824364036E+01 
    1.1523011353279598E+01 
    9.7245636226656309E+00 
    8.5894277193869950E+00 
    1.2775392962393162E+00 
    6.4054085251197588E+00 
    4.4579244964980598E+00 
    1.2162293745501268E+01 
    9.3626128492540115E+00 
    1.1578391117666689E+01 
    1.1579217632198192E+01 
    7.4038974936636190E+00 
    9.7545130824610951E+00 
    1.1286919556027135E+01 
    1.2431121661082436E+01 
    5.3340719288642280E+00 
    1.0164769208189531E+01 
    8.5416934657057926E+00 
    4.7557765727719126E+00 
    7.3799168098251533E+00 
    1.0162970686829176E+01 
    1.1546793812138727E+01 
    8.2921133346075955E+00 
    1.1642376409264262E+01 
    1.1440334151994204E+01 
    1.1397910326935854E+01 
    8.1239926884319598E+00 
    7.0672232351636639E+00 
    1.1298801779819945E+01 
    7.1456892930544331E+00 
    8.3800568473202670E+00 
    7.0092480922518741E+00 
    8.1403888977130734E+00 
    1.1586557029879048E+01 
    5.1626419539073929E+00 
    7.3106824994946082E+00 
    1.2090135865275409E+01 
    8.1391405739305451E+00 
    9.2636428261167811E+00 
    5.2974915594033360E+00 
    7.1927398816752159E+00 
    1.1421897531580253E+01 
    1.1690502212352019E+01 
    4.3367586762029990E+00 
    8.1392341806850652E+00 
    7.0434724587264137E+00 
    1.2807433827858969E+01 
    1.2329002473848801E+01 
    1.3041843417540329E+01 
    8.1596665688286922E+00 
    1.1564142071667623E+01 
    1.1251600547530181E+01 
    8.0452968003944676E+00 
    1.1291437904017723E+01 
    8.5892358259255364E+00 
    4.7866249502912668E+00 
    8.3370371892087221E+00 
    1.2076753792964546E+01 
    1.1288737870103679E+01 
    5.6082740262391386E+00 
    1.1312790225803520E+01 
    9.2451670346970740E+00 
    8.3676243495671656E+00 
    7.8941948362728853E+00 
    1.1179481307446366E+01 
    8.8368366427482474E+00 
    1.1302586271417077E+01 
    8.0241435199481153E+00 
    4.9061577809046755E+00 
    8.4420419927852919E+00 
    6.9263908032280614E+00 
    1.0342699322206231E+01 
    1.2251490341212762E+01 
    1.1298546614462849E+01 
    1.2143751919139634E+01 
    8.0933082805030896E+00 
    5.4638819744376228E+00 
    5.5402946542881830E+00 
    8.5580187408315336E+00 
    8.3574367437539081E+00 
    1.2186507532082196E+00 
    1.0891395402334462E+01 
    1.2558634239504981E+01 
    7.7685378987506182E+00 
    5.0208627596397655E+00 
    9.4540187266847191E+00 
    1.1311483621773366E+01 
    5.9326738418918197E+00 
    4.0699148956451072E+00 
    8.3333252864693694E+00 
    1.1400039302005473E+01 
    1.1917153049414852E+01 
    1.1822677457628062E+01 
    1.1694203184653789E+01 
    5.7891558353444053E+00 
    8.3553407652846605E+00 
    1.0895444503569356E+01 
    6.5018159004126659E+00 
    1.1526248603164222E+01 
    9.9339457642266247E+00 
    5.6177121466244673E+00 
    1.1399805446212760E+01 
    1.2153132276007080E+01 
    1.1388186667262607E+01 
    5.7222937321510408E+00 
    8.4036540128306711E+00 
    6.2723726959387305E+00 
    7.9145122242336754E+00 
    1.1304614504362714E+01 
    1.1295054379439410E+01 
    5.7545508129992466E+00 
    1.2037329868037466E+01 
    8.8650258411766263E+00 
    1.1334327325548992E+01 
    1.2011184888098169E+01 
    1.1318121257623350E+01 
    1.0541792118650047E+01 
    1.2851554027445907E+01 
    7.7501200284365650E+00 
    1.2118118153748716E+01 
    1.1358806036651263E+01 
    1.2179691850101159E+01 
    1.2032050386166739E+01 
    7.8311347474924098E+00 
    8.2225051361547532E+00 
    7.7588757318600567E+00 
    1.0142083297533631E+01 
    3.3288994694824878E+00 
    8.4849178101546947E+00 
    1.2967258916247067E+01 
    8.5938676441628896E+00 
    8.7570398046616749E+00 
    1.2155840459925772E+01 
    1.2364267978625353E+01 
    7.7431124160794624E+00 
    1.1316265721006404E+01 
    1.1292675555828025E+01 
    8.7462380378821187E+00 
    1.1993749161263089E+01 
    5.9060482218953814E+00 
    3.7932859635597733E+00 
    8.9916147788184499E+00 
    8.6056460266500778E+00 
    1.1296404782623227E+01 
    5.3909741385579748E+00 
    1.1753339886344593E+01 
    3.8628414976919925E+00 
    8.5508995307062374E+00 
    7.9234059912552857E+00 
    8.3826982990462220E+00 
    1.4172094811754929E+01 
    3.2364547589300687E+00 
    8.4023883768912402E+00 
    9.8809255296710230E+00 
    8.0047995246032073E+00 
    6.2890823852208513E+00 
    1.1857626953597826E+01 
    1.3765361872548430E+01 
    1.1976554077528588E+01 
    8.3468615106020447E+00 
    4.7424189283463996E+00 
    1.3625816200851174E+01 
    1.1512686725660704E+01 
    5.8998965104740222E+00 
    7.9258926033590358E+00 
    1.2519188092977503E+01 
    2.7465001063617169E+00 
    8.6500648760012560E+00 
    1.1947324164846613E+01 
    8.3958217806748063E+00 
    7.2808582772009052E+00 
    8.4432177155935690E+00 
    1.1070428683702342E+01 
    8.3774475179777337E+00 
    4.2417378021199825E+00 
    7.7386909887963407E-01 
    6.2019973248249727E+00 
    1.2707519874297994E+01 
    7.7570903689813351E+00 
    9.5154710984268451E+00 
    9.1366296880020688E+00 
    1.0372226783958883E+01 
    8.4093206760952270E+00 
    1.1435064138151391E+01 
    1.4185573085061515E+01 
    9.8789879680376860E+00 
    1.2094442260623698E+01 
    4.6266746298258310E-01 
    1.1296568822042179E+01 
    4.5999297636511596E+00 
    1.3122454650342462E+01 
    8.4160145899407546E+00 
    7.3860123208676685E+00 
    6.3918865293598399E+00 
    4.4542078586546179E+00 
    9.3438579023230766E+00 
    6.5703618428429049E+00 
    1.0255549303666383E+01 
    1.8907346090663071E+00 
    9.2734822744213563E+00 
    1.1240962315764138E+01 
    5.0304465191432177E+00 
    1.1698871039298748E+01 
    1.2959945033196950E+01 
    1.1581448815553838E+01 
    8.2910005085229148E+00 
    8.3778287514421823E+00 
    8.4087823406295996E+00 
    4.8137799384534610E+00 
    7.5367073182467630E+00 
    7.4122984819097759E+00 
    8.3977950163902761E+00 
    7.7071066531864982E+00 
    5.8281528960808604E-01 
    5.2561745583835640E+00 
    8.0218388633480959E+00 
    8.3744058318419530E+00 
    1.0536934113708611E+01 
    1.7958968129930566E+00 
    8.7111526178306793E+00 
    8.6106416227216727E+00 
    3.1150186698272879E+00 
    1.1475529686748759E+01 
    7.1701332732346650E+00 
    8.4924043462452978E+00 
    1.1509389543445177E+01 
    4.4671749945111623E+00 
    1.1564645841843236E+01 
    7.2484193447314027E+00 
    8.1763573380217214E-01 
    7.8099747882683568E+00 
    1.2049146360758165E+01 
    1.1297096236411400E+01 
    1.1316275799430212E+01 
    8.7568665022846641E+00 
    8.5536757143617255E+00 
    7.1437139619709091E+00 
    5.7034185326529645E+00 
    1.1602260534976269E+01 
    7.9262730726445270E+00 
    5.5056193289285424E+00 
    1.1309674425664847E+01 
    1.1883342840556248E+01 
    8.5739713740138193E+00 
    8.1833471151515322E+00 
    1.4073734347210044E+01 
    8.7469931415688436E+00 
    1.1619844682614247E+01 
    6.7996309333272427E+00 
    1.4213581496360110E+01 
    5.5076814481685004E+00 
    7.5222429863941764E+00 
    6.1630827169837925E+00 
    8.9471049123241038E+00 
    7.0740313102272916E+00 
    1.4197818357867719E+01 
    8.7886392017748687E+00 
    1.1018693701089299E+01 
    5.6644710160695899E+00 
    8.4041181769857456E+00 
    1.1483877045992436E+01 
    7.0951162673126706E+00 
    5.9672723787705140E+00 
    9.1812829653619925E+00 
    1.1695690992150160E+01 
    6.0779885223763639E+00 
    7.9389136131367257E+00 
    8.2067474549737351E+00 
    1.1276510010480926E+01 
    8.0341091623039542E+00 
    1.1660830354369859E+01 
    1.2204970129157600E+01 
    7.1652296917326934E+00 
    7.0270908277971529E+00 
    6.6029182401655939E+00 
    1.1394167206792034E+01 
    8.6078444508602416E+00 
    1.3800447096078138E+01 
    1.0752508327273929E+01 
    1.1448716752355200E+01 
    1.3509275531129743E+01 
    1.2962534865218656E+01 
    8.4471289459128656E+00 
    8.3834533092031069E+00 
    1.1102737477096943E+01 
    1.1327544618242719E+01 
    1.1751489258867823E+01 
    1.1530384869500999E+01 
    1.4090921389672721E+01 
    8.7465905241234498E+00 
    7.2494124673873461E+00 
    8.7109054248661817E+00 
    1.2130040374602283E+01 
    8.5256940556061878E+00 
    4.9237811678006871E+00 
    8.2761133353024992E+00 
    1.2490824086496538E+01 
    8.6418480632842609E+00 
    7.2512994602032803E+00 
    8.1493014373724098E+00 
    1.2588109720454586E+01 
    1.1318317165601943E+01 
    6.8922479804811907E+00 
    1.2711878515410676E+01 
    8.4707947550000817E+00 
    1.1750301386166599E+01 
    1.2601519444652485E+01 
    8.8198389154024888E+00 
    4.4626016727528892E+00 
    9.1560077022338273E+00 
    4.6132049652859459E+00 
    8.5663648834566253E+00 
    8.3983245576808496E+00 
    9.6290246322580622E+00 
    4.8734826891623788E+00 
    1.0223564053149357E+01 
    8.4163070851108337E+00 
    1.1521896392650001E+01 
    8.7825969683568328E+00 
    6.6782060420586413E+00 
    8.0382977840969279E+00 
    8.8797262554254033E+00 
    8.8374084370069301E+00 
    1.2240437386345356E+01 
    6.9333109567802866E+00 
    6.8161401929024859E+00 
    5.1185321250930444E+00 
    1.1775887005236156E+01 
    8.0751942907914351E+00 
    1.1146468390753158E+01 
    8.3686396811011221E+00 
    5.5862729241156819E+00 
    1.1342742807981876E+01 
    8.3441597821966447E+00 
    6.0808055450148233E+00 
    6.4346857756208413E+00 
    6.6566837197009949E+00 
    1.1547931814849013E+01 
    8.3997353003817583E+00 
    1.2103322813074447E+01 
    8.3030300825715262E+00 
    8.2427555295913209E+00 
    7.8612893523742580E+00 
    1.1411596715898966E+01 
    8.1634013086936559E+00 
    6.6897118553739796E+00 
    1.2949445636248607E+01 
    1.1479026058829785E+01 
    5.7698836021562938E+00 
    2.2860330005233140E+00 
    8.3888504288178094E+00 
    7.8103620505266189E+00 
    7.0239280338492760E+00 
    7.6878872938659910E+00 
    1.1463802098650447E+01 
    8.1190239720614983E+00 
    7.3080529361920377E+00 
    1.1345711842410768E+01 
    5.7178529695355733E+00 
    1.1069889761050979E+01 
    7.5442301302444550E+00 
    6.6241685348089128E+00 
    7.0884014782135454E+00 
    1.1823824744985689E+01 
    8.3855069715593178E+00 
    8.3928656769712937E+00 
    4.9487611574940855E+00 
    5.3384742705905692E+00 
    1.0497248770646729E+01 
    8.4018373027244984E+00 
    8.4313307202405348E+00 
    1.2696211333216041E+01 
    6.8156040154828093E+00 
    8.4125180089358089E+00 
    5.9176486612272221E+00 
    6.1028014029036406E+00 
    1.1403997069913459E+01 
    8.0607760989886685E+00 
    5.8708202413981834E+00 
    8.8182067955612773E+00 
    8.2833168975055038E+00 
    1.1407340310540679E+01 
    1.2780125489572853E+01 
    8.9388462244456712E-01 
    8.3936123997573979E+00 
    8.6044065337615780E+00 
    1.1462192556446761E+01 
    7.8742399707015425E+00 
    8.3611025667001666E+00 
    1.2285954204684552E+01 
    7.1141359253540273E+00 
    5.9208823938187374E+00 
    1.0151243089265403E+01 
    1.1308322580798642E+01 
    1.2180725015200935E+01 
    1.2408984441239939E+01 
    8.2424111295230897E+00 
    8.3861207965159412E+00 
    9.3991724586630063E+00 
    5.4844365403414868E+00 
    1.1412715524657139E+01 
    6.3697205237612389E+00 
    5.7100095348143842E+00 
    1.0488005287674065E+01 
    9.8521148586765452E+00 
    5.6001550924196257E+00 
    1.1338498637033990E+01 
    1.2167435335977080E+01 
    8.7602900539172239E+00 
    1.2871260509100258E+01 
    1.1364805767340046E+01 
    7.9680125869487508E+00 
    1.1937537900586745E+01 
    6.1079105309539248E+00 
    1.1322963092576845E+01 
    8.3929309422136686E+00 
    8.3515464530429124E+00 
    1.2846723709770721E+01 
    8.1025371363967835E+00 
    1.0236079203670570E+01 
    7.0730438179067576E+00 
    1.2269024693188744E+01 
    1.1246109817500642E+01 
    7.3720142335378833E+00 
    1.1289851814342770E+01 
    7.5465644618095657E+00 
    8.3704491139986175E+00 
    1.2132423829372375E+01 
    1.1523426532943683E+01 
    1.2170542373340927E+01 
    1.1464971243419207E+01 
    7.5488408068695012E+00 
    7.7570729242263523E+00 
    1.2175750239804977E+01 
    7.8644144403670335E+00 
    1.1189836809997281E+01 
    8.0970398503644532E+00 
    3.3514029762173640E+00 
    5.7660545872855948E+00 
    5.3447617038681594E+00 
    1.2135021735561846E+01 
    1.2784698879525255E+01 
    1.1305146719633470E+01 
    9.7346488447773414E+00 
    1.1540900474052656E+01 
    1.1343332977391857E+01 
    1.1835963143554602E+01 
    4.7811249706843295E+00 
    3.1299519511584197E+00 
    9.5512917520024239E+00 
    8.0234321822994410E+00 
    1.1465305237157715E+01 
    1.1463183580395539E+01 
    8.6183844675833647E+00 
    1.1494136660321853E+01 
    8.3807689975810558E+00 
    8.2452197697585881E+00 
    4.3299624048188878E+00 
    3.1202784594680701E+00 
    1.2585044537928326E+01 
    6.4881519343512091E+00 
    7.3206545644281356E+00 
    8.5336929371216943E+00 
    1.4073938881773017E+01 
    8.6128175057485130E+00 
    8.5942808547875842E+00 
    3.5256567130036736E+00 
    8.6131930996525696E+00 
    8.6246162143066538E+00 
    1.1725393000397357E+01 
    7.0970544552419499E+00 
    7.9769080164307207E+00 
    1.2735831857531238E+01 
    8.4016916532897792E+00 
    1.1318474052346749E+01 
    1.1528343744444138E+01 
    1.0383524201913762E+01 
    7.0540826327542314E+00 
    1.1464466000395442E+01 
    8.1860487566668283E+00 
    1.1483826383042375E+01 
    1.1265132573182115E+01 
    1.2151777763123670E+01 
    1.1463066109107617E+01 
    1.0781227953142993E+01 
    8.3911954829967694E+00 
    5.5548338325563256E+00 
    1.3954139065526569E+01 
    6.4986001315345581E+00 
    1.2082770498770559E+01 
    8.3885569616158513E+00 
    6.8659909737260039E+00 
    4.1261251458301560E+00 
    8.6531383226482479E+00 
    1.1453422954029904E+01 
    1.1449705523897116E+01 
    8.3520910826277532E+00 
    8.3825905776709444E+00 
    1.2925664994973308E+01 
    1.2358770386506690E+01 
    8.6290834643159595E+00 
    2.9143140365783657E+00 
    1.0763508124071636E+01 
    1.4196594184170060E+01 
    8.3945745299180601E+00 
    1.0050806198846947E+01 
    7.8685547260204842E+00 
    1.3821734186738988E+01 
    1.2429549433502437E+01 
    1.2195933082701782E+01 
    8.6476143795567300E+00 
    3.8572680215458846E+00 
    7.8313594866802543E+00 
    7.8942478276600294E+00 
    7.9463822112048552E+00 
    3.1662659067832508E+00 