# vtk DataFile Version 2.0
Pressure Field Data 
ASCII 
DATASET UNSTRUCTURED_GRID 

POINTS 2860 double 

    0.0000000000000000E+00     0.0000000000000000E+00     0.0000000000000000E+00 
    1.0000000000000000E+00     0.0000000000000000E+00     0.0000000000000000E+00 
    1.0000000000000000E+00     1.0000000000000000E+00     0.0000000000000000E+00 
    0.0000000000000000E+00     1.0000000000000000E+00     0.0000000000000000E+00 
    2.5000000000000000E-01     2.5000000000000000E-01     0.0000000000000000E+00 
    7.5000000000000000E-01     2.5000000000000000E-01     0.0000000000000000E+00 
    7.5000000000000000E-01     7.5000000000000000E-01     0.0000000000000000E+00 
    2.5000000000000000E-01     7.5000000000000000E-01     0.0000000000000000E+00 
    3.1249999999942091E-02     0.0000000000000000E+00     0.0000000000000000E+00 
    6.2499999999873469E-02     0.0000000000000000E+00     0.0000000000000000E+00 
    9.3749999999826514E-02     0.0000000000000000E+00     0.0000000000000000E+00 
    1.2499999999977961E-01     0.0000000000000000E+00     0.0000000000000000E+00 
    1.5624999999968961E-01     0.0000000000000000E+00     0.0000000000000000E+00 
    1.8749999999959971E-01     0.0000000000000000E+00     0.0000000000000000E+00 
    2.1874999999950970E-01     0.0000000000000000E+00     0.0000000000000000E+00 
    2.4999999999941969E-01     0.0000000000000000E+00     0.0000000000000000E+00 
    2.8124999999932920E-01     0.0000000000000000E+00     0.0000000000000000E+00 
    3.1249999999923850E-01     0.0000000000000000E+00     0.0000000000000000E+00 
    3.4374999999914790E-01     0.0000000000000000E+00     0.0000000000000000E+00 
    3.7499999999905720E-01     0.0000000000000000E+00     0.0000000000000000E+00 
    4.0624999999896660E-01     0.0000000000000000E+00     0.0000000000000000E+00 
    4.3749999999887590E-01     0.0000000000000000E+00     0.0000000000000000E+00 
    4.6874999999878530E-01     0.0000000000000000E+00     0.0000000000000000E+00 
    4.9999999999869471E-01     0.0000000000000000E+00     0.0000000000000000E+00 
    5.3124999999877620E-01     0.0000000000000000E+00     0.0000000000000000E+00 
    5.6249999999885780E-01     0.0000000000000000E+00     0.0000000000000000E+00 
    5.9374999999893940E-01     0.0000000000000000E+00     0.0000000000000000E+00 
    6.2499999999902101E-01     0.0000000000000000E+00     0.0000000000000000E+00 
    6.5624999999910261E-01     0.0000000000000000E+00     0.0000000000000000E+00 
    6.8749999999918421E-01     0.0000000000000000E+00     0.0000000000000000E+00 
    7.1874999999926570E-01     0.0000000000000000E+00     0.0000000000000000E+00 
    7.4999999999934730E-01     0.0000000000000000E+00     0.0000000000000000E+00 
    7.8124999999942890E-01     0.0000000000000000E+00     0.0000000000000000E+00 
    8.1249999999951039E-01     0.0000000000000000E+00     0.0000000000000000E+00 
    8.4374999999959199E-01     0.0000000000000000E+00     0.0000000000000000E+00 
    8.7499999999967359E-01     0.0000000000000000E+00     0.0000000000000000E+00 
    9.0624999999975520E-01     0.0000000000000000E+00     0.0000000000000000E+00 
    9.3749999999983680E-01     0.0000000000000000E+00     0.0000000000000000E+00 
    9.6874999999991840E-01     0.0000000000000000E+00     0.0000000000000000E+00 
    1.0000000000000000E+00     3.1249999999942091E-02     0.0000000000000000E+00 
    1.0000000000000000E+00     6.2499999999873469E-02     0.0000000000000000E+00 
    1.0000000000000000E+00     9.3749999999826514E-02     0.0000000000000000E+00 
    1.0000000000000000E+00     1.2499999999977961E-01     0.0000000000000000E+00 
    1.0000000000000000E+00     1.5624999999968961E-01     0.0000000000000000E+00 
    1.0000000000000000E+00     1.8749999999959971E-01     0.0000000000000000E+00 
    1.0000000000000000E+00     2.1874999999950970E-01     0.0000000000000000E+00 
    1.0000000000000000E+00     2.4999999999941969E-01     0.0000000000000000E+00 
    1.0000000000000000E+00     2.8124999999932920E-01     0.0000000000000000E+00 
    1.0000000000000000E+00     3.1249999999923850E-01     0.0000000000000000E+00 
    1.0000000000000000E+00     3.4374999999914790E-01     0.0000000000000000E+00 
    1.0000000000000000E+00     3.7499999999905720E-01     0.0000000000000000E+00 
    1.0000000000000000E+00     4.0624999999896660E-01     0.0000000000000000E+00 
    1.0000000000000000E+00     4.3749999999887590E-01     0.0000000000000000E+00 
    1.0000000000000000E+00     4.6874999999878530E-01     0.0000000000000000E+00 
    1.0000000000000000E+00     4.9999999999869471E-01     0.0000000000000000E+00 
    1.0000000000000000E+00     5.3124999999877620E-01     0.0000000000000000E+00 
    1.0000000000000000E+00     5.6249999999885780E-01     0.0000000000000000E+00 
    1.0000000000000000E+00     5.9374999999893940E-01     0.0000000000000000E+00 
    1.0000000000000000E+00     6.2499999999902101E-01     0.0000000000000000E+00 
    1.0000000000000000E+00     6.5624999999910261E-01     0.0000000000000000E+00 
    1.0000000000000000E+00     6.8749999999918421E-01     0.0000000000000000E+00 
    1.0000000000000000E+00     7.1874999999926570E-01     0.0000000000000000E+00 
    1.0000000000000000E+00     7.4999999999934730E-01     0.0000000000000000E+00 
    1.0000000000000000E+00     7.8124999999942890E-01     0.0000000000000000E+00 
    1.0000000000000000E+00     8.1249999999951039E-01     0.0000000000000000E+00 
    1.0000000000000000E+00     8.4374999999959199E-01     0.0000000000000000E+00 
    1.0000000000000000E+00     8.7499999999967359E-01     0.0000000000000000E+00 
    1.0000000000000000E+00     9.0624999999975520E-01     0.0000000000000000E+00 
    1.0000000000000000E+00     9.3749999999983680E-01     0.0000000000000000E+00 
    1.0000000000000000E+00     9.6874999999991840E-01     0.0000000000000000E+00 
    9.6875000000003686E-01     1.0000000000000000E+00     0.0000000000000000E+00 
    9.3750000000011691E-01     1.0000000000000000E+00     0.0000000000000000E+00 
    9.0625000000015765E-01     1.0000000000000000E+00     0.0000000000000000E+00 
    8.7500000000017863E-01     1.0000000000000000E+00     0.0000000000000000E+00 
    8.4375000000028044E-01     1.0000000000000000E+00     0.0000000000000000E+00 
    8.1250000000040856E-01     1.0000000000000000E+00     0.0000000000000000E+00 
    7.8125000000054956E-01     1.0000000000000000E+00     0.0000000000000000E+00 
    7.5000000000066480E-01     1.0000000000000000E+00     0.0000000000000000E+00 
    7.1875000000086831E-01     1.0000000000000000E+00     0.0000000000000000E+00 
    6.8750000000102829E-01     1.0000000000000000E+00     0.0000000000000000E+00 
    6.5625000000114431E-01     1.0000000000000000E+00     0.0000000000000000E+00 
    6.2500000000129829E-01     1.0000000000000000E+00     0.0000000000000000E+00 
    5.9375000000147926E-01     1.0000000000000000E+00     0.0000000000000000E+00 
    5.6250000000168354E-01     1.0000000000000000E+00     0.0000000000000000E+00 
    5.3125000000188671E-01     1.0000000000000000E+00     0.0000000000000000E+00 
    5.0000000000205835E-01     1.0000000000000000E+00     0.0000000000000000E+00 
    4.6875000000192979E-01     1.0000000000000000E+00     0.0000000000000000E+00 
    4.3750000000180111E-01     1.0000000000000000E+00     0.0000000000000000E+00 
    4.0625000000167238E-01     1.0000000000000000E+00     0.0000000000000000E+00 
    3.7500000000154382E-01     1.0000000000000000E+00     0.0000000000000000E+00 
    3.4375000000141509E-01     1.0000000000000000E+00     0.0000000000000000E+00 
    3.1250000000128642E-01     1.0000000000000000E+00     0.0000000000000000E+00 
    2.8125000000115769E-01     1.0000000000000000E+00     0.0000000000000000E+00 
    2.5000000000102918E-01     1.0000000000000000E+00     0.0000000000000000E+00 
    2.1875000000090050E-01     1.0000000000000000E+00     0.0000000000000000E+00 
    1.8750000000077180E-01     1.0000000000000000E+00     0.0000000000000000E+00 
    1.5625000000064329E-01     1.0000000000000000E+00     0.0000000000000000E+00 
    1.2500000000051459E-01     1.0000000000000000E+00     0.0000000000000000E+00 
    9.3750000000385914E-02     1.0000000000000000E+00     0.0000000000000000E+00 
    6.2500000000257239E-02     1.0000000000000000E+00     0.0000000000000000E+00 
    3.1250000000128557E-02     1.0000000000000000E+00     0.0000000000000000E+00 
    0.0000000000000000E+00     9.6875000000003686E-01     0.0000000000000000E+00 
    0.0000000000000000E+00     9.3750000000011691E-01     0.0000000000000000E+00 
    0.0000000000000000E+00     9.0625000000015765E-01     0.0000000000000000E+00 
    0.0000000000000000E+00     8.7500000000017863E-01     0.0000000000000000E+00 
    0.0000000000000000E+00     8.4375000000028044E-01     0.0000000000000000E+00 
    0.0000000000000000E+00     8.1250000000040856E-01     0.0000000000000000E+00 
    0.0000000000000000E+00     7.8125000000054956E-01     0.0000000000000000E+00 
    0.0000000000000000E+00     7.5000000000066480E-01     0.0000000000000000E+00 
    0.0000000000000000E+00     7.1875000000086831E-01     0.0000000000000000E+00 
    0.0000000000000000E+00     6.8750000000102829E-01     0.0000000000000000E+00 
    0.0000000000000000E+00     6.5625000000114431E-01     0.0000000000000000E+00 
    0.0000000000000000E+00     6.2500000000129829E-01     0.0000000000000000E+00 
    0.0000000000000000E+00     5.9375000000147926E-01     0.0000000000000000E+00 
    0.0000000000000000E+00     5.6250000000168354E-01     0.0000000000000000E+00 
    0.0000000000000000E+00     5.3125000000188671E-01     0.0000000000000000E+00 
    0.0000000000000000E+00     5.0000000000205835E-01     0.0000000000000000E+00 
    0.0000000000000000E+00     4.6875000000192979E-01     0.0000000000000000E+00 
    0.0000000000000000E+00     4.3750000000180111E-01     0.0000000000000000E+00 
    0.0000000000000000E+00     4.0625000000167238E-01     0.0000000000000000E+00 
[...]
CELL_DATA 2795 
SCALARS Pressure double 1 
LOOKUP_TABLE default 

    7.7840696138961540E+00 
    2.0073811754189659E+01 
    1.3013485835285662E+01 
    1.2601183406453389E+01 
    9.6943691779019545E+00 
    1.9535355254016455E+01 
    2.1027376342168488E+01 
    6.8932635738122272E+00 
    1.3696971124517002E+01 
    1.0308194281128092E+01 
    8.6830487488068968E+00 
    1.9116385562057854E+01 
    1.9820602635677588E+01 
    1.9485742299111532E+01 
    1.1903990573386711E+01 
    6.7699730198576624E+00 
    1.1388443755582431E+01 
    9.2863328280940340E+00 
    1.8445489566803676E+01 
    1.2991588411290358E+01 
    1.2857263861181144E+01 
    1.9352315947859505E+01 
    1.2180743423840227E+01 
    4.4726156506245801E-01 
    1.9210570209443869E+01 
    1.9865388881049626E+01 
    2.1101942310980103E+01 
    8.3269267041800692E+00 
    1.8967956571549113E+01 
    2.1103378800091310E+01 
    1.3247549713540792E+01 
    1.3255432174080967E+01 
    9.0210964041326243E+00 
    1.2966053947930060E+01 
    4.0217953207925641E+00 
    1.1394989214322216E+01 
    1.2948218844409936E+01 
    2.1166099441834657E+01 
    2.1001659610678242E+01 
    1.9137100665187248E+01 
    9.6050379716235579E+00 
    1.9311216542541203E+01 
    9.2828860270532787E-01 
    1.2946581309328083E+01 
    2.0652971594462713E+01 
    2.0248173536615464E+01 
    1.9099562470973360E+01 
    1.4212285286659313E+01 
    1.9112681730683505E+01 
    1.1685598451332741E+01 
    1.1057508185542586E+01 
    1.3211660497201793E+01 
    1.2805149931346161E+01 
    1.1464022433219750E+01 
    1.3350761071113645E+01 
    1.8072574684598724E+01 
    1.5662429534159397E+01 
    9.7497369418240627E+00 
    1.9376606769645019E+01 
    1.9226450617303872E+01 
    1.2575997996705819E+01 
    1.2477833375356653E+01 
    1.2454495202450207E+01 
    2.0937685542712966E+01 
    2.1391168268061655E+01 
    1.1403970538359120E+01 
    1.3210024356604929E+01 
    1.8726708038577854E+01 
    1.5448001085888754E+01 
    1.2532163830411605E+01 
    2.1352062087594504E+01 
    1.9507184152915563E+01 
    1.1221068779185471E+01 
    2.0416327692742030E+01 
    1.3695825238187375E+01 
    1.9014244203263459E+01 
    2.1212624743460513E+01 
    1.3737118952855285E+01 
    7.9225062858411279E+00 
    1.3233127035761731E+01 
    2.0998811685170555E+01 
    2.1419391618482329E+01 
    1.1449827510983489E+01 
    1.3135523867885215E+01 
    2.1498530424435902E+01 
    1.2947605324882788E+01 
    1.2320324438432657E+01 
    1.6110232208240337E+01 
    7.5457249789060441E+00 
    1.1091606153770288E+01 
    1.3132976258772349E+01 
    1.3890487414617358E+01 
    2.3565900781816978E+01 
    9.4050056663289894E+00 
    1.3220038045871854E+01 
    1.9070019133101699E+01 
    1.9719806964495259E+01 
    8.2037033096479846E+00 
    1.2771532060285420E+01 
    1.3173758617908215E+01 
    1.9768730028949626E+01 
    1.3166842206026217E+01 
    1.9627280339558720E+01 
    4.8624969005127667E+00 
    8.4317639949485681E+00 
    1.3497674485502756E+01 
    2.0096141543493783E+01 
    1.1338099490678390E+01 
    1.2247160175951709E+01 
    1.3142412192073557E+01 
    1.2275259880272875E+01 
    1.5143276587488858E+01 
    1.1860713120991754E+01 
    1.1229538669358959E+01 
    8.6519675761433525E+00 
    1.6132588225088192E+01 
    1.3259970045507584E+01 
    2.0807149052671285E+01 
    1.1266716941717512E+01 
    1.2572237132559666E+01 
    1.9527389079307259E+01 
    1.0197032756959198E+01 
    2.0300139275848803E+01 
    1.3042594125247401E+01 
    1.2468566226897188E+01 
    1.9733123810069060E+01 
    1.3248793806714117E+01 
    2.1208625650321579E+01 
    1.6146808219615995E+01 
    1.7779775254241159E+01 
    2.1131216164236566E+01 
    9.4232070027155768E+00 
    1.3522937679908386E+01 
    1.9798826743335223E+01 
    3.6139169806363718E+00 
    1.3318914127267774E+01 
    2.1073167985269126E+01 
    1.2510497033320307E+01 
    1.4762971310778074E+01 
    8.1253584866097981E+00 
    1.9107423181189095E+01 
    2.4200405807750375E+01 
    1.6906884450266602E+01 
    1.2510832452242040E+01 
    1.0949934267089684E+01 
    1.4294130265392793E+01 
    1.3064252168947483E+01 
    8.7744529729520107E+00 
    2.1126324759426076E+01 
    1.9718870043500925E+01 
    1.9075465513844222E+01 
    1.3896511874071653E+01 
    1.1183491635950329E+01 
    1.2852728643969646E+01 
    2.0452086426253384E+01 
    1.1539416278403818E+01 
    1.3182117366589695E+01 
    1.1807778118494845E+01 
    1.6006248039014583E+01 
    2.4185892526112418E+01 
    1.9049348571499269E+01 
    1.1110238366578526E+01 
    2.0115129835094056E+01 
    2.0020865814469570E+01 
    2.0162103004286458E+01 
    2.1817704757462355E+01 
    2.2619056463559037E+01 
    2.0194128443601890E+01 
    1.3199556008568271E+01 
    1.4495259096263297E+01 
    1.9838124985579483E+01 
    2.0779698836037770E+01 
    9.1748125759864863E+00 
    1.9090734195603439E+01 
    2.0360838749496821E+01 
    8.9257132220926749E+00 
    2.1726506972756081E+01 
    2.1653503322700441E+01 
    1.8558901398875680E+01 
    1.3614919619418842E+01 
    3.3184832644044513E+00 
    2.1065412406489354E+01 
    1.3418196619382659E+01 
    2.1328597296517792E+01 
    1.2406274918257697E+01 
    2.0688918848231399E+01 
    1.1622312088379256E+00 
    1.7770088645588707E+01 
    1.2536741137529951E+01 
    1.1123311092400959E+01 
    1.0800420189883182E+01 
    1.3002166140808216E+01 
    1.4588621543907232E+01 
    1.3815647562400972E+01 
    8.7839668239507134E+00 
    2.0792698456588290E+01 
    1.9863376409816734E+01 
    1.5622331181271520E+01 
    1.3485805263685384E+01 
    1.8153675852614186E+00 
    9.8896505538000685E+00 
    6.7024960381965668E+00 
    2.1125489718845536E+01 
    1.4990811691295187E+01 
    1.9657814974819871E+01 
    1.9967897401337602E+01 
    1.1701530350539995E+01 
    1.5789490153414327E+01 
    1.9041041311279542E+01 
    2.1637657878682052E+01 
    8.0979879523316853E+00 
    1.7004801989220763E+01 
    1.3780467080406817E+01 
    7.1578349754585320E+00 
    1.1670181720765544E+01 
    1.6654281667357260E+01 
    1.9908733464032835E+01 
    1.3069073314690622E+01 
    2.0114908537299726E+01 
    1.9677675304626401E+01 
    1.9601513914975939E+01 
    1.2859071743284213E+01 
    1.1062230151834965E+01 
    1.9093813458954514E+01 
    1.1215218834791274E+01 
    1.3175505528893478E+01 
    1.0960844548599660E+01 
    1.3117805944028452E+01 
    1.9971809285735365E+01 
    7.9372832786628100E+00 
    1.1537200272247189E+01 
    2.0961824673717331E+01 
    1.2872187503290442E+01 
    1.4836200664406922E+01 
    8.1425666317862895E+00 
    1.1313151527311502E+01 
    1.9635202840888876E+01 
    2.0211701342328432E+01 
    6.6434705794416757E+00 
    1.2884955427626728E+01 
    1.1030606479671672E+01 
    2.2286934172666953E+01 
    2.1442867216708940E+01 
    2.2667868093740182E+01 
    1.2911183017329998E+01 
    1.9941866761142567E+01 
    1.8941503151892569E+01 
    1.2733490894643927E+01 
    1.9069277976157164E+01 
    1.3486103022770521E+01 
    7.2545319448855761E+00 
    1.3378506210121861E+01 
    2.0970702831216670E+01 
    1.9061642364592835E+01 
    8.6306623197164516E+00 
    1.9106762937922003E+01 
    1.4628098513566368E+01 
    1.3289841947787634E+01 
    1.2620345957185030E+01 
    1.8806202173132700E+01 
    1.4053698645807296E+01 
    1.9096403840011813E+01 
    1.2856537114631776E+01 
    7.5210873521891752E+00 
    1.3268830706457768E+01 
    1.0819610912342513E+01 
    1.6943396893743557E+01 
    2.1287218303444416E+01 
    1.9102479513219929E+01 
    2.1051548391816063E+01 
    1.2799845700587802E+01 
    8.4072787962204920E+00 
    8.5310668086951722E+00 
    1.3563721010651573E+01 
    1.3142247732501581E+01 
    1.8246046574820132E+00 
    1.8121051425324556E+01 
    2.1893931277617678E+01 
    1.2427921685829205E+01 
    7.5821902415656863E+00 
    1.5573851508851513E+01 
    1.9094727205151500E+01 
    9.0936350992590995E+00 
    6.0406103538316991E+00 
    1.3118379921132417E+01 
    1.9296691246537140E+01 
    2.0663815473129773E+01 
    2.0212160456645755E+01 
    2.0228667974198174E+01 
    8.8570928053096747E+00 
    1.3280690685765824E+01 
    1.8496925758651308E+01 
    1.0107139560446150E+01 
    1.9795731087187395E+01 
    1.6139586003570987E+01 
    8.6578851434603248E+00 
    1.9191699447391489E+01 
    2.1146220701115649E+01 
    1.9439021098463577E+01 
    8.7404945482932757E+00 
    1.3205129860313258E+01 
    9.6632267592635888E+00 
    1.2417115389127442E+01 
    1.9090151985514563E+01 
    1.9073673060926865E+01 
    8.7924687033185975E+00 
    2.0758113929764974E+01 
    1.3962853896023502E+01 
    1.9197139180355727E+01 
    2.0870384518532632E+01 
    1.9142088466575050E+01 
    1.7293435297089591E+01 
    2.2382961441854327E+01 
    1.2356640952357766E+01 
    2.1001899063180858E+01 
    1.9205395280532660E+01 
    2.1135821992131604E+01 
    2.0737248099547930E+01 
    1.2507634940064685E+01 
    1.3000180590018479E+01 
    1.2413843799376270E+01 
    1.6456665019524991E+01 
    4.8860687917565828E+00 
    1.3469405885372932E+01 
    2.2559022200932894E+01 
    1.3493421940907682E+01 
    1.3774380410140138E+01 
    2.1078428341355828E+01 
    2.1462566479823224E+01 
    1.2246176293720024E+01 
    1.9110233995239792E+01 
    1.9080434571533772E+01 
    1.3755407741682500E+01 
    2.0638561862226659E+01 
    9.1203332991098112E+00 
    5.7806676757277753E+00 
    1.4182920046049503E+01 
    1.3510641549631304E+01 
    1.9055524801216233E+01 
    8.1827552408401196E+00 
    2.0053845856411787E+01 
    5.8953790808917352E+00 
    1.3427048738348448E+01 
    1.2551436588506009E+01 
    1.3175772336416323E+01 
    2.4243641534429560E+01 
    4.7383180466306039E+00 
    1.3345203691827916E+01 
    1.6497203782708269E+01 
    1.2665209188292961E+01 
    9.7401421128345493E+00 
    2.0370191817179450E+01 
    2.3681662815169130E+01 
    2.0662814227773492E+01 
    1.3255541495906652E+01 
    7.1169034969896847E+00 
    2.3516178402926755E+01 
    1.9817494121695940E+01 
    9.2752104221151956E+00 
    1.2729614917022156E+01 
    2.1787208298159491E+01 
    4.0165533062231962E+00 
    1.3588739035753095E+01 
    2.0713617956391126E+01 
    1.3193984990468696E+01 
    1.1383253871372125E+01 
    1.3404975376929299E+01 
    1.8659432658268233E+01 
    1.3171000759568665E+01 
    6.2985773468723867E+00 
    1.1473326772224426E+00 
    9.6071480362666382E+00 
    2.2147908701305134E+01 
    1.2412406603418944E+01 
    1.5272476232885799E+01 
    1.4516214622653870E+01 
    1.7080919303546512E+01 
    1.3210891564247110E+01 
    1.9646822639792855E+01 
    2.4259986430124243E+01 
    1.5984134424063427E+01 
    2.0946732774380532E+01 
    6.6950759646185432E-01 
    1.9072881560086092E+01 
    7.0129567979827687E+00 
    2.2790914186496291E+01 
    1.3365681497028254E+01 
    1.1604064292105834E+01 
    9.8695267054134224E+00 
    6.6361074382224920E+00 
    1.4887937578045795E+01 
    1.0222300381279423E+01 
    1.6771098292170837E+01 
    2.7841300005885175E+00 
    1.4684695493858047E+01 
    1.8927803674315438E+01 
    7.7300580408567736E+00 
    1.9939019646341578E+01 
    2.2435097399798764E+01 
    1.9731453731140469E+01 
    1.3163607006832452E+01 
    1.3168535054093448E+01 
    1.3354741089333407E+01 
    7.2180118161395281E+00 
    1.1972225758221436E+01 
    1.1720541439571466E+01 
    1.3338254141629202E+01 
    1.2308664858326814E+01 
    8.5842379410633751E-01 
    8.0865022094435872E+00 
    1.2892473633636406E+01 
    1.3300662199721643E+01 
    1.7345957763612908E+01 
    2.6234153528708259E+00 
    1.3694530862700807E+01 
    1.3521209946468151E+01 
    4.5541494784538088E+00 
    1.9459584930502245E+01 
    1.1264177192762133E+01 
    1.3338254290443931E+01 
    1.9784486818331263E+01 
    6.6559081652779275E+00 
    1.9635446483000571E+01 
    1.1405612610267221E+01 
    1.1805925223738043E+00 
    1.2506794007859169E+01 
    2.0842385396684389E+01 
    1.9085460433364478E+01 
    1.9127027373666284E+01 
    1.3872013765072358E+01 
    1.3430674732965839E+01 
    1.1223617589376472E+01 
    8.8269938989672756E+00 
    1.9948310917049341E+01 
    1.2721760292405980E+01 
    8.5815657607271962E+00 
    1.9109923019268361E+01 
    2.0454518172576705E+01 
    1.3597677199338349E+01 
    1.2934109549953980E+01 
    2.4115066394491269E+01 
    1.3756868837885234E+01 
    2.0028946704577315E+01 
    1.0594097445191121E+01 
    2.4289199176047568E+01 
    8.4810036290194120E+00 
    1.1864674449590675E+01 
    9.5474023850119334E+00 
    1.4108346650542565E+01 
    1.1071197246533981E+01 
    2.4271037902060961E+01 
    1.3829797508438434E+01 
    1.8642631468793617E+01 
    8.7249734654725710E+00 
    1.3205235171299455E+01 
    1.9769313962065077E+01 
    1.1110591393830379E+01 
    9.2112129895939727E+00 
    1.5121999335098286E+01 
    1.9938053987512863E+01 
    9.4102245838633483E+00 
    1.2582432908797154E+01 
    1.2979312557989303E+01 
    1.9035334603785355E+01 
    1.2700080372545832E+01 
    2.0163408904186142E+01 
    2.1188860548170275E+01 
    1.1250454536562623E+01 
    1.1000342937820479E+01 
    1.0272241326622055E+01 
    1.9266715919729240E+01 
    1.3539237854543179E+01 
    2.3731429996398759E+01 
    1.7538377109461798E+01 
    1.9679166758107364E+01 
    2.3342756585419252E+01 
    2.2436302509033563E+01 
    1.3263841678181468E+01 
    1.3315539135930251E+01 
    1.8575435221108641E+01 
    1.9131604075451257E+01 
    2.0236502942764876E+01 
    1.9842888077488531E+01 
    2.4144299769595552E+01 
    1.3756134453426721E+01 
    1.1423280046417217E+01 
    1.3711926357266011E+01 
    2.1020360759827749E+01 
    1.3385057495383332E+01 
    7.5414748112471264E+00 
    1.3139473221281591E+01 
    2.1755006015494523E+01 
    1.3573946141694082E+01 
    1.1418751402272513E+01 
    1.2902525504529399E+01 
    2.1919299204709517E+01 
    1.9457644115255441E+01 
    1.0764244902911191E+01 
    2.2125761402194630E+01 
    1.3300239109088457E+01 
    2.0336992605151657E+01 
    2.1935726085185639E+01 
    1.4218566595271263E+01 
    6.6685334978078910E+00 
    1.4895703843638870E+01 
    6.9068483470278714E+00 
    1.3448747995779343E+01 
    1.3197989326027278E+01 
    1.5853012104140522E+01 
    7.3244482228809584E+00 
    1.7070251853641636E+01 
    1.3220825461489913E+01 
    1.9831779939447127E+01 
    1.4402003809431744E+01 
    1.0465851959059334E+01 
    1.2724558514144839E+01 
    1.4103524658954086E+01 
    1.3913404033279422E+01 
    2.1317903698119512E+01 
    1.0824365193556410E+01 
    1.0614556419876260E+01 
    7.7278016239322778E+00 
    2.0320165897335038E+01 
    1.2783728180864140E+01 
    1.9009112640201064E+01 
    1.3159670970004342E+01 
    8.5069570535605141E+00 
    1.9440636671479396E+01 
    1.3129460249210799E+01 
    9.3450794325487614E+00 
    9.9538018086049060E+00 
    1.0340869183662088E+01 
    1.9868764247147880E+01 
    1.3341233672226469E+01 
    2.0947605386507618E+01 
    1.3078359777400880E+01 
    1.3000312214996031E+01 
    1.2460178487462574E+01 
    1.9593452379616075E+01 
    1.2891789137932125E+01 
    1.0393065455725530E+01 
    2.2426522466144320E+01 
    1.9723788633359788E+01 
    8.8957550957418814E+00 
    3.3127544630080905E+00 
    1.3325471032564824E+01 
    1.2329668843717686E+01 
    1.0990923641464997E+01 
    1.2164111149241508E+01 
    1.9387068231026227E+01 
    1.2888150729203852E+01 
    1.1513886726767627E+01 
    1.9170951960610019E+01 
    8.8155588876031707E+00 
    1.8519685763532891E+01 
    1.1873281075890679E+01 
    1.0302894128172820E+01 
    1.1119340677180309E+01 
    2.0489599680909365E+01 
    1.3179219149829336E+01 
    1.3189706184799412E+01 
    7.4439600608427900E+00 
    8.0943319849444482E+00 
    1.7478563627333095E+01 
    1.3202167851110788E+01 
    1.3385309812039454E+01 
    2.2110954014230163E+01 
    1.0619942046892341E+01 
    1.3217724711563934E+01 
    9.1417325190419465E+00 
    9.4547789459444989E+00 
    1.9523598711725644E+01 
    1.2737403521126149E+01 
    8.9871527343565223E+00 
    1.3898347296446405E+01 
    1.3071163087415599E+01 
    1.9551234508963535E+01 
    2.2248631611542983E+01 
    1.2474849028188268E+00 
    1.3332779993807073E+01 
    1.3509076195648076E+01 
    1.9699850922900982E+01 
    1.2613732709464433E+01 
    1.3145020714676123E+01 
    2.1387247068928147E+01 
    1.1153465620351183E+01 
    9.0724662426377893E+00 
    1.6286024199471012E+01 
    1.9103800762607175E+01 
    2.1134777712181378E+01 
    2.1582135137851516E+01 
    1.3097334056070704E+01 
    1.3320130252776437E+01 
    1.4962657767743721E+01 
    8.4321780299255575E+00 
    1.9299212832148495E+01 
    9.8299449163029458E+00 
    8.7988142336801687E+00 
    1.7036057390871061E+01 
    1.5832263910862874E+01 
    8.6203798607759055E+00 
    1.9159349561544165E+01 
    2.1107483243399244E+01 
    1.3780095217366162E+01 
    2.2400209764806501E+01 
    1.9208591291012709E+01 
    1.2705747940352540E+01 
    2.0503942227184798E+01 
    9.4547091109482704E+00 
    1.9120064260239101E+01 
    1.3331217105391108E+01 
    1.3273742763244114E+01 
    2.2373276401871617E+01 
    1.2834185145893189E+01 
    1.6603108112935452E+01 
    1.1083672938322236E+01 
    2.1313020333753691E+01 
    1.8948290982791210E+01 
    1.1630433078060280E+01 
    1.9094369414660950E+01 
    1.1879992728082293E+01 
    1.3155360198811117E+01 
    2.1034446746047170E+01 
    1.9794365820077001E+01 
    2.1112977030474799E+01 
    1.9700616703653040E+01 
    1.2005745785025367E+01 
    1.2339622933540401E+01 
    2.1125884682210945E+01 
    1.2529131931946136E+01 
    1.8769712199154046E+01 
    1.2814470969936073E+01 
    4.9347617911486967E+00 
    8.8986669851119338E+00 
    8.2261074855098055E+00 
    2.1036943077616915E+01 
    2.2261721414156238E+01 
    1.9106932651827467E+01 
    1.5469275360530727E+01 
    1.9579006662575203E+01 
    1.9161933662676763E+01 
    2.0319683372064897E+01 
    7.1668673078192606E+00 
    4.5836007149414622E+00 
    1.5132498661878003E+01 
    1.2843773928816715E+01 
    1.9404780380622100E+01 
    1.9402942664369878E+01 
    1.3534370533353114E+01 
    1.9461274966002968E+01 
    1.3311659213745438E+01 
    1.3178652283704722E+01 
    6.4371076929433872E+00 
    4.5573946738432323E+00 
    2.1908677257259388E+01 
    1.0095256565162789E+01 
    1.1547558024418713E+01 
    1.3400755773607319E+01 
    2.4119027937278734E+01 
    1.3522132066954445E+01 
    1.3761903092601964E+01 
    5.2492429328060153E+00 
    1.3521927058290974E+01 
    1.3540809307928773E+01 
    1.9987475538008539E+01 
    1.1131997507925497E+01 
    1.2590993604951707E+01 
    2.2172537060852420E+01 
    1.3345153760165156E+01 
    1.9125976369641162E+01 
    1.9544291486619102E+01 
    1.6697665010350406E+01 
    1.1063209502582609E+01 
    1.9693617065075927E+01 
    1.3042646477959295E+01 
    1.9454247569721602E+01 
    1.9007107428647245E+01 
    2.1075601538595983E+01 
    1.9714245846131412E+01 
    1.7805907682412123E+01 
    1.3328359049286535E+01 
    8.5563501981601657E+00 
    2.3961645047364247E+01 
    1.0053477131281520E+01 
    2.0966210354877617E+01 
    1.3324515674260290E+01 
    1.0704787338772322E+01 
    6.2208152634761040E+00 
    1.3590141651408041E+01 
    1.9678181517212831E+01 
    1.9651948612028082E+01 
    1.3130424073633622E+01 
    1.3315876948014139E+01 
    2.2460876293753799E+01 
    2.1489619054240649E+01 
    1.3549199687563659E+01 
    4.2650812533645288E+00 
    1.7658210725714806E+01 
    2.4265519761825900E+01 
    1.3333277685063686E+01 
    1.6057715040793770E+01 
    1.2612004411240866E+01 
    2.3780751620307562E+01 
    2.1623081599373688E+01 
    2.1214082625670333E+01 
    1.3579617258045644E+01 
    5.8295652579281647E+00 
    1.2550356705602049E+01 
    1.2646863266548536E+01 
    1.2707556013947110E+01 
    4.6774626396105523E+00 