# vtk DataFile Version 2.0
Pressure Field Data 
ASCII 
DATASET UNSTRUCTURED_GRID 

POINTS 2860 double 

    0.0000000000000000E+00     0.0000000000000000E+00     0.0000000000000000E+00 
    1.0000000000000000E+00     0.0000000000000000E+00     0.0000000000000000E+00 
    1.0000000000000000E+00     1.0000000000000000E+00     0.0000000000000000E+00 
    0.0000000000000000E+00     1.0000000000000000E+00     0.0000000000000000E+00 
    2.5000000000000000E-01     2.5000000000000000E-01     0.0000000000000000E+00 
    7.5000000000000000E-01     2.5000000000000000E-01     0.0000000000000000E+00 
    7.5000000000000000E-01     7.5000000000000000E-01     0.0000000000000000E+00 
    2.5000000000000000E-01     7.5000000000000000E-01     0.0000000000000000E+00 
    3.1249999999942091E-02     0.0000000000000000E+00     0.0000000000000000E+00 
    6.2499999999873469E-02     0.0000000000000000E+00     0.0000000000000000E+00 
    9.3749999999826514E-02     0.0000000000000000E+00     0.0000000000000000E+00 
    1.2499999999977961E-01     0.0000000000000000E+00     0.0000000000000000E+00 
    1.5624999999968961E-01     0.0000000000000000E+00     0.0000000000000000E+00 
    1.8749999999959971E-01     0.0000000000000000E+00     0.0000000000000000E+00 
    2.1874999999950970E-01     0.0000000000000000E+00     0.0000000000000000E+00 
    2.4999999999941969E-01     0.0000000000000000E+00     0.0000000000000000E+00 
    2.8124999999932920E-01     0.0000000000000000E+00     0.0000000000000000E+00 
    3.1249999999923850E-01     0.0000000000000000E+00     0.0000000000000000E+00 
    3.4374999999914790E-01     0.0000000000000000E+00     0.0000000000000000E+00 
    3.7499999999905720E-01     0.0000000000000000E+00     0.0000000000000000E+00 
    4.0624999999896660E-01     0.0000000000000000E+00     0.0000000000000000E+00 
    4.3749999999887590E-01     0.0000000000000000E+00     0.0000000000000000E+00 
    4.6874999999878530E-01     0.0000000000000000E+00     0.0000000000000000E+00 
    4.9999999999869471E-01     0.0000000000000000E+00     0.0000000000000000E+00 
    5.3124999999877620E-01     0.0000000000000000E+00     0.0000000000000000E+00 
    5.6249999999885780E-01     0.0000000000000000E+00     0.0000000000000000E+00 
    5.9374999999893940E-01     0.0000000000000000E+00     0.0000000000000000E+00 
    6.2499999999902101E-01     0.0000000000000000E+00     0.0000000000000000E+00 
    6.5624999999910261E-01     0.0000000000000000E+00     0.0000000000000000E+00 
    6.8749999999918421E-01     0.0000000000000000E+00     0.0000000000000000E+00 
    7.1874999999926570E-01     0.0000000000000000E+00     0.0000000000000000E+00 
    7.4999999999934730E-01     0.0000000000000000E+00     0.0000000000000000E+00 
    7.8124999999942890E-01     0.0000000000000000E+00     0.0000000000000000E+00 
    8.1249999999951039E-01     0.0000000000000000E+00     0.0000000000000000E+00 
    8.4374999999959199E-01     0.0000000000000000E+00     0.0000000000000000E+00 
    8.7499999999967359E-01     0.0000000000000000E+00     0.0000000000000000E+00 
    9.0624999999975520E-01     0.0000000000000000E+00     0.0000000000000000E+00 
    9.3749999999983680E-01     0.0000000000000000E+00     0.0000000000000000E+00 
    9.6874999999991840E-01     0.0000000000000000E+00     0.0000000000000000E+00 
    1.0000000000000000E+00     3.1249999999942091E-02     0.0000000000000000E+00 
    1.0000000000000000E+00     6.2499999999873469E-02     0.0000000000000000E+00 
    1.0000000000000000E+00     9.3749999999826514E-02     0.0000000000000000E+00 
    1.0000000000000000E+00     1.2499999999977961E-01     0.0000000000000000E+00 
    1.0000000000000000E+00     1.5624999999968961E-01     0.0000000000000000E+00 
    1.0000000000000000E+00     1.8749999999959971E-01     0.0000000000000000E+00 
    1.0000000000000000E+00     2.1874999999950970E-01     0.0000000000000000E+00 
    1.0000000000000000E+00     2.4999999999941969E-01     0.0000000000000000E+00 
    1.0000000000000000E+00     2.8124999999932920E-01     0.0000000000000000E+00 
    1.0000000000000000E+00     3.1249999999923850E-01     0.0000000000000000E+00 
    1.0000000000000000E+00     3.4374999999914790E-01     0.0000000000000000E+00 
    1.0000000000000000E+00     3.7499999999905720E-01     0.0000000000000000E+00 
    1.0000000000000000E+00     4.0624999999896660E-01     0.0000000000000000E+00 
    1.0000000000000000E+00     4.3749999999887590E-01     0.0000000000000000E+00 
    1.0000000000000000E+00     4.6874999999878530E-01     0.0000000000000000E+00 
    1.0000000000000000E+00     4.9999999999869471E-01     0.0000000000000000E+00 
    1.0000000000000000E+00     5.3124999999877620E-01     0.0000000000000000E+00 
    1.0000000000000000E+00     5.6249999999885780E-01     0.0000000000000000E+00 
    1.0000000000000000E+00     5.9374999999893940E-01     0.0000000000000000E+00 
    1.0000000000000000E+00     6.2499999999902101E-01     0.0000000000000000E+00 
    1.0000000000000000E+00     6.5624999999910261E-01     0.0000000000000000E+00 
    1.0000000000000000E+00     6.8749999999918421E-01     0.0000000000000000E+00 
    1.0000000000000000E+00     7.1874999999926570E-01     0.0000000000000000E+00 
    1.0000000000000000E+00     7.4999999999934730E-01     0.0000000000000000E+00 
    1.0000000000000000E+00     7.8124999999942890E-01     0.0000000000000000E+00 
    1.0000000000000000E+00     8.1249999999951039E-01     0.0000000000000000E+00 
    1.0000000000000000E+00     8.4374999999959199E-01     0.0000000000000000E+00 
    1.0000000000000000E+00     8.7499999999967359E-01     0.0000000000000000E+00 
    1.0000000000000000E+00     9.0624999999975520E-01     0.0000000000000000E+00 
    1.0000000000000000E+00     9.3749999999983680E-01     0.0000000000000000E+00 
    1.0000000000000000E+00     9.6874999999991840E-01     0.0000000000000000E+00 
    9.6875000000003686E-01     1.0000000000000000E+00     0.0000000000000000E+00 
    9.3750000000011691E-01     1.0000000000000000E+00     0.0000000000000000E+00 
    9.0625000000015765E-01     1.0000000000000000E+00     0.0000000000000000E+00 
    8.7500000000017863E-01     1.0000000000000000E+00     0.0000000000000000E+00 
    8.4375000000028044E-01     1.0000000000000000E+00     0.0000000000000000E+00 
    8.1250000000040856E-01     1.0000000000000000E+00     0.0000000000000000E+00 
    7.8125000000054956E-01     1.0000000000000000E+00     0.0000000000000000E+00 
    7.5000000000066480E-01     1.0000000000000000E+00     0.0000000000000000E+00 
    7.1875000000086831E-01     1.0000000000000000E+00     0.0000000000000000E+00 
    6.8750000000102829E-01     1.0000000000000000E+00     0.0000000000000000E+00 
    6.5625000000114431E-01     1.0000000000000000E+00     0.0000000000000000E+00 
    6.2500000000129829E-01     1.0000000000000000E+00     0.0000000000000000E+00 
    5.9375000000147926E-01     1.0000000000000000E+00     0.0000000000000000E+00 
    5.6250000000168354E-01     1.0000000000000000E+00     0.0000000000000000E+00 
    5.3125000000188671E-01     1.0000000000000000E+00     0.0000000000000000E+00 
    5.0000000000205835E-01     1.0000000000000000E+00     0.0000000000000000E+00 
    4.6875000000192979E-01     1.0000000000000000E+00     0.0000000000000000E+00 
    4.3750000000180111E-01     1.0000000000000000E+00     0.0000000000000000E+00 
    4.0625000000167238E-01     1.0000000000000000E+00     0.0000000000000000E+00 
    3.7500000000154382E-01     1.0000000000000000E+00     0.0000000000000000E+00 
    3.4375000000141509E-01     1.0000000000000000E+00     0.0000000000000000E+00 
    3.1250000000128642E-01     1.0000000000000000E+00     0.0000000000000000E+00 
    2.8125000000115769E-01     1.0000000000000000E+00     0.0000000000000000E+00 
    2.5000000000102918E-01     1.0000000000000000E+00     0.0000000000000000E+00 
    2.1875000000090050E-01     1.0000000000000000E+00     0.0000000000000000E+00 
    1.8750000000077180E-01     1.0000000000000000E+00     0.0000000000000000E+00 
    1.5625000000064329E-01     1.0000000000000000E+00     0.0000000000000000E+00 
    1.2500000000051459E-01     1.0000000000000000E+00     0.0000000000000000E+00 
    9.3750000000385914E-02     1.0000000000000000E+00     0.0000000000000000E+00 
    6.2500000000257239E-02     1.0000000000000000E+00     0.0000000000000000E+00 
    3.1250000000128557E-02     1.0000000000000000E+00     0.0000000000000000E+00 
    0.0000000000000000E+00     9.6875000000003686E-01     0.0000000000000000E+00 
    0.0000000000000000E+00     9.3750000000011691E-01     0.0000000000000000E+00 
    0.0000000000000000E+00     9.0625000000015765E-01     0.0000000000000000E+00 
    0.0000000000000000E+00     8.7500000000017863E-01     0.0000000000000000E+00 
    0.0000000000000000E+00     8.4375000000028044E-01     0.0000000000000000E+00 
    0.0000000000000000E+00     8.1250000000040856E-01     0.0000000000000000E+00 
    0.0000000000000000E+00     7.8125000000054956E-01     0.0000000000000000E+00 
    0.0000000000000000E+00     7.5000000000066480E-01     0.0000000000000000E+00 
    0.0000000000000000E+00     7.1875000000086831E-01     0.0000000000000000E+00 
    0.0000000000000000E+00     6.8750000000102829E-01     0.0000000000000000E+00 
    0.0000000000000000E+00     6.5625000000114431E-01     0.0000000000000000E+00 
    0.0000000000000000E+00     6.2500000000129829E-01     0.0000000000000000E+00 
    0.0000000000000000E+00     5.9375000000147926E-01     0.0000000000000000E+00 
    0.0000000000000000E+00     5.6250000000168354E-01     0.0000000000000000E+00 
    0.0000000000000000E+00     5.3125000000188671E-01     0.0000000000000000E+00 
    0.0000000000000000E+00     5.0000000000205835E-01     0.0000000000000000E+00 
    0.0000000000000000E+00     4.6875000000192979E-01     0.0000000000000000E+00 
    0.0000000000000000E+00     4.3750000000180111E-01     0.0000000000000000E+00 
    0.0000000000000000E+00     4.0625000000167238E-01     0.0000000000000000E+00 
[...]
CELL_DATA 2795 
SCALARS Pressure double 1 
LOOKUP_TABLE default 

    7.8205340036836724E+00 
    1.9377934914112480E+01 
    1.3183270451215664E+01 
    1.2821651033455037E+01 
    9.9175363758400543E+00 
    1.9052057812142756E+01 
    2.0244356420048355E+01 
    6.8644847080981490E+00 
    1.3781914664570582E+01 
    1.0425042136345676E+01 
    8.7819681735836710E+00 
    1.8601661597310066E+01 
    1.9204174213997266E+01 
    1.8990155527217254E+01 
    1.2071564209710678E+01 
    6.7461220922148657E+00 
    1.1722885150810717E+01 
    9.3921613565534283E+00 
    1.8001189833100529E+01 
    1.3160627002055337E+01 
    1.3046745175899218E+01 
    1.8863797096272048E+01 
    1.2450953039762165E+01 
    4.4735973590122619E-01 
    1.8646894877367149E+01 
    1.9193024942299047E+01 
    2.0298941516975226E+01 
    8.4146566482067069E+00 
    1.8466509818171271E+01 
    2.0279259669780167E+01 
    1.3378307309518027E+01 
    1.3382982063301357E+01 
    9.1212418941466193E+00 
    1.3143100792522487E+01 
    4.0412113449631484E+00 
    1.1734174475779321E+01 
    1.3126064662687799E+01 
    2.0334982365107901E+01 
    2.0219246360462076E+01 
    1.8622093296865128E+01 
    9.7982762810444424E+00 
    1.8716523479857909E+01 
    9.2875897124840912E-01 
    1.3123377589736425E+01 
    2.0007305323331305E+01 
    1.9552322456443850E+01 
    1.8585142168691579E+01 
    1.4234591657820197E+01 
    1.8637380965631674E+01 
    1.1994058025024373E+01 
    1.1402043989538820E+01 
    1.3342910947806152E+01 
    1.3001189310389432E+01 
    1.1779862453032930E+01 
    1.3466606873756513E+01 
    1.7669057314477676E+01 
    1.5530456919742033E+01 
    9.9807791033128570E+00 
    1.8882489361013388E+01 
    1.8729967756464674E+01 
    1.2765487336659186E+01 
    1.2656619598081930E+01 
    1.2692110288697371E+01 
    2.0137455771812160E+01 
    2.0581330189130924E+01 
    1.1730031732522676E+01 
    1.3341012046617857E+01 
    1.8290133093835493E+01 
    1.5335192939786397E+01 
    1.2712849321365676E+01 
    2.0517768595670418E+01 
    1.8900127019118063E+01 
    1.1567338869520963E+01 
    1.9703733804049207E+01 
    1.3771578310731552E+01 
    1.8464912258944167E+01 
    2.0370460422637791E+01 
    1.3810551560305095E+01 
    7.9658185827487360E+00 
    1.3361690302358921E+01 
    2.0222331451579748E+01 
    2.0558336343391119E+01 
    1.1754855411201056E+01 
    1.3281128309252219E+01 
    2.0631455557007527E+01 
    1.3123308891505173E+01 
    1.2573847863527240E+01 
    1.5925264373181275E+01 
    7.5681432420422059E+00 
    1.1439899078642304E+01 
    1.3277609776211042E+01 
    1.3952580657024656E+01 
    2.2505358803637630E+01 
    9.5960685404550361E+00 
    1.3349930395444837E+01 
    1.8554543765540494E+01 
    1.9104168671770502E+01 
    8.2735136883796390E+00 
    1.2962857395829653E+01 
    1.3315052678523204E+01 
    1.9149100540163566E+01 
    1.3302955981728063E+01 
    1.9018002344700328E+01 
    4.8515834111858922E+00 
    8.5272354349386568E+00 
    1.3597915267000337E+01 
    1.9393980403985090E+01 
    1.1690024762333536E+01 
    1.2448854039343813E+01 
    1.3276203233786651E+01 
    1.2531265342896063E+01 
    1.5068559971660397E+01 
    1.2085378409412883E+01 
    1.1579869852061940E+01 
    8.7450256566839482E+00 
    1.5914960312982219E+01 
    1.3388416723372124E+01 
    2.0017448651692355E+01 
    1.1389589432882039E+01 
    1.2793634355622165E+01 
    1.8906247135513496E+01 
    1.0455512221029331E+01 
    1.9634967611737103E+01 
    1.3203257790975533E+01 
    1.2703751593347359E+01 
    1.9114513827760746E+01 
    1.3375743087466869E+01 
    2.0378632596347387E+01 
    1.5957197679317691E+01 
    1.7410163712957399E+01 
    2.0323238044111051E+01 
    9.6162968007998710E+00 
    1.3620481425191807E+01 
    1.9148947770212732E+01 
    3.6075358767928729E+00 
    1.3438903971027162E+01 
    2.0275124958070087E+01 
    1.2737504913427621E+01 
    1.4698124763264543E+01 
    8.1813191429802625E+00 
    1.8574687283845229E+01 
    2.3083841597688089E+01 
    1.6634927883191757E+01 
    1.2741253113184333E+01 
    1.1286396397409320E+01 
    1.4300185049764503E+01 
    1.3222057154368288E+01 
    8.8742410287205793E+00 
    2.0318637180664055E+01 
    1.9100626792111733E+01 
    1.8558720375002999E+01 
    1.3953865399416934E+01 
    1.1512853177305429E+01 
    1.3040561137446137E+01 
    1.9740959609451078E+01 
    1.1887083706163413E+01 
    1.3328523896412463E+01 
    1.2115359277197983E+01 
    1.5701185404077394E+01 
    2.3070238002618876E+01 
    1.8538230224228325E+01 
    1.1350379419396571E+01 
    1.9449102897457482E+01 
    1.9329614585549532E+01 
    1.9453189675050776E+01 
    2.0909744534855292E+01 
    2.1629713228442473E+01 
    1.9515553389667783E+01 
    1.3331572249822209E+01 
    1.4474233345440529E+01 
    1.9232947528751140E+01 
    2.0004795098992467E+01 
    9.2830059273631473E+00 
    1.8579746777118014E+01 
    1.9670061780809611E+01 
    9.0289781275368703E+00 
    2.0814228461833057E+01 
    2.0764729989015990E+01 
    1.8103599357123922E+01 
    1.3702440676826514E+01 
    3.3460645171963073E+00 
    2.0272098989350347E+01 
    1.3527240056208315E+01 
    2.0471941066578246E+01 
    1.2641590133242026E+01 
    1.9938959913348242E+01 
    1.1640146565238483E+00 
    1.7404027383399725E+01 
    1.2712864221989438E+01 
    1.1465995846977311E+01 
    1.1131887560429512E+01 
    1.3166981554823280E+01 
    1.4572388061941160E+01 
    1.3877366147477741E+01 
    8.8749167360986494E+00 
    2.0011325645159864E+01 
    1.9197104886679448E+01 
    1.5491345228838767E+01 
    1.3587354878798568E+01 
    1.8129292006562092E+00 
    1.0135162832276745E+01 
    6.7009592949532442E+00 
    2.0297996031798831E+01 
    1.4915566044107265E+01 
    1.9094574762554693E+01 
    1.9296345219084266E+01 
    1.1979979370421329E+01 
    1.5620960268341131E+01 
    1.8534924609969469E+01 
    2.0748745077146339E+01 
    8.1584855932648637E+00 
    1.6677416019674698E+01 
    1.3851924301130579E+01 
    7.1604147545912591E+00 
    1.1986468241691123E+01 
    1.6384870408054443E+01 
    1.9238710850553627E+01 
    1.3223454129506795E+01 
    1.9417064538606002E+01 
    1.9037697743874929E+01 
    1.8963658905848721E+01 
    1.3044089042885753E+01 
    1.1313394740614758E+01 
    1.8574118643382359E+01 
    1.1553485468131568E+01 
    1.3313159889723073E+01 
    1.1304384555093346E+01 
    1.3270195218649521E+01 
    1.9305016052732633E+01 
    8.0250248168772114E+00 
    1.1859726798680654E+01 
    2.0171096068251693E+01 
    1.3052202692465066E+01 
    1.4779042440909656E+01 
    8.2324499037443122E+00 
    1.1654273794880961E+01 
    1.9000953860205822E+01 
    1.9503943732544972E+01 
    6.7147622557770772E+00 
    1.3069093748894247E+01 
    1.1336905744550755E+01 
    2.1329519469527060E+01 
    2.0577319122442532E+01 
    2.1670660842838025E+01 
    1.3091638949004574E+01 
    1.9269706037479843E+01 
    1.8448568583938446E+01 
    1.2922561403066899E+01 
    1.8555280669153984E+01 
    1.3587705333829105E+01 
    7.2700465640136462E+00 
    1.3500823683991984E+01 
    2.0159954767181457E+01 
    1.8548864521995224E+01 
    8.7268328832679600E+00 
    1.8593573482020894E+01 
    1.4608144894392943E+01 
    1.3411332747631549E+01 
    1.2831023350720580E+01 
    1.8321622810802115E+01 
    1.4088382438163503E+01 
    1.8578885650906294E+01 
    1.3044522718870827E+01 
    7.5554203019504191E+00 
    1.3399382007749137E+01 
    1.1145059764727035E+01 
    1.6666074896187592E+01 
    2.0449597297574286E+01 
    1.8578004132066898E+01 
    2.0262948258488805E+01 
    1.2982640717455478E+01 
    8.5004005124741013E+00 
    8.6272734772861401E+00 
    1.3655227056223257E+01 
    1.3280512802335645E+01 
    1.8316415403002186E+00 
    1.7715136770964968E+01 
    2.0972931397288853E+01 
    1.2665393192579398E+01 
    7.6056030683915283E+00 
    1.5409427580834757E+01 
    1.8585458904208561E+01 
    9.2499349728709266E+00 
    6.0199386559411456E+00 
    1.3264747727628420E+01 
    1.8740278983321311E+01 
    1.9891248556083394E+01 
    1.9553054788740447E+01 
    1.9510233094774566E+01 
    8.9794762981865208E+00 
    1.3405973069461218E+01 
    1.8023944198774984E+01 
    1.0220455010688694E+01 
    1.9178615223669503E+01 
    1.5930524941302366E+01 
    8.7563774927006008E+00 
    1.8717165600102067E+01 
    2.0306988743075141E+01 
    1.8852662340151081E+01 
    8.8607477627410542E+00 
    1.3336528143597967E+01 
    9.8826126498527884E+00 
    1.2547023159104008E+01 
    1.8577531446677682E+01 
    1.8560586611771690E+01 
    8.9148214282042950E+00 
    2.0004778214411211E+01 
    1.4013608948229997E+01 
    1.8647604280647151E+01 
    2.0085224540708897E+01 
    1.8610958057606300E+01 
    1.6981324207858396E+01 
    2.1411545683196742E+01 
    1.2587800038398109E+01 
    2.0219307870743073E+01 
    1.8668761809801243E+01 
    2.0327608002071610E+01 
    1.9991852793361826E+01 
    1.2727660652307332E+01 
    1.3170569249454433E+01 
    1.2654274217785488E+01 
    1.6235112703243388E+01 
    4.8737375949278698E+00 
    1.3571444157095202E+01 
    2.1571188001918415E+01 
    1.3594126509297762E+01 
    1.3845178392068748E+01 
    2.0284290462980543E+01 
    2.0606416476994216E+01 
    1.2445476068152349E+01 
    1.8598460291766536E+01 
    1.8562271817175368E+01 
    1.3828221396521542E+01 
    1.9914217023788311E+01 
    9.2279920058855645E+00 
    5.8415585606932723E+00 
    1.4210252538969776E+01 
    1.3609481596517481E+01 
    1.8550378416359003E+01 
    8.2547134856073168E+00 
    1.9433072558697507E+01 
    5.9547349381145089E+00 
    1.3534865890070630E+01 
    1.2729711691522752E+01 
    1.3310388453258218E+01 
    2.3123893054060353E+01 
    4.7291177136075868E+00 
    1.3461614419530193E+01 
    1.6288068154634718E+01 
    1.2852813794702179E+01 
    9.9056658267460964E+00 
    1.9723729444122057E+01 
    2.2615046912912995E+01 
    1.9909410512656553E+01 
    1.3379760888730509E+01 
    7.1141365970562429E+00 
    2.2446475101344152E+01 
    1.9167948428235995E+01 
    9.3798337146953905E+00 
    1.2934946903301071E+01 
    2.0883368896237389E+01 
    4.0079182248705267E+00 
    1.3679285752781020E+01 
    1.9996820058733530E+01 
    1.3328172112565117E+01 
    1.1506232584484820E+01 
    1.3514538485822792E+01 
    1.8160259186486606E+01 
    1.3308491130597890E+01 
    6.2760917949401778E+00 
    1.1504394355883492E+00 
    9.7254005515817799E+00 
    2.1199707845485605E+01 
    1.2653992182451193E+01 
    1.5164424199228117E+01 
    1.4496336289910067E+01 
    1.6762596394366739E+01 
    1.3343344775766074E+01 
    1.9017864405017317E+01 
    2.3139441348163658E+01 
    1.5811978623328416E+01 
    2.0176398123715099E+01 
    6.6982864825516442E-01 
    1.8561268536406171E+01 
    7.0334360565794531E+00 
    2.1782203929408034E+01 
    1.3479749206308650E+01 
    1.1761977927631353E+01 
    1.0111286389159737E+01 
    6.6125475999498136E+00 
    1.4836693869724794E+01 
    1.0352681788623469E+01 
    1.6512178246750974E+01 
    2.8068683219301032E+00 
    1.4658863544888970E+01 
    1.8433875135892897E+01 
    7.8162318636861805E+00 
    1.9299101466506560E+01 
    2.1483560670433075E+01 
    1.9103144509243890E+01 
    1.3295256878741139E+01 
    1.3303222827752231E+01 
    1.3470092603593908E+01 
    7.2081621509521101E+00 
    1.2268760268311125E+01 
    1.2050815083643627E+01 
    1.3455429226607237E+01 
    1.2556939285548689E+01 
    8.5933153576176413E-01 
    8.1393777606341118E+00 
    1.3075848289125894E+01 
    1.3421166051228616E+01 
    1.7024921527358092E+01 
    2.6186420901953933E+00 
    1.3773821344915124E+01 
    1.3618947674709895E+01 
    4.5436419941222095E+00 
    1.8877093880080565E+01 
    1.1565505563883242E+01 
    1.3455571224961822E+01 
    1.9149198621134982E+01 
    6.6278988447282456E+00 
    1.9037023280999723E+01 
    1.1755501632757252E+01 
    1.1792815194291104E+00 
    1.2736672902690124E+01 
    2.0066582538174838E+01 
    1.8568657809797955E+01 
    1.8603876367787343E+01 
    1.3927196723233253E+01 
    1.3538130225854271E+01 
    1.1563650314149143E+01 
    8.9166643592934403E+00 
    1.9314822863041993E+01 
    1.2927522917304708E+01 
    8.6580255162437609E+00 
    1.8591586436227715E+01 
    1.9726068735361455E+01 
    1.3686017630601675E+01 
    1.3108275563885691E+01 
    2.3002713194660728E+01 
    1.3829528995155933E+01 
    1.9362509530066074E+01 
    1.0897628433327224E+01 
    2.3167876904430916E+01 
    8.5767107777882075E+00 
    1.2085925446986506E+01 
    9.6641365196698832E+00 
    1.4143673488149208E+01 
    1.1220934879102867E+01 
    2.3150357504342455E+01 
    1.3894707570822456E+01 
    1.8138565345505093E+01 
    8.8242342776969220E+00 
    1.3336997254158897E+01 
    1.9119396237655909E+01 
    1.1261690651484898E+01 
    9.3334789230183244E+00 
    1.5044979892332817E+01 
    1.9378121906373458E+01 
    9.5165834572904622E+00 
    1.2760717181210223E+01 
    1.3152455136870106E+01 
    1.8524632038717211E+01 
    1.2883389285644945E+01 
    1.9451926354725558E+01 
    2.0369593997487843E+01 
    1.1595683014047200E+01 
    1.1328729722783468E+01 
    1.0386402032424588E+01 
    1.8750306682362503E+01 
    1.3639356457718614E+01 
    2.2659561463033626E+01 
    1.7213405216628416E+01 
    1.9045586443774951E+01 
    2.2288667330639729E+01 
    2.1489242161746780E+01 
    1.3389884449504759E+01 
    1.3434836156755525E+01 
    1.8123201303744516E+01 
    1.8620054428095131E+01 
    1.9613822166338384E+01 
    1.9195195941828416E+01 
    2.3031611111528381E+01 
    1.3828872313305562E+01 
    1.1747877230892671E+01 
    1.3791961707116254E+01 
    2.0238916796743492E+01 
    1.3497583852923611E+01 
    7.6146827783459745E+00 
    1.3273213673374174E+01 
    2.0851771945521591E+01 
    1.3666062331612860E+01 
    1.1758601363660098E+01 
    1.3085904233447620E+01 
    2.0999467442644406E+01 
    1.8822165358827480E+01 
    1.1034749164879402E+01 
    2.1185845297080458E+01 
    1.3422076911549629E+01 
    1.9613328858865998E+01 
    2.1016879489695675E+01 
    1.4236651908634432E+01 
    6.6539958372839303E+00 
    1.4829158303413569E+01 
    6.8950639616055085E+00 
    1.3554304140528810E+01 
    1.3333322759076866E+01 
    1.5663790205375903E+01 
    7.3302036900230236E+00 
    1.6734843974605699E+01 
    1.3351532980961176E+01 
    1.9182789111980764E+01 
    1.4424525106809604E+01 
    1.0658341062552443E+01 
    1.2914582294670142E+01 
    1.4131964449171429E+01 
    1.3969396574200051E+01 
    2.0477672930941647E+01 
    1.1156465135251050E+01 
    1.0932746312341475E+01 
    7.7627742846429602E+00 
    1.9677045281093104E+01 
    1.2973033262011487E+01 
    1.8464034979834523E+01 
    1.3298401649737524E+01 
    8.6070645288568315E+00 
    1.8839381826684367E+01 
    1.3272685612914492E+01 
    9.5240360763727239E+00 
    1.0197505180584317E+01 
    1.0629027977994770E+01 
    1.9222961509874001E+01 
    1.3458106684651231E+01 
    2.0183392600822629E+01 
    1.3229050879609161E+01 
    1.3161106920582261E+01 
    1.2651268739096604E+01 
    1.8971713054227205E+01 
    1.3062547458682509E+01 
    1.0690544647719831E+01 
    2.1478750244759372E+01 
    1.9093513714075883E+01 
    8.9986790634817098E+00 
    3.3065464971073744E+00 
    1.3444267034209579E+01 
    1.2507096359737265E+01 
    1.1327432411454847E+01 
    1.2375890226773951E+01 
    1.8901177668511910E+01 
    1.3045171773746690E+01 
    1.1790134025171216E+01 
    1.8657436894777149E+01 
    8.9168446314549090E+00 
    1.8071173901818621E+01 
    1.2031003497234249E+01 
    1.0521364720475342E+01 
    1.1455875997443592E+01 
    1.9742597513308173E+01 
    1.3313124328824669E+01 
    1.3322833497380635E+01 
    7.4550733653128969E+00 
    8.1581996127805319E+00 
    1.7110059186035016E+01 
    1.3334063426854097E+01 
    1.3497343365585502E+01 
    2.1169882916574071E+01 
    1.0934506341090664E+01 
    1.3347992329796776E+01 
    9.2498682597941926E+00 
    9.5692487418842784E+00 
    1.8919984621861513E+01 
    1.2912920280954344E+01 
    9.1346986684139519E+00 
    1.3956211936936317E+01 
    1.3229596334229059E+01 
    1.8940825109473622E+01 
    2.1293576604836613E+01 
    1.2470560949847853E+00 
    1.3450821566322487E+01 
    1.3608091196945672E+01 
    1.9067032926899945E+01 
    1.2830792249186056E+01 
    1.3281312601771283E+01 
    2.0576557402091634E+01 
    1.1503873064086486E+01 
    9.2297017611004328E+00 
    1.6089098904995968E+01 
    1.8587804059460488E+01 
    2.0324817740074817E+01 
    2.0702264721780779E+01 
    1.3239118064107004E+01 
    1.3439118718907654E+01 
    1.4904072987951277E+01 
    8.5243193032023274E+00 
    1.8803864283719310E+01 
    1.0067461765354889E+01 
    8.8997513677208424E+00 
    1.6758036149707756E+01 
    1.5679614638375780E+01 
    8.7172463133117812E+00 
    1.8643705651592501E+01 
    2.0303757177981396E+01 
    1.3850286241721612E+01 
    2.1429179611245520E+01 
    1.8695457975343221E+01 
    1.2899022120030610E+01 
    1.9811022539647080E+01 
    9.5696541706642009E+00 
    1.8609592659943736E+01 
    1.3449265442390390E+01 
    1.3399507027604733E+01 
    2.1403049132815202E+01 
    1.3024745004068381E+01 
    1.6367351626923650E+01 
    1.1421968510399633E+01 
    2.0476243967643214E+01 
    1.8450622890985294E+01 
    1.1947564107791369E+01 
    1.8567289554703510E+01 
    1.2048852498915650E+01 
    1.3288770657795432E+01 
    2.0244528019363010E+01 
    1.9172582477645587E+01 
    2.0308382162198797E+01 
    1.9069792955161976E+01 
    1.2289686265410694E+01 
    1.2562586891710581E+01 
    2.0318888556790061E+01 
    1.2737319477324260E+01 
    1.8298411281577120E+01 
    1.3000929345707007E+01 
    4.9271575239927712E+00 
    8.9999647758139965E+00 
    8.3185495037076951E+00 
    2.0248573277922677E+01 
    2.1304348324607659E+01 
    1.8585663769169773E+01 
    1.5359564836266120E+01 
    1.9049637760984261E+01 
    1.8650843415331387E+01 
    1.9678357638509734E+01 
    7.1573281734461887E+00 
    4.5762725057607758E+00 
    1.5058179897961484E+01 
    1.3032660734569321E+01 
    1.8920952676331389E+01 
    1.8917130599717737E+01 
    1.3630628433272715E+01 
    1.8980846857681758E+01 
    1.3431441611826136E+01 
    1.3325228025167847E+01 
    6.4108287301697500E+00 
    4.5481544634527173E+00 
    2.0990764462614202E+01 
    1.0224096326036531E+01 
    1.1884602899993459E+01 
    1.3511410202878684E+01 
    2.3006604033425926E+01 
    1.3619745620890139E+01 
    1.3835883406391915E+01 
    5.2533409016104269E+00 
    1.3619545318100378E+01 
    1.3636380968310608E+01 
    1.9349993084924531E+01 
    1.1455313536670133E+01 
    1.2753004008794404E+01 
    2.1225822243940083E+01 
    1.3461916030296956E+01 
    1.8606787597777799E+01 
    1.8975130720596756E+01 
    1.6460231931881903E+01 
    1.1213120255126531E+01 
    1.9065702452170989E+01 
    1.3199428963989220E+01 
    1.8883599876924944E+01 
    1.8499900505655877E+01 
    2.0277585061111033E+01 
    1.9075081278319370E+01 
    1.7439425664088674E+01 
    1.3446640700988878E+01 
    8.6534277328837419E+00 
    2.2860880930480334E+01 
    1.0312169089499454E+01 
    2.0159846747292864E+01 
    1.3443259071090408E+01 
    1.0996132559505181E+01 
    6.2505675874201598E+00 
    1.3680359421455103E+01 
    1.9048464583379889E+01 
    1.9030494808122157E+01 
    1.3265766402564063E+01 
    1.3435673552366190E+01 
    2.1491361763860994E+01 
    2.0621239931029436E+01 
    1.3643916185382746E+01 
    4.2601841440736727E+00 
    1.7314103190436452E+01 
    2.3145596256518619E+01 
    1.3450959853853826E+01 
    1.5886109571019528E+01 
    1.2830454485669815E+01 
    2.2692402654637473E+01 
    2.0740195544603324E+01 
    2.0415653028998744E+01 
    1.3671061430397211E+01 
    5.8649263626003414E+00 
    1.2776361874428972E+01 
    1.2860236124714381E+01 
    1.2909746802063435E+01 
    4.6770239366356936E+00 