# vtk DataFile Version 2.0
Pressure Field Data 
ASCII 
DATASET UNSTRUCTURED_GRID 

POINTS 2860 double 

    0.0000000000000000E+00     0.0000000000000000E+00     0.0000000000000000E+00 
    1.0000000000000000E+00     0.0000000000000000E+00     0.0000000000000000E+00 
    1.0000000000000000E+00     1.0000000000000000E+00     0.0000000000000000E+00 
    0.0000000000000000E+00     1.0000000000000000E+00     0.0000000000000000E+00 
    2.5000000000000000E-01     2.5000000000000000E-01     0.0000000000000000E+00 
    7.5000000000000000E-01     2.5000000000000000E-01     0.0000000000000000E+00 
    7.5000000000000000E-01     7.5000000000000000E-01     0.0000000000000000E+00 
    2.5000000000000000E-01     7.5000000000000000E-01     0.0000000000000000E+00 
    3.1249999999942091E-02     0.0000000000000000E+00     0.0000000000000000E+00 
    6.2499999999873469E-02     0.0000000000000000E+00     0.0000000000000000E+00 
    9.3749999999826514E-02     0.0000000000000000E+00     0.0000000000000000E+00 
    1.2499999999977961E-01     0.0000000000000000E+00     0.0000000000000000E+00 
    1.5624999999968961E-01     0.0000000000000000E+00     0.0000000000000000E+00 
    1.8749999999959971E-01     0.0000000000000000E+00     0.0000000000000000E+00 
    2.1874999999950970E-01     0.0000000000000000E+00     0.0000000000000000E+00 
    2.4999999999941969E-01     0.0000000000000000E+00     0.0000000000000000E+00 
    2.8124999999932920E-01     0.0000000000000000E+00     0.0000000000000000E+00 
    3.1249999999923850E-01     0.0000000000000000E+00     0.0000000000000000E+00 
    3.4374999999914790E-01     0.0000000000000000E+00     0.0000000000000000E+00 
    3.7499999999905720E-01     0.0000000000000000E+00     0.0000000000000000E+00 
    4.0624999999896660E-01     0.0000000000000000E+00     0.0000000000000000E+00 
    4.3749999999887590E-01     0.0000000000000000E+00     0.0000000000000000E+00 
    4.6874999999878530E-01     0.0000000000000000E+00     0.0000000000000000E+00 
    4.9999999999869471E-01     0.0000000000000000E+00     0.0000000000000000E+00 
    5.3124999999877620E-01     0.0000000000000000E+00     0.0000000000000000E+00 
    5.6249999999885780E-01     0.0000000000000000E+00     0.0000000000000000E+00 
    5.9374999999893940E-01     0.0000000000000000E+00     0.0000000000000000E+00 
    6.2499999999902101E-01     0.0000000000000000E+00     0.0000000000000000E+00 
    6.5624999999910261E-01     0.0000000000000000E+00     0.0000000000000000E+00 
    6.8749999999918421E-01     0.0000000000000000E+00     0.0000000000000000E+00 
    7.1874999999926570E-01     0.0000000000000000E+00     0.0000000000000000E+00 
    7.4999999999934730E-01     0.0000000000000000E+00     0.0000000000000000E+00 
    7.8124999999942890E-01     0.0000000000000000E+00     0.0000000000000000E+00 
    8.1249999999951039E-01     0.0000000000000000E+00     0.0000000000000000E+00 
    8.4374999999959199E-01     0.0000000000000000E+00     0.0000000000000000E+00 
    8.7499999999967359E-01     0.0000000000000000E+00     0.0000000000000000E+00 
    9.0624999999975520E-01     0.0000000000000000E+00     0.0000000000000000E+00 
    9.3749999999983680E-01     0.0000000000000000E+00     0.0000000000000000E+00 
    9.6874999999991840E-01     0.0000000000000000E+00     0.0000000000000000E+00 
    1.0000000000000000E+00     3.1249999999942091E-02     0.0000000000000000E+00 
    1.0000000000000000E+00     6.2499999999873469E-02     0.0000000000000000E+00 
    1.0000000000000000E+00     9.3749999999826514E-02     0.0000000000000000E+00 
    1.0000000000000000E+00     1.2499999999977961E-01     0.0000000000000000E+00 
    1.0000000000000000E+00     1.5624999999968961E-01     0.0000000000000000E+00 
    1.0000000000000000E+00     1.8749999999959971E-01     0.0000000000000000E+00 
    1.0000000000000000E+00     2.1874999999950970E-01     0.0000000000000000E+00 
    1.0000000000000000E+00     2.4999999999941969E-01     0.0000000000000000E+00 
    1.0000000000000000E+00     2.8124999999932920E-01     0.0000000000000000E+00 
    1.0000000000000000E+00     3.1249999999923850E-01     0.0000000000000000E+00 
    1.0000000000000000E+00     3.4374999999914790E-01     0.0000000000000000E+00 
    1.0000000000000000E+00     3.7499999999905720E-01     0.0000000000000000E+00 
    1.0000000000000000E+00     4.0624999999896660E-01     0.0000000000000000E+00 
    1.0000000000000000E+00     4.3749999999887590E-01     0.0000000000000000E+00 
    1.0000000000000000E+00     4.6874999999878530E-01     0.0000000000000000E+00 
    1.0000000000000000E+00     4.9999999999869471E-01     0.0000000000000000E+00 
    1.0000000000000000E+00     5.3124999999877620E-01     0.0000000000000000E+00 
    1.0000000000000000E+00     5.6249999999885780E-01     0.0000000000000000E+00 
    1.0000000000000000E+00     5.9374999999893940E-01     0.0000000000000000E+00 
    1.0000000000000000E+00     6.2499999999902101E-01     0.0000000000000000E+00 
    1.0000000000000000E+00     6.5624999999910261E-01     0.0000000000000000E+00 
    1.0000000000000000E+00     6.8749999999918421E-01     0.0000000000000000E+00 
    1.0000000000000000E+00     7.1874999999926570E-01     0.0000000000000000E+00 
    1.0000000000000000E+00     7.4999999999934730E-01     0.0000000000000000E+00 
    1.0000000000000000E+00     7.8124999999942890E-01     0.0000000000000000E+00 
    1.0000000000000000E+00     8.1249999999951039E-01     0.0000000000000000E+00 
    1.0000000000000000E+00     8.4374999999959199E-01     0.0000000000000000E+00 
    1.0000000000000000E+00     8.7499999999967359E-01     0.0000000000000000E+00 
    1.0000000000000000E+00     9.0624999999975520E-01     0.0000000000000000E+00 
    1.0000000000000000E+00     9.3749999999983680E-01     0.0000000000000000E+00 
    1.0000000000000000E+00     9.6874999999991840E-01     0.0000000000000000E+00 
    9.6875000000003686E-01     1.0000000000000000E+00     0.0000000000000000E+00 
    9.3750000000011691E-01     1.0000000000000000E+00     0.0000000000000000E+00 
    9.0625000000015765E-01     1.0000000000000000E+00     0.0000000000000000E+00 
    8.7500000000017863E-01     1.0000000000000000E+00     0.0000000000000000E+00 
    8.4375000000028044E-01     1.0000000000000000E+00     0.0000000000000000E+00 
    8.1250000000040856E-01     1.0000000000000000E+00     0.0000000000000000E+00 
    7.8125000000054956E-01     1.0000000000000000E+00     0.0000000000000000E+00 
    7.5000000000066480E-01     1.0000000000000000E+00     0.0000000000000000E+00 
    7.1875000000086831E-01     1.0000000000000000E+00     0.0000000000000000E+00 
    6.8750000000102829E-01     1.0000000000000000E+00     0.0000000000000000E+00 
    6.5625000000114431E-01     1.0000000000000000E+00     0.0000000000000000E+00 
    6.2500000000129829E-01     1.0000000000000000E+00     0.0000000000000000E+00 
    5.9375000000147926E-01     1.0000000000000000E+00     0.0000000000000000E+00 
    5.6250000000168354E-01     1.0000000000000000E+00     0.0000000000000000E+00 
    5.3125000000188671E-01     1.0000000000000000E+00     0.0000000000000000E+00 
    5.0000000000205835E-01     1.0000000000000000E+00     0.0000000000000000E+00 
    4.6875000000192979E-01     1.0000000000000000E+00     0.0000000000000000E+00 
    4.3750000000180111E-01     1.0000000000000000E+00     0.0000000000000000E+00 
    4.0625000000167238E-01     1.0000000000000000E+00     0.0000000000000000E+00 
    3.7500000000154382E-01     1.0000000000000000E+00     0.0000000000000000E+00 
    3.4375000000141509E-01     1.0000000000000000E+00     0.0000000000000000E+00 
    3.1250000000128642E-01     1.0000000000000000E+00     0.0000000000000000E+00 
    2.8125000000115769E-01     1.0000000000000000E+00     0.0000000000000000E+00 
    2.5000000000102918E-01     1.0000000000000000E+00     0.0000000000000000E+00 
    2.1875000000090050E-01     1.0000000000000000E+00     0.0000000000000000E+00 
    1.8750000000077180E-01     1.0000000000000000E+00     0.0000000000000000E+00 
    1.5625000000064329E-01     1.0000000000000000E+00     0.0000000000000000E+00 
    1.2500000000051459E-01     1.0000000000000000E+00     0.0000000000000000E+00 
    9.3750000000385914E-02     1.0000000000000000E+00     0.0000000000000000E+00 
    6.2500000000257239E-02     1.0000000000000000E+00     0.0000000000000000E+00 
    3.1250000000128557E-02     1.0000000000000000E+00     0.0000000000000000E+00 
    0.0000000000000000E+00     9.6875000000003686E-01     0.0000000000000000E+00 
    0.0000000000000000E+00     9.3750000000011691E-01     0.0000000000000000E+00 
    0.0000000000000000E+00     9.0625000000015765E-01     0.0000000000000000E+00 
    0.0000000000000000E+00     8.7500000000017863E-01     0.0000000000000000E+00 
    0.0000000000000000E+00     8.4375000000028044E-01     0.0000000000000000E+00 
    0.0000000000000000E+00     8.1250000000040856E-01     0.0000000000000000E+00 
    0.0000000000000000E+00     7.8125000000054956E-01     0.0000000000000000E+00 
    0.0000000000000000E+00     7.5000000000066480E-01     0.0000000000000000E+00 
    0.0000000000000000E+00     7.1875000000086831E-01     0.0000000000000000E+00 
    0.0000000000000000E+00     6.8750000000102829E-01     0.0000000000000000E+00 
    0.0000000000000000E+00     6.5625000000114431E-01     0.0000000000000000E+00 
    0.0000000000000000E+00     6.2500000000129829E-01     0.0000000000000000E+00 
    0.0000000000000000E+00     5.9375000000147926E-01     0.0000000000000000E+00 
    0.0000000000000000E+00     5.6250000000168354E-01     0.0000000000000000E+00 
    0.0000000000000000E+00     5.3125000000188671E-01     0.0000000000000000E+00 
    0.0000000000000000E+00     5.0000000000205835E-01     0.0000000000000000E+00 
    0.0000000000000000E+00     4.6875000000192979E-01     0.0000000000000000E+00 
    0.0000000000000000E+00     4.3750000000180111E-01     0.0000000000000000E+00 
    0.0000000000000000E+00     4.0625000000167238E-01     0.0000000000000000E+00 
[...]
CELL_DATA 2795 
SCALARS Pressure double 1 
LOOKUP_TABLE default 

    6.1704965243429788E+00 
    1.3645660336819828E+01 
    9.6301166909056999E+00 
    9.3173130733344554E+00 
    7.5033802080566385E+00 
    1.3518719790103491E+01 
    1.4213438840678945E+01 
    5.5435009057986537E+00 
    1.0189319996956433E+01 
    7.7509163714141245E+00 
    6.6021655511963599E+00 
    1.3276572407213227E+01 
    1.3561082595661592E+01 
    1.3489642346233808E+01 
    8.8546232958696116E+00 
    5.4548768810935666E+00 
    8.6127362740514268E+00 
    7.0303526678155226E+00 
    1.2934336821271080E+01 
    9.6187274832245322E+00 
    9.5119641314221344E+00 
    1.3427631023424610E+01 
    9.0671690096873121E+00 
    3.7588548905053581E-01 
    1.3291486324619578E+01 
    1.3530220510452741E+01 
    1.4243943337351325E+01 
    6.3470809662468612E+00 
    1.3201564908153177E+01 
    1.4229301611395526E+01 
    9.7637508342860215E+00 
    9.8394576079624425E+00 
    6.8090974011397449E+00 
    9.5918763638539861E+00 
    3.2129666148733267E+00 
    8.6150640445218727E+00 
    9.5807792110233940E+00 
    1.4266724107333568E+01 
    1.4192053290712506E+01 
    1.3289001283908542E+01 
    7.4554493857269062E+00 
    1.3260342967094291E+01 
    7.8172341791673339E-01 
    9.5595486112666048E+00 
    1.4019551726804014E+01 
    1.3855362962789355E+01 
    1.3266408622426487E+01 
    1.0514092183668506E+01 
    1.3334935402173096E+01 
    8.8007097736780882E+00 
    8.4078501128746215E+00 
    9.8044393804235437E+00 
    9.4457206110390572E+00 
    8.6636077534923075E+00 
    9.8349976726212596E+00 
    1.2736406462728391E+01 
    1.1444921894122178E+01 
    7.5427652900270434E+00 
    1.3431447623619080E+01 
    1.3360010913376101E+01 
    9.3337961427431182E+00 
    9.2531549442552343E+00 
    9.2265621766238954E+00 
    1.4136899572048033E+01 
    1.4388158262818052E+01 
    8.6246961828579867E+00 
    9.8036353240959588E+00 
    1.3185114837662349E+01 
    1.1279151267537886E+01 
    9.2901426825746629E+00 
    1.4395882799057491E+01 
    1.3388973375145250E+01 
    8.5088437506894241E+00 
    1.3954118486207848E+01 
    1.0064761950248359E+01 
    1.3152818404043288E+01 
    1.4282455096920284E+01 
    1.0064711150679205E+01 
    6.2980424928396861E+00 
    9.8222997448220521E+00 
    1.4199978706843533E+01 
    1.4414341411077869E+01 
    8.6376522160217171E+00 
    9.7384647645645686E+00 
    1.4460579499316408E+01 
    9.5831802378727531E+00 
    9.1479082031611281E+00 
    1.1675266327718742E+01 
    6.0238831710763430E+00 
    8.4330962364323145E+00 
    9.7378422574218142E+00 
    1.0332280687435619E+01 
    1.5858966374608274E+01 
    7.3007467633831631E+00 
    9.8118074613452677E+00 
    1.3245783677253906E+01 
    1.3515393974782882E+01 
    6.4706131234221198E+00 
    9.4534789315912011E+00 
    9.7687402912422190E+00 
    1.3534481792275429E+01 
    9.7689320138436919E+00 
    1.3471453426812998E+01 
    4.0057011578753263E+00 
    6.4161743941048766E+00 
    1.0036300348919207E+01 
    1.3653170066902890E+01 
    8.5832435762288828E+00 
    9.1319805893113770E+00 
    9.7533584784422818E+00 
    9.1223195182863819E+00 
    1.1074214656385942E+01 
    8.8892396862257677E+00 
    8.5160442536023186E+00 
    6.8144410387086776E+00 
    1.1478907409995633E+01 
    9.8408834160197198E+00 
    1.4055038709623171E+01 
    8.4274840710131453E+00 
    9.3028764843666263E+00 
    1.3375380774457954E+01 
    7.8462763538096398E+00 
    1.3798123780022257E+01 
    9.6609127604237433E+00 
    9.2360858454150847E+00 
    1.3517294706681984E+01 
    9.8348089869088522E+00 
    1.4292492061608741E+01 
    1.1688732501530119E+01 
    1.2590936793440397E+01 
    1.4260015502440584E+01 
    7.3142157532428067E+00 
    1.0060375843992563E+01 
    1.3516674751975001E+01 
    3.0054973216875562E+00 
    9.8134075932067901E+00 
    1.4228070504028070E+01 
    9.2653482916735150E+00 
    1.0681027114309430E+01 
    6.4403607786528090E+00 
    1.3244197272812219E+01 
    1.6326669611237442E+01 
    1.2132064822319000E+01 
    9.2619524063352365E+00 
    8.3366275389545414E+00 
    1.0463125063308672E+01 
    9.6780632497540697E+00 
    6.6647357264793774E+00 
    1.4253667456027070E+01 
    1.3580226231560964E+01 
    1.3247435628585215E+01 
    1.0324694951368384E+01 
    8.4866881839734987E+00 
    9.5099756001551423E+00 
    1.3978220582926603E+01 
    8.7047753998927053E+00 
    9.7200991989741947E+00 
    8.8517358764545957E+00 
    1.1233056674547742E+01 
    1.6315247978096519E+01 
    1.3239285517811128E+01 
    8.4610167059141848E+00 
    1.3698620672232153E+01 
    1.3614892694919744E+01 
    1.3690209837494146E+01 
    1.4647248369068066E+01 
    1.5166261249833040E+01 
    1.3856007181802342E+01 
    9.7953456076257144E+00 
    1.0574361786919299E+01 
    1.3693305897611737E+01 
    1.4069546794153410E+01 
    6.9341021039166755E+00 
    1.3265967483685785E+01 
    1.3941992399679185E+01 
    6.7731944683818934E+00 
    1.4566519050264596E+01 
    1.4550654186025222E+01 
    1.2999711406837822E+01 
    1.0124644043317845E+01 
    2.6268576106288082E+00 
    1.4226468275104590E+01 
    9.9776313665332630E+00 
    1.4342380890569121E+01 
    9.2034394362665459E+00 
    1.4072836450795725E+01 
    9.5719818325783790E-01 
    1.2604450945458654E+01 
    9.2958023052810361E+00 
    8.4498574762459189E+00 
    8.2433573298386857E+00 
    9.6302795624935076E+00 
    1.0734161396565625E+01 
    1.0083183584458487E+01 
    6.9026513345062375E+00 
    1.4061324698886995E+01 
    1.3538615277709841E+01 
    1.1398203238065783E+01 
    1.0031826582461575E+01 
    1.5359978511853696E+00 
    7.6375137461599127E+00 
    5.4037461996378378E+00 
    1.4240344601253254E+01 
    1.0931675594778040E+01 
    1.3593722852741568E+01 
    1.3601616174478783E+01 
    8.7879030466123513E+00 
    1.1496596471688056E+01 
    1.3242784547912974E+01 
    1.4536273927970671E+01 
    6.4133953040482297E+00 
    1.2010408725778250E+01 
    1.0144792758471777E+01 
    5.7445354972537448E+00 
    8.7696940380643280E+00 
    1.2039325290046886E+01 
    1.3565272140852491E+01 
    9.6852612098437163E+00 
    1.3669458193060910E+01 
    1.3448364713685704E+01 
    1.3400194514655944E+01 
    9.5160082702924935E+00 
    8.3883135037110677E+00 
    1.3255239870983424E+01 
    8.5050732307637755E+00 
    9.7736783333888297E+00 
    8.3496781404391829E+00 
    9.6563392776301367E+00 
    1.3610296778487095E+01 
    6.0542208493537881E+00 
    8.6896788110338115E+00 
    1.4162100469128250E+01 
    9.5286076854968904E+00 
    1.0828929002746733E+01 
    6.2124954995486386E+00 
    8.5573742825962267E+00 
    1.3428253845183024E+01 
    1.3722122851399105E+01 
    5.0891533106344591E+00 
    9.5340410697972331E+00 
    8.3929543333838001E+00 
    1.4942333160209870E+01 
    1.4423830698994887E+01 
    1.5191255128755786E+01 
    9.5546828371741519E+00 
    1.3584685591268398E+01 
    1.3201762379195950E+01 
    9.4280329287364530E+00 
    1.3247631997968385E+01 
    1.0033470586305823E+01 
    5.8144596567833613E+00 
    9.8649796150919045E+00 
    1.4147018140355472E+01 
    1.3244580929207668E+01 
    6.5613750584983501E+00 
    1.3272564786884674E+01 
    1.0750487071865415E+01 
    9.7955191637129069E+00 
    9.3400509471100506E+00 
    1.3118500080560096E+01 
    1.0303492215018164E+01 
    1.3260088943782449E+01 
    9.4936553678448625E+00 
    5.9915419829563952E+00 
    9.8449594554060873E+00 
    8.2516034598733459E+00 
    1.2137579505032271E+01 
    1.4340478549818034E+01 
    1.3253666614307123E+01 
    1.4221291709274221E+01 
    9.4766085797102608E+00 
    6.4077343778168050E+00 
    6.4932907837360467E+00 
    9.9767305087537199E+00 
    9.7498842947161179E+00 
    1.4684438421893635E+00 
    1.2781410385881696E+01 
    1.4678119955567130E+01 
    9.2135223657153063E+00 
    6.0445939000201649E+00 
    1.1201611899836307E+01 
    1.3271236561690182E+01 
    7.0882371345003712E+00 
    4.8963555398283143E+00 
    9.7262804250005495E+00 
    1.3349764735669677E+01 
    1.3970938289190007E+01 
    1.3871622600366781E+01 
    1.3725028165072658E+01 
    6.9456888518431947E+00 
    9.7871692515554596E+00 
    1.2836089561940360E+01 
    7.6093210085615413E+00 
    1.3548755637577477E+01 
    1.1733972021921286E+01 
    6.5822371548176086E+00 
    1.3374840164416074E+01 
    1.4241264646049073E+01 
    1.3399026688877266E+01 
    6.8375607755029888E+00 
    9.7998456201310518E+00 
    7.4816437995937539E+00 
    9.2403800090291348E+00 
    1.3263071340274259E+01 
    1.3251905917305809E+01 
    6.8755948938026910E+00 
    1.4108365940812444E+01 
    1.0331481856563340E+01 
    1.3284280126530637E+01 
    1.4078513862994861E+01 
    1.3272120006720064E+01 
    1.2363809075628630E+01 
    1.4992222161489382E+01 
    9.1792793382278806E+00 
    1.4192029488580328E+01 
    1.3310983156944255E+01 
    1.4261370241185967E+01 
    1.4101300658987180E+01 
    9.2705176645762304E+00 
    9.6217619211180967E+00 
    9.2040925267592666E+00 
    1.1893075119313794E+01 
    4.0142145271790959E+00 
    9.9140138801095468E+00 
    1.5113660812838100E+01 
    1.0031954174027696E+01 
    1.0212402852762358E+01 
    1.4235172651941845E+01 
    1.4461592322921838E+01 
    9.1321691099576157E+00 
    1.3276694381797869E+01 
    1.3248580583155096E+01 
    1.0200473198476617E+01 
    1.4057564957346719E+01 
    6.9145681222925806E+00 
    4.4473775079879054E+00 
    1.0470798267433985E+01 
    1.0046504170012808E+01 
    1.3253844091622126E+01 
    6.4532484361310676E+00 
    1.3789882808781368E+01 
    4.5476529542767796E+00 
    9.9802218712785749E+00 
    9.3253241721154634E+00 
    9.7764231130738750E+00 
    1.6364210496182224E+01 
    3.9033132243305499E+00 
    9.8313534890850089E+00 
    1.1668461780822485E+01 
    9.3811951197651293E+00 
    7.5651082122969839E+00 
    1.3896856122267762E+01 
    1.5948760597260707E+01 
    1.4043601656409303E+01 
    9.7736297595614783E+00 
    5.7121127305052406E+00 
    1.5799903040109523E+01 
    1.3529336446296499E+01 
    7.2022712546527563E+00 
    9.3998888489594474E+00 
    1.4630999258630499E+01 
    3.3128362167368564E+00 
    1.0094385944939278E+01 
    1.4010708592112401E+01 
    9.7897141856634136E+00 
    8.5100126328099783E+00 
    9.8710922025337684E+00 
    1.3056712883417921E+01 
    9.7706974830458009E+00 
    5.1094238968737562E+00 
    9.4395221747349878E-01 
    7.2603084293309070E+00 
    1.4840377442356873E+01 
    9.2021813312209950E+00 
    1.1128012747893655E+01 
    1.0611174231610681E+01 
    1.2284734132140919E+01 
    9.8032359952464958E+00 
    1.3444075657936684E+01 
    1.6377972380905465E+01 
    1.1589081758475357E+01 
    1.4165313584397245E+01 
    5.5796594225877694E-01 
    1.3253762134162518E+01 
    5.6229553095643672E+00 
    1.5275712136833729E+01 
    9.8449637744777707E+00 
    8.6481908189301322E+00 
    7.6219016534272690E+00 
    5.3504369918483130E+00 
    1.0943121264979116E+01 
    7.6920771829586334E+00 
    1.2036834796677581E+01 
    2.2173368661259212E+00 
    1.0784019451783795E+01 
    1.3189564145583061E+01 
    5.8959155557664209E+00 
    1.3728915614558165E+01 
    1.5101009983153851E+01 
    1.3562505863691984E+01 
    9.7148778931877455E+00 
    9.7712424733504033E+00 
    9.8376702214164098E+00 
    5.7769155945925137E+00 
    8.9499797837206785E+00 
    8.8091624333840350E+00 
    9.8267576659587839E+00 
    9.1432936157490428E+00 
    7.1104504554719605E-01 
    6.4044310157904940E+00 
    9.5159025492140596E+00 
    9.8025149386056487E+00 
    1.2365668647425535E+01 
    2.1679628977569951E+00 
    1.0161775061048667E+01 
    1.0050837565294559E+01 
    3.7557970081615708E+00 
    1.3433457483253060E+01 
    8.5241980514048556E+00 
    9.9081737251346382E+00 
    1.3527557016628339E+01 
    5.3713050241198488E+00 
    1.3551771982465420E+01 
    8.6228719557526663E+00 
    9.8820351815047580E-01 
    9.2606082406314414E+00 
    1.4119056003617297E+01 
    1.3253934424881674E+01 
    1.3272788711820430E+01 
    1.0182124555061485E+01 
    9.9850677273234041E+00 
    8.5023535160199604E+00 
    6.9294252918336046E+00 
    1.3631965037030977E+01 
    9.3993258080049209E+00 
    6.7144911635755440E+00 
    1.3267648785385699E+01 
    1.3939589982403747E+01 
    9.9993667060305782E+00 
    9.5757436459797773E+00 
    1.6262394003523500E+01 
    1.0201317559689983E+01 
    1.3647556372506491E+01 
    8.1053354851849555E+00 
    1.6405907778743501E+01 
    6.4548939420536984E+00 
    8.8921467122413578E+00 
    7.2052811919733832E+00 
    1.0422508142522819E+01 
    8.2827680593829811E+00 
    1.6389896909063150E+01 
    1.0247312110708629E+01 
    1.2994384003134394E+01 
    6.6344421862006833E+00 
    9.7994643778994028E+00 
    1.3496580313237301E+01 
    8.2975442885079360E+00 
    7.2035613016814493E+00 
    1.0864909309031349E+01 
    1.3713741207365359E+01 
    7.1169286234264275E+00 
    9.3439310887987403E+00 
    9.6055854145645476E+00 
    1.3230509963171663E+01 
    9.4069158274329183E+00 
    1.3688109495801852E+01 
    1.4289208299509376E+01 
    8.5274807167517466E+00 
    8.3687761308778388E+00 
    7.7256588471192398E+00 
    1.3370789912231256E+01 
    1.0067452970252814E+01 
    1.5984055889390110E+01 
    1.2550498367926503E+01 
    1.3459048985493022E+01 
    1.5678344039887508E+01 
    1.5102460403336609E+01 
    9.8475166288923308E+00 
    9.8120252925451847E+00 
    1.3027288752725751E+01 
    1.3289823279975767E+01 
    1.3797829505210716E+01 
    1.3549570535849055E+01 
    1.6282141935586914E+01 
    1.0200871205581160E+01 
    8.6219967261939754E+00 
    1.0208723783096893E+01 
    1.4205817512392471E+01 
    9.9518027941897476E+00 
    5.8018501916273619E+00 
    9.6993692603096964E+00 
    1.4602479075496584E+01 
    1.0085328743014784E+01 
    8.6247999737703349E+00 
    9.5461104217139603E+00 
    1.4706940800617941E+01 
    1.3309595741853386E+01 
    8.2288147840563699E+00 
    1.4840289524763897E+01 
    9.8783008506314367E+00 
    1.3787931851789015E+01 
    1.4721537987998063E+01 
    1.0456558689685533E+01 
    5.3802686385096408E+00 
    1.0868561963904364E+01 
    5.5557036176117611E+00 
    1.0003206168309131E+01 
    9.7914209133722458E+00 
    1.1414746861390753E+01 
    5.8580122232916887E+00 
    1.2089997765687645E+01 
    9.8118411370992451E+00 
    1.3539802683341561E+01 
    1.0395357500737379E+01 
    8.0509008859720126E+00 
    9.4213597480197482E+00 
    1.0336454919963755E+01 
    1.0300816485815705E+01 
    1.4332480510677820E+01 
    8.2618699197351120E+00 
    8.1245350683390516E+00 
    6.1454302368271199E+00 
    1.3822628551580046E+01 
    9.4626862107775338E+00 
    1.3123458552590749E+01 
    9.7617161813934228E+00 
    6.6942729915266650E+00 
    1.3341573103605997E+01 
    9.7368621135527391E+00 
    7.2694043827178660E+00 
    7.6791722496228614E+00 
    7.9369885913305698E+00 
    1.3569522852197215E+01 
    9.8287087571049199E+00 
    1.4176076987300814E+01 
    9.6951011937193687E+00 
    9.6325923094881958E+00 
    9.2646767302981470E+00 
    1.3418172595273925E+01 
    9.5491039368479829E+00 
    7.9755607862377804E+00 
    1.5089453486575376E+01 
    1.3493962527119272E+01 
    6.7563675524731011E+00 
    2.7540544255670820E+00 
    9.8181302643768031E+00 
    9.1534782142182252E+00 
    8.3664340988930785E+00 
    9.0782164599215616E+00 
    1.3447890587080041E+01 
    9.5370900976824213E+00 
    8.6742903166022458E+00 
    1.3311114593850505E+01 
    6.6990282096197129E+00 
    1.2989830877644840E+01 
    8.8381099821792510E+00 
    7.9359443255960409E+00 
    8.4404574400169228E+00 
    1.3869052227520433E+01 
    9.7794229962375727E+00 
    9.7874612508066257E+00 
    5.9342681682084324E+00 
    6.3901031330290978E+00 
    1.2418266087852945E+01 
    9.7972505294821808E+00 
    9.8578968094846751E+00 
    1.4824059488361931E+01 
    8.1225093789288110E+00 
    9.8096218572360829E+00 
    6.9312465576306268E+00 
    7.1554663860879737E+00 
    1.3414159845800430E+01 
    9.4373464785876475E+00 
    7.0128491929336700E+00 
    1.0335815592322568E+01 
    9.6814231363196761E+00 
    1.3416340791003213E+01 
    1.4913707293006265E+01 
    1.0700913074535889E+00 
    9.8229307517169069E+00 
    1.0044601434399413E+01 
    1.3474510354337433E+01 
    9.3290911606793863E+00 
    9.7533501669098790E+00 
    1.4384726345855949E+01 
    8.4697722817612711E+00 
    7.0728272036152928E+00 
    1.1798867636156627E+01 
    1.3267076223634424E+01 
    1.4261571119624383E+01 
    1.4510366944204145E+01 
    9.6692166136164293E+00 
    9.8149112686012110E+00 
    1.1009040595208877E+01 
    6.4270536005719370E+00 
    1.3388672252488792E+01 
    7.5946500610879601E+00 
    6.6879858906156855E+00 
    1.2262172998100514E+01 
    1.1546083817382605E+01 
    6.5595999307331851E+00 
    1.3302122462879938E+01 
    1.4247310648452267E+01 
    1.0215995501067596E+01 
    1.5011136143406951E+01 
    1.3334097422286145E+01 
    9.4039777661237238E+00 
    1.3992625038840494E+01 
    7.1544492598436698E+00 
    1.3284546336277268E+01 
    9.8220256576588323E+00 
    9.7827948990805851E+00 
    1.4986771465012030E+01 
    9.4961662532580178E+00 
    1.1996377908330590E+01 
    8.4213112988786278E+00 
    1.4359638967222148E+01 
    1.3195605820024376E+01 
    8.7646514951014467E+00 
    1.3243971004416959E+01 
    8.8294217015193777E+00 
    9.7628502790180178E+00 
    1.4208101902155876E+01 
    1.3545194951143776E+01 
    1.4250575950872394E+01 
    1.3477947145523865E+01 
    8.9630803182801806E+00 
    9.1758022571974358E+00 
    1.4256789787766321E+01 
    9.2929848903222823E+00 
    1.3129128042442082E+01 
    9.4847808145796542E+00 
    4.0478385469211675E+00 
    6.7547764480482382E+00 
    6.2648355461105982E+00 
    1.4211265743250904E+01 
    1.4919265118888966E+01 
    1.3261534664033713E+01 
    1.1283464837123869E+01 
    1.3542151116205464E+01 
    1.3308215517550586E+01 
    1.3872072479766338E+01 
    5.7418432155771306E+00 
    3.7759769839253972E+00 
    1.1081576547473729E+01 
    9.4850302854349611E+00 
    1.3449463673911783E+01 
    1.3447042921381732E+01 
    1.0066762754282866E+01 
    1.3482713856530781E+01 
    9.8094176417093397E+00 
    9.7134230351303454E+00 
    5.2067132759208894E+00 
    3.7624543532198595E+00 
    1.4702935830527805E+01 
    7.6031456074061090E+00 
    8.7042797922220458E+00 
    9.9598279890989261E+00 
    1.6263444434820656E+01 
    1.0053692798412785E+01 
    1.0124588455683000E+01 
    4.2522409773777161E+00 
    1.0055150530141754E+01 
    1.0069004849573018E+01 
    1.3764918746885101E+01 
    8.4472092098267488E+00 
    9.3426807219632675E+00 
    1.4866067384392093E+01 
    9.8310721158313239E+00 
    1.3276898367383209E+01 
    1.3527146083589471E+01 
    1.2023724394234373E+01 
    8.2742479778611742E+00 
    1.3477846132603055E+01 
    9.6248603930548278E+00 
    1.3449851478542724E+01 
    1.3217484894783532E+01 
    1.4229981562757981E+01 
    1.3474541018619814E+01 
    1.2644365341875130E+01 
    9.8201989470507769E+00 
    6.5093585730542296E+00 
    1.6140566855608142E+01 
    7.7472617799009020E+00 
    1.4152328052531814E+01 
    9.8176254896001609E+00 
    8.1735586945210041E+00 
    4.9174650327144303E+00 
    1.0104920055636871E+01 
    1.3464981445930372E+01 
    1.3462290174670430E+01 
    9.7436942836846292E+00 
    9.8118264857260939E+00 
    1.5068066793920165E+01 
    1.4456010297802305E+01 
    1.0071500048836349E+01 
    3.5161867201908308E+00 
    1.2609095512353397E+01 
    1.6388049299517441E+01 
    9.8234975588175288E+00 
    1.1640745747028040E+01 
    9.3261509643495533E+00 
    1.6003042069601822E+01 
    1.4534220289086964E+01 
    1.4286675278181017E+01 
    1.0092352025472469E+01 
    4.5984899078554591E+00 
    9.2860525567750720E+00 
    9.3505916685265245E+00 
    9.3955891544205841E+00 
    3.8183457998250541E+00 