# vtk DataFile Version 2.0
Pressure Field Data 
ASCII 
DATASET UNSTRUCTURED_GRID 

POINTS 2860 double 

    0.0000000000000000E+00     0.0000000000000000E+00     0.0000000000000000E+00 
    1.0000000000000000E+00     0.0000000000000000E+00     0.0000000000000000E+00 
    1.0000000000000000E+00     1.0000000000000000E+00     0.0000000000000000E+00 
    0.0000000000000000E+00     1.0000000000000000E+00     0.0000000000000000E+00 
    2.5000000000000000E-01     2.5000000000000000E-01     0.0000000000000000E+00 
    7.5000000000000000E-01     2.5000000000000000E-01     0.0000000000000000E+00 
    7.5000000000000000E-01     7.5000000000000000E-01     0.0000000000000000E+00 
    2.5000000000000000E-01     7.5000000000000000E-01     0.0000000000000000E+00 
    3.1249999999942091E-02     0.0000000000000000E+00     0.0000000000000000E+00 
    6.2499999999873469E-02     0.0000000000000000E+00     0.0000000000000000E+00 
    9.3749999999826514E-02     0.0000000000000000E+00     0.0000000000000000E+00 
    1.2499999999977961E-01     0.0000000000000000E+00     0.0000000000000000E+00 
    1.5624999999968961E-01     0.0000000000000000E+00     0.0000000000000000E+00 
    1.8749999999959971E-01     0.0000000000000000E+00     0.0000000000000000E+00 
    2.1874999999950970E-01     0.0000000000000000E+00     0.0000000000000000E+00 
    2.4999999999941969E-01     0.0000000000000000E+00     0.0000000000000000E+00 
    2.8124999999932920E-01     0.0000000000000000E+00     0.0000000000000000E+00 
    3.1249999999923850E-01     0.0000000000000000E+00     0.0000000000000000E+00 
    3.4374999999914790E-01     0.0000000000000000E+00     0.0000000000000000E+00 
    3.7499999999905720E-01     0.0000000000000000E+00     0.0000000000000000E+00 
    4.0624999999896660E-01     0.0000000000000000E+00     0.0000000000000000E+00 
    4.3749999999887590E-01     0.0000000000000000E+00     0.0000000000000000E+00 
    4.6874999999878530E-01     0.0000000000000000E+00     0.0000000000000000E+00 
    4.9999999999869471E-01     0.0000000000000000E+00     0.0000000000000000E+00 
    5.3124999999877620E-01     0.0000000000000000E+00     0.0000000000000000E+00 
    5.6249999999885780E-01     0.0000000000000000E+00     0.0000000000000000E+00 
    5.9374999999893940E-01     0.0000000000000000E+00     0.0000000000000000E+00 
    6.2499999999902101E-01     0.0000000000000000E+00     0.0000000000000000E+00 
    6.5624999999910261E-01     0.0000000000000000E+00     0.0000000000000000E+00 
    6.8749999999918421E-01     0.0000000000000000E+00     0.0000000000000000E+00 
    7.1874999999926570E-01     0.0000000000000000E+00     0.0000000000000000E+00 
    7.4999999999934730E-01     0.0000000000000000E+00     0.0000000000000000E+00 
    7.8124999999942890E-01     0.0000000000000000E+00     0.0000000000000000E+00 
    8.1249999999951039E-01     0.0000000000000000E+00     0.0000000000000000E+00 
    8.4374999999959199E-01     0.0000000000000000E+00     0.0000000000000000E+00 
    8.7499999999967359E-01     0.0000000000000000E+00     0.0000000000000000E+00 
    9.0624999999975520E-01     0.0000000000000000E+00     0.0000000000000000E+00 
    9.3749999999983680E-01     0.0000000000000000E+00     0.0000000000000000E+00 
    9.6874999999991840E-01     0.0000000000000000E+00     0.0000000000000000E+00 
    1.0000000000000000E+00     3.1249999999942091E-02     0.0000000000000000E+00 
    1.0000000000000000E+00     6.2499999999873469E-02     0.0000000000000000E+00 
    1.0000000000000000E+00     9.3749999999826514E-02     0.0000000000000000E+00 
    1.0000000000000000E+00     1.2499999999977961E-01     0.0000000000000000E+00 
    1.0000000000000000E+00     1.5624999999968961E-01     0.0000000000000000E+00 
    1.0000000000000000E+00     1.8749999999959971E-01     0.0000000000000000E+00 
    1.0000000000000000E+00     2.1874999999950970E-01     0.0000000000000000E+00 
    1.0000000000000000E+00     2.4999999999941969E-01     0.0000000000000000E+00 
    1.0000000000000000E+00     2.8124999999932920E-01     0.0000000000000000E+00 
    1.0000000000000000E+00     3.1249999999923850E-01     0.0000000000000000E+00 
    1.0000000000000000E+00     3.4374999999914790E-01     0.0000000000000000E+00 
    1.0000000000000000E+00     3.7499999999905720E-01     0.0000000000000000E+00 
    1.0000000000000000E+00     4.0624999999896660E-01     0.0000000000000000E+00 
    1.0000000000000000E+00     4.3749999999887590E-01     0.0000000000000000E+00 
    1.0000000000000000E+00     4.6874999999878530E-01     0.0000000000000000E+00 
    1.0000000000000000E+00     4.9999999999869471E-01     0.0000000000000000E+00 
    1.0000000000000000E+00     5.3124999999877620E-01     0.0000000000000000E+00 
    1.0000000000000000E+00     5.6249999999885780E-01     0.0000000000000000E+00 
    1.0000000000000000E+00     5.9374999999893940E-01     0.0000000000000000E+00 
    1.0000000000000000E+00     6.2499999999902101E-01     0.0000000000000000E+00 
    1.0000000000000000E+00     6.5624999999910261E-01     0.0000000000000000E+00 
    1.0000000000000000E+00     6.8749999999918421E-01     0.0000000000000000E+00 
    1.0000000000000000E+00     7.1874999999926570E-01     0.0000000000000000E+00 
    1.0000000000000000E+00     7.4999999999934730E-01     0.0000000000000000E+00 
    1.0000000000000000E+00     7.8124999999942890E-01     0.0000000000000000E+00 
    1.0000000000000000E+00     8.1249999999951039E-01     0.0000000000000000E+00 
    1.0000000000000000E+00     8.4374999999959199E-01     0.0000000000000000E+00 
    1.0000000000000000E+00     8.7499999999967359E-01     0.0000000000000000E+00 
    1.0000000000000000E+00     9.0624999999975520E-01     0.0000000000000000E+00 
    1.0000000000000000E+00     9.3749999999983680E-01     0.0000000000000000E+00 
    1.0000000000000000E+00     9.6874999999991840E-01     0.0000000000000000E+00 
    9.6875000000003686E-01     1.0000000000000000E+00     0.0000000000000000E+00 
    9.3750000000011691E-01     1.0000000000000000E+00     0.0000000000000000E+00 
    9.0625000000015765E-01     1.0000000000000000E+00     0.0000000000000000E+00 
    8.7500000000017863E-01     1.0000000000000000E+00     0.0000000000000000E+00 
    8.4375000000028044E-01     1.0000000000000000E+00     0.0000000000000000E+00 
    8.1250000000040856E-01     1.0000000000000000E+00     0.0000000000000000E+00 
    7.8125000000054956E-01     1.0000000000000000E+00     0.0000000000000000E+00 
    7.5000000000066480E-01     1.0000000000000000E+00     0.0000000000000000E+00 
    7.1875000000086831E-01     1.0000000000000000E+00     0.0000000000000000E+00 
    6.8750000000102829E-01     1.0000000000000000E+00     0.0000000000000000E+00 
    6.5625000000114431E-01     1.0000000000000000E+00     0.0000000000000000E+00 
    6.2500000000129829E-01     1.0000000000000000E+00     0.0000000000000000E+00 
    5.9375000000147926E-01     1.0000000000000000E+00     0.0000000000000000E+00 
    5.6250000000168354E-01     1.0000000000000000E+00     0.0000000000000000E+00 
    5.3125000000188671E-01     1.0000000000000000E+00     0.0000000000000000E+00 
    5.0000000000205835E-01     1.0000000000000000E+00     0.0000000000000000E+00 
    4.6875000000192979E-01     1.0000000000000000E+00     0.0000000000000000E+00 
    4.3750000000180111E-01     1.0000000000000000E+00     0.0000000000000000E+00 
    4.0625000000167238E-01     1.0000000000000000E+00     0.0000000000000000E+00 
    3.7500000000154382E-01     1.0000000000000000E+00     0.0000000000000000E+00 
    3.4375000000141509E-01     1.0000000000000000E+00     0.0000000000000000E+00 
    3.1250000000128642E-01     1.0000000000000000E+00     0.0000000000000000E+00 
    2.8125000000115769E-01     1.0000000000000000E+00     0.0000000000000000E+00 
    2.5000000000102918E-01     1.0000000000000000E+00     0.0000000000000000E+00 
    2.1875000000090050E-01     1.0000000000000000E+00     0.0000000000000000E+00 
    1.8750000000077180E-01     1.0000000000000000E+00     0.0000000000000000E+00 
    1.5625000000064329E-01     1.0000000000000000E+00     0.0000000000000000E+00 
    1.2500000000051459E-01     1.0000000000000000E+00     0.0000000000000000E+00 
    9.3750000000385914E-02     1.0000000000000000E+00     0.0000000000000000E+00 
    6.2500000000257239E-02     1.0000000000000000E+00     0.0000000000000000E+00 
    3.1250000000128557E-02     1.0000000000000000E+00     0.0000000000000000E+00 
    0.0000000000000000E+00     9.6875000000003686E-01     0.0000000000000000E+00 
    0.0000000000000000E+00     9.3750000000011691E-01     0.0000000000000000E+00 
    0.0000000000000000E+00     9.0625000000015765E-01     0.0000000000000000E+00 
    0.0000000000000000E+00     8.7500000000017863E-01     0.0000000000000000E+00 
    0.0000000000000000E+00     8.4375000000028044E-01     0.0000000000000000E+00 
    0.0000000000000000E+00     8.1250000000040856E-01     0.0000000000000000E+00 
    0.0000000000000000E+00     7.8125000000054956E-01     0.0000000000000000E+00 
    0.0000000000000000E+00     7.5000000000066480E-01     0.0000000000000000E+00 
    0.0000000000000000E+00     7.1875000000086831E-01     0.0000000000000000E+00 
    0.0000000000000000E+00     6.8750000000102829E-01     0.0000000000000000E+00 
    0.0000000000000000E+00     6.5625000000114431E-01     0.0000000000000000E+00 
    0.0000000000000000E+00     6.2500000000129829E-01     0.0000000000000000E+00 
    0.0000000000000000E+00     5.9375000000147926E-01     0.0000000000000000E+00 
    0.0000000000000000E+00     5.6250000000168354E-01     0.0000000000000000E+00 
    0.0000000000000000E+00     5.3125000000188671E-01     0.0000000000000000E+00 
    0.0000000000000000E+00     5.0000000000205835E-01     0.0000000000000000E+00 
    0.0000000000000000E+00     4.6875000000192979E-01     0.0000000000000000E+00 
    0.0000000000000000E+00     4.3750000000180111E-01     0.0000000000000000E+00 
    0.0000000000000000E+00     4.0625000000167238E-01     0.0000000000000000E+00 
[...]
CELL_DATA 2795 
SCALARS Pressure double 1 
LOOKUP_TABLE default 

    7.9563661934580603E+00 
    1.7450690117293160E+01 
    1.2291063909597806E+01 
    1.2007190302274035E+01 
    9.7167987853594031E+00 
    1.7273545740179642E+01 
    1.8125743667919984E+01 
    7.1300770539936176E+00 
    1.2831917179447510E+01 
    9.9760970957609878E+00 
    8.5805002562308292E+00 
    1.6966361136975131E+01 
    1.7365634209139760E+01 
    1.7236352118845293E+01 
    1.1384106417821885E+01 
    7.0120940475128091E+00 
    1.1159956911554213E+01 
    9.1034248695456910E+00 
    1.6537640203415087E+01 
    1.2273075660964874E+01 
    1.2172736344811916E+01 
    1.7156937938407335E+01 
    1.1715391281420416E+01 
    4.7370633886929109E-01 
    1.6943297293719045E+01 
    1.7309167809920787E+01 
    1.8161815759346428E+01 
    8.3289079193091915E+00 
    1.6873253303233014E+01 
    1.8142746853869170E+01 
    1.2483125240778834E+01 
    1.2473150566313592E+01 
    9.0736058516473630E+00 
    1.2255173376739592E+01 
    4.1445719536804209E+00 
    1.1160927158684483E+01 
    1.2241231199972132E+01 
    1.8186652159748956E+01 
    1.8099647504440334E+01 
    1.6981418498176886E+01 
    9.6823193264688552E+00 
    1.6960719107154222E+01 
    9.8767392373745666E-01 
    1.2261002933560949E+01 
    1.7910451726113699E+01 
    1.7620174470997767E+01 
    1.6953832196847294E+01 
    1.3219984408550660E+01 
    1.7001438164270397E+01 
    1.1401267292157030E+01 
    1.0900128600927230E+01 
    1.2437756718720342E+01 
    1.2155156759590524E+01 
    1.1229067970112874E+01 
    1.2559114910908097E+01 
    1.6289363347811641E+01 
    1.4329792187064575E+01 
    9.7669420745504691E+00 
    1.7164021814633884E+01 
    1.7068485531229570E+01 
    1.1985783196300140E+01 
    1.1851032625905653E+01 
    1.1903862161876331E+01 
    1.8032426000238942E+01 
    1.8341093160380641E+01 
    1.1178478563601189E+01 
    1.2436204888398517E+01 
    1.6685776555213174E+01 
    1.4186292083995022E+01 
    1.1907272155347059E+01 
    1.8338341502376423E+01 
    1.7118013636660329E+01 
    1.1030051895383380E+01 
    1.7737073610485922E+01 
    1.2814147569700305E+01 
    1.6738091169800743E+01 
    1.8208446394333787E+01 
    1.2844860902274483E+01 
    8.0648076688158596E+00 
    1.2454318913319028E+01 
    1.8109632125709936E+01 
    1.8360946432096934E+01 
    1.1175296182451122E+01 
    1.2381504016391997E+01 
    1.8418365145645698E+01 
    1.2239964449787742E+01 
    1.1810299117474528E+01 
    1.4698016511986960E+01 
    7.7372366875002063E+00 
    1.0935823055142642E+01 
    1.2378789434238801E+01 
    1.2986108821791609E+01 
    1.9985721420531281E+01 
    9.4506818240672743E+00 
    1.2444029139783822E+01 
    1.6928101362137596E+01 
    1.7306373559076089E+01 
    8.3560971762498628E+00 
    1.2104958153050832E+01 
    1.2411767756702234E+01 
    1.7332572025789350E+01 
    1.2402667021072830E+01 
    1.7245410680109575E+01 
    5.1283125775775904E+00 
    8.3403452502783857E+00 
    1.2661193395095559E+01 
    1.7457989107063391E+01 
    1.1124218508878915E+01 
    1.1736487400227904E+01 
    1.2380692186421561E+01 
    1.1776363819478371E+01 
    1.3928078017839042E+01 
    1.1445870496711990E+01 
    1.1039899728607876E+01 
    8.7538089666351979E+00 
    1.4640621933358002E+01 
    1.2478082894508832E+01 
    1.7936310367589900E+01 
    1.0788748970887102E+01 
    1.1987136624781627E+01 
    1.7116775723909836E+01 
    1.0187362424150924E+01 
    1.7643233422195035E+01 
    1.2311312009045647E+01 
    1.1913573241480643E+01 
    1.7310040862032334E+01 
    1.2466624847305754E+01 
    1.8220278677862051E+01 
    1.4738164675050289E+01 
    1.6077659544362085E+01 
    1.8180907756473584E+01 
    9.4675979403078401E+00 
    1.2682194031858401E+01 
    1.7299239345499366E+01 
    3.8292018826901137E+00 
    1.2535632863762940E+01 
    1.8142528308448291E+01 
    1.1942758438403509E+01 
    1.3611361466224640E+01 
    8.2649989631862137E+00 
    1.6922197914800726E+01 
    2.0486041267573309E+01 
    1.5333466383493990E+01 
    1.1943382511472640E+01 
    1.0804571682646433E+01 
    1.3256347208860372E+01 
    1.2327918285507883E+01 
    8.7017562210461374E+00 
    1.8174442299939361E+01 
    1.7297063809584401E+01 
    1.6929812559453890E+01 
    1.2982990228113081E+01 
    1.1003267685320925E+01 
    1.2168194504792359E+01 
    1.7771463170803241E+01 
    1.1274422811121472E+01 
    1.2434101035254562E+01 
    1.1453788619225259E+01 
    1.4402649323081665E+01 
    2.0473804166626415E+01 
    1.6920620209331474E+01 
    1.0986900390581980E+01 
    1.7530931510390928E+01 
    1.7412353732019255E+01 
    1.7502980439753383E+01 
    1.8636252115799920E+01 
    1.9225789144068358E+01 
    1.7603850913981518E+01 
    1.2427954003559618E+01 
    1.3404689917299525E+01 
    1.7416402441321459E+01 
    1.7948597745053451E+01 
    9.0835635886076211E+00 
    1.6953257120326178E+01 
    1.7729027873160025E+01 
    8.8353125017681435E+00 
    1.8552765281433189E+01 
    1.8522327918606297E+01 
    1.6613122572793856E+01 
    1.2755130273127961E+01 
    3.4317718291093238E+00 
    1.8142374640198337E+01 
    1.2600139520348126E+01 
    1.8281277917377519E+01 
    1.1867716139910913E+01 
    1.7916360927549025E+01 
    1.2331773126812047E+00 
    1.6009933874788832E+01 
    1.1897283854630473E+01 
    1.0954921477032276E+01 
    1.0685249413865561E+01 
    1.2279944001317478E+01 
    1.3501767124631328E+01 
    1.2908855838811080E+01 
    8.8502206375689561E+00 
    1.7942076008653103E+01 
    1.7322025629227095E+01 
    1.4311371761846788E+01 
    1.2652563907104165E+01 
    1.9412693234535798E+00 
    9.8924319605300699E+00 
    6.9336807471288635E+00 
    1.8155840907347670E+01 
    1.3771285162594120E+01 
    1.7320810205473478E+01 
    1.7402338337953150E+01 
    1.1353261142286122E+01 
    1.4361733706227572E+01 
    1.6922968129877866E+01 
    1.8507118229827086E+01 
    8.2660712705274246E+00 
    1.5277901307667179E+01 
    1.2875851499675370E+01 
    7.3695073828848914E+00 
    1.1351474608694875E+01 
    1.5001480228202846E+01 
    1.7355524381422725E+01 
    1.2330357964783001E+01 
    1.7480165233685579E+01 
    1.7213146697787920E+01 
    1.7151630424358402E+01 
    1.2171817897743635E+01 
    1.0832442350489934E+01 
    1.6938317606882421E+01 
    1.1023823997074329E+01 
    1.2410897341421288E+01 
    1.0826912559500760E+01 
    1.2386113236437033E+01 
    1.7415322000677190E+01 
    7.8707556803450993E+00 
    1.1251404598892668E+01 
    1.8064777429764550E+01 
    1.2179917674646564E+01 
    1.3656898426144078E+01 
    8.0753409020302467E+00 
    1.1089985244329112E+01 
    1.7188214350022708E+01 
    1.7542857957861216E+01 
    6.6180425433125061E+00 
    1.2192565570297065E+01 
    1.0892932743674073E+01 
    1.8975759477941150E+01 
    1.8373739216870270E+01 
    1.9256367025206771E+01 
    1.2212296213476273E+01 
    1.7380099222481274E+01 
    1.6861159253902226E+01 
    1.2072483807658790E+01 
    1.6930675309154939E+01 
    1.2653357462465843E+01 
    7.4459431435379573E+00 
    1.2579756762167440E+01 
    1.8046222903914927E+01 
    1.6927080595318586E+01 
    8.5819470494877521E+00 
    1.6961650218097429E+01 
    1.3531559840733903E+01 
    1.2513884386793663E+01 
    1.2022158149987092E+01 
    1.6770219070046650E+01 
    1.3078554457916034E+01 
    1.6944928746271369E+01 
    1.2194793625402555E+01 
    7.6789781950835563E+00 
    1.2487475953017050E+01 
    1.0693755548145651E+01 
    1.5407297676624909E+01 
    1.8277098021920054E+01 
    1.6935179382102817E+01 
    1.8135005436835694E+01 
    1.2121512468304267E+01 
    8.3348402665372578E+00 
    8.4445234096718362E+00 
    1.2716507913532324E+01 
    1.2383147758275616E+01 
    1.9075974835785992E+00 
    1.6308268580326313E+01 
    1.8676806075626178E+01 
    1.1884349383149566E+01 
    7.7825435512232097E+00 
    1.4207166494759480E+01 
    1.6959114880699783E+01 
    9.1683857538370432E+00 
    6.2916786083582776E+00 
    1.2367443172150054E+01 
    1.7041798627940629E+01 
    1.7836729443299728E+01 
    1.7654654180956676E+01 
    1.7543852765394270E+01 
    8.9788904752129515E+00 
    1.2507486792565658E+01 
    1.6389475348775029E+01 
    9.8023825484747817E+00 
    1.7350325605130077E+01 
    1.4620398900993928E+01 
    8.5526537069846711E+00 
    1.7058519845541522E+01 
    1.8173766090224646E+01 
    1.7132874544984876E+01 
    8.8386570295919462E+00 
    1.2432305717685548E+01 
    9.6891442584507512E+00 
    1.1765231266103854E+01 
    1.6949855005058062E+01 
    1.6936056072425103E+01 
    8.8880212672848806E+00 
    1.7975235355876084E+01 
    1.3019449365627001E+01 
    1.6967292846145984E+01 
    1.7969943097874630E+01 
    1.6955543022116462E+01 
    1.5608262657885172E+01 
    1.9037144125996210E+01 
    1.1829699652744887E+01 
    1.8099525193367477E+01 
    1.6999619501116371E+01 
    1.8183173958073358E+01 
    1.7972246714579128E+01 
    1.1939874413337012E+01 
    1.2280501216355633E+01 
    1.1874900212084343E+01 
    1.4957779783900536E+01 
    5.1449618981665672E+00 
    1.2646803443237101E+01 
    1.9171502828408919E+01 
    1.2657803994814783E+01 
    1.2874333451355321E+01 
    1.8152234599494960E+01 
    1.8412331246741950E+01 
    1.1734645638691847E+01 
    1.6966774042457697E+01 
    1.6930846378432534E+01 
    1.2859729379352022E+01 
    1.7923328538138559E+01 
    8.9944887294779843E+00 
    5.7921172601974815E+00 
    1.3188908399928243E+01 
    1.2671317460642801E+01 
    1.6935326932983642E+01 
    8.3308144646081264E+00 
    1.7576814732863937E+01 
    5.9083493060910408E+00 
    1.2606027943640365E+01 
    1.1963175287469246E+01 
    1.2409354997266023E+01 
    2.0523534606308175E+01 
    4.9983456770540631E+00 
    1.2554999185279009E+01 
    1.4935061440601945E+01 
    1.2016696755015017E+01 
    9.7638366337361973E+00 
    1.7740917023479760E+01 
    2.0084006898883363E+01 
    1.7882865785053514E+01 
    1.2488333758182742E+01 
    7.3380112460115914E+00 
    1.9920194122494859E+01 
    1.7316101909043073E+01 
    9.2701085979021673E+00 
    1.2099874506201298E+01 
    1.8616435777745302E+01 
    4.2456236266230079E+00 
    1.2731346682331168E+01 
    1.7894559892522160E+01 
    1.2424538019495813E+01 
    1.0886890241141584E+01 
    1.2599184449617512E+01 
    1.6537213596112949E+01 
    1.2406949495509140E+01 
    6.5580872464392463E+00 
    1.2252469480617032E+00 
    9.3907500281351339E+00 
    1.8866860925291967E+01 
    1.1874107178464746E+01 
    1.3979488218029084E+01 
    1.3420507572870340E+01 
    1.5315909210896292E+01 
    1.2437958729566182E+01 
    1.7209270963296319E+01 
    2.0537910838629742E+01 
    1.4620159259673985E+01 
    1.8067340348717160E+01 
    7.0883972970140485E-01 
    1.6938338236595143E+01 
    7.2066666786346874E+00 
    1.9350987710854440E+01 
    1.2570138051665717E+01 
    1.1102355358359906E+01 
    9.8732745678603990E+00 
    6.8785728484559430E+00 
    1.3744456780448708E+01 
    9.9225695708953943E+00 
    1.5291907582193469E+01 
    2.9136930964516234E+00 
    1.3574990609996137E+01 
    1.6852211549118387E+01 
    7.6675122416166683E+00 
    1.7449446948564557E+01 
    1.9140997834731635E+01 
    1.7290781074545556E+01 
    1.2419877267764187E+01 
    1.2403287416015548E+01 
    1.2562053258319727E+01 
    7.4362048946694639E+00 
    1.1574238513341896E+01 
    1.1402163324912408E+01 
    1.2549857597037141E+01 
    1.1799337595031401E+01 
    9.1171723021524620E-01 
    8.2028970304076179E+00 
    1.2220203873987103E+01 
    1.2521917706449665E+01 
    1.5724238707707148E+01 
    2.7764641803592793E+00 
    1.2812840239820515E+01 
    1.2679290924400620E+01 
    4.8081766820025624E+00 
    1.7135427893313217E+01 
    1.1028564503656485E+01 
    1.2536576089555021E+01 
    1.7323304113439754E+01 
    6.9038890617003883E+00 
    1.7259259177923241E+01 
    1.1173046329924672E+01 
    1.2559794058864078E+00 
    1.1940403947363482E+01 
    1.8006507891881029E+01 
    1.6937756206702467E+01 
    1.6958225851316215E+01 
    1.2944371717965197E+01 
    1.2608955391896947E+01 
    1.1020288363923930E+01 
    8.8786531137086708E+00 
    1.7453436635348659E+01 
    1.2094991884185307E+01 
    8.6450055529607681E+00 
    1.6953723025316044E+01 
    1.7742995438282268E+01 
    1.2741613751826121E+01 
    1.2228180775011092E+01 
    2.0414527286310854E+01 
    1.2860848801376164E+01 
    1.7463127539003164E+01 
    1.0509641163345059E+01 
    2.0565808432796363E+01 
    8.3934318025105554E+00 
    1.1447069237873357E+01 
    9.3943684521869049E+00 
    1.3131409956522363E+01 
    1.0667464229048498E+01 
    2.0549268650541233E+01 
    1.2916994913273356E+01 
    1.6465907973589935E+01 
    8.6360808886346678E+00 
    1.2432611162876446E+01 
    1.7272830933082560E+01 
    1.0733069807190114E+01 
    9.2466622907349532E+00 
    1.3897169464588721E+01 
    1.7523096198713720E+01 
    9.2057917126285993E+00 
    1.1987174749437171E+01 
    1.2264605142312778E+01 
    1.6909986014949979E+01 
    1.2039136262841163E+01 
    1.7499380726521959E+01 
    1.8216136045385834E+01 
    1.1052733972231252E+01 
    1.0848745011428267E+01 
    9.9414711932974438E+00 
    1.7073514775963780E+01 
    1.2703417818274717E+01 
    2.0121142407207206E+01 
    1.5768684022567436E+01 
    1.7228950726441656E+01 
    1.9787427630105149E+01 
    1.9142605492263868E+01 
    1.2479095019253187E+01 
    1.2532994337853490E+01 
    1.6608162936762071E+01 
    1.6983273960484546E+01 
    1.7649694882251030E+01 
    1.7344763965125164E+01 
    2.0439023281608172E+01 
    1.2860284597807055E+01 
    1.1166147642512295E+01 
    1.2840606814349846E+01 
    1.8116446503239374E+01 
    1.2573678306088686E+01 
    7.5309822185255531E+00 
    1.2401946747259650E+01 
    1.8586187638735293E+01 
    1.2719976770724550E+01 
    1.1174606621083980E+01 
    1.2206484504693993E+01 
    1.8706701027990714E+01 
    1.7035150382581286E+01 
    1.0702609986354668E+01 
    1.8859427606538578E+01 
    1.2507363710655007E+01 
    1.7620890842532809E+01 
    1.8722934039719611E+01 
    1.3199732890659709E+01 
    6.9118892732605737E+00 
    1.3699894675991551E+01 
    7.1411791326359939E+00 
    1.2623361913573973E+01 
    1.2428815859711282E+01 
    1.4408034172092334E+01 
    7.5401700826370561E+00 
    1.5309320949126761E+01 
    1.2445273828765936E+01 
    1.7330597829977869E+01 
    1.3341125242473042E+01 
    1.0396700272946324E+01 
    1.2066945664639823E+01 
    1.3115433723241042E+01 
    1.2981416294156938E+01 
    1.8272738448625390E+01 
    1.0710392157758591E+01 
    1.0530329691335917E+01 
    7.9222376254733158E+00 
    1.7676637250191995E+01 
    1.2113163894547728E+01 
    1.6746889414891449E+01 
    1.2398069178042899E+01 
    8.6597933374903366E+00 
    1.7061620188450409E+01 
    1.2375107825187960E+01 
    9.4258530818306205E+00 
    9.9537017326107193E+00 
    1.0283364033012624E+01 
    1.7372433378602285E+01 
    1.2552065292376723E+01 
    1.8081329074727446E+01 
    1.2336275216626426E+01 
    1.2276391672743213E+01 
    1.1897366653089081E+01 
    1.7172896054921637E+01 
    1.2191088553720348E+01 
    1.0332608276805294E+01 
    1.9129310599278142E+01 
    1.7278542601912086E+01 
    8.7941391214127744E+00 
    3.5140561271753579E+00 
    1.2540431156069246E+01 
    1.1732936230677273E+01 
    1.0844986289927805E+01 
    1.1676398090737933E+01 
    1.7182933557650138E+01 
    1.2215753523888157E+01 
    1.1206154928554870E+01 
    1.7009290438191254E+01 
    8.7062166064768132E+00 
    1.6581841201112557E+01 
    1.1326899180953577E+01 
    1.0318794290728533E+01 
    1.0939693074910629E+01 
    1.7717112449687338E+01 
    1.2411859974932486E+01 
    1.2420271732658131E+01 
    7.6446281347118683E+00 
    8.2464406442503186E+00 
    1.5608127165296416E+01 
    1.2430092747687702E+01 
    1.2584661789893390E+01 
    1.8842722512037053E+01 
    1.0523840314932034E+01 
    1.2442297274816152E+01 
    8.9935440660846311E+00 
    9.2641707888637441E+00 
    1.7155634505925818E+01 
    1.2064666366515601E+01 
    9.0684434786341601E+00 
    1.2986781360442359E+01 
    1.2333967921999955E+01 
    1.7161124127631300E+01 
    1.8944294495427595E+01 
    1.3342264378137556E+00 
    1.2545840322594929E+01 
    1.2670044674937749E+01 
    1.7249977306979098E+01 
    1.2017074850863363E+01 
    1.2384360301343948E+01 
    1.8337814103469508E+01 
    1.0981787107965259E+01 
    9.1470077789707833E+00 
    1.4807421148952981E+01 
    1.6954083071408167E+01 
    1.8181507669082503E+01 
    1.8474211895828105E+01 
    1.2371687785576807E+01 
    1.2536423805843134E+01 
    1.3796473317267116E+01 
    8.3826062638843410E+00 
    1.7109370067198519E+01 
    9.8376727062294069E+00 
    8.7003328374679647E+00 
    1.5383632226520078E+01 
    1.4467696818321592E+01 
    8.5463410960265822E+00 
    1.6996457007428614E+01 
    1.8165568445492180E+01 
    1.2878732337411467E+01 
    1.9054931704669020E+01 
    1.7035969670220915E+01 
    1.2084300681289335E+01 
    1.7855238007045113E+01 
    9.2664636393795252E+00 
    1.6976340382618659E+01 
    1.2544665577693003E+01 
    1.2502338974369502E+01 
    1.9030366760982577E+01 
    1.2154736076761369E+01 
    1.5059831110794093E+01 
    1.0914568275726895E+01 
    1.8299314072069489E+01 
    1.6863889265109567E+01 
    1.1354732646261832E+01 
    1.6922841384264061E+01 
    1.1388170201295020E+01 
    1.2391410043500573E+01 
    1.8118750768821712E+01 
    1.7346970263942517E+01 
    1.8169085552324120E+01 
    1.7255520755249830E+01 
    1.1585970907329338E+01 
    1.1815035261548235E+01 
    1.8177313823116513E+01 
    1.1954294203427001E+01 
    1.6739565856359018E+01 
    1.2136071018165463E+01 
    5.1948451365658741E+00 
    8.7661010430215498E+00 
    8.1456681665088748E+00 
    1.8122855750279140E+01 
    1.8951619833295634E+01 
    1.6945421422693318E+01 
    1.4179237018312044E+01 
    1.7287060040491458E+01 
    1.7006667368946005E+01 
    1.7709590633648649E+01 
    7.3906551166062462E+00 
    4.8335812002000695E+00 
    1.3920560265985014E+01 
    1.2185525387933657E+01 
    1.7186676350678116E+01 
    1.7183799141498575E+01 
    1.2690746883179029E+01 
    1.7228638989552124E+01 
    1.2530138483049894E+01 
    1.2432485209107995E+01 
    6.6898602157625016E+00 
    4.8117602002243620E+00 
    1.8701017863632206E+01 
    9.8148206325091927E+00 
    1.1273166080712388E+01 
    1.2585522134548569E+01 
    2.0417139908694622E+01 
    1.2680157784513169E+01 
    1.2862905848765189E+01 
    5.4994551706548451E+00 
    1.2680122514230174E+01 
    1.2694834014857740E+01 
    1.7494598311818347E+01 
    1.0941297730618647E+01 
    1.1932877998609724E+01 
    1.8889689851636895E+01 
    1.2554996339663905E+01 
    1.6964728333854524E+01 
    1.7227573897399164E+01 
    1.5122826201710115E+01 
    1.0641108369595196E+01 
    1.7256390772520650E+01 
    1.2332244374871557E+01 
    1.7152009778123844E+01 
    1.6893995888283587E+01 
    1.8145160952955472E+01 
    1.7247708399166807E+01 
    1.5995452837250117E+01 
    1.2542540773923729E+01 
    8.4620333435879207E+00 
    2.0287208989928324E+01 
    1.0035213601988136E+01 
    1.8050379033737837E+01 
    1.2539704484584528E+01 
    1.0581979600772080E+01 
    6.4114550445479281E+00 
    1.2733261938999272E+01 
    1.7237442116091060E+01 
    1.7234541893775742E+01 
    1.2371482110465289E+01 
    1.2533332660977997E+01 
    1.9115626194085500E+01 
    1.8410743195965107E+01 
    1.2701051762853776E+01 
    4.5003315733924865E+00 
    1.5859760531159459E+01 
    2.0546194935306204E+01 
    1.2546169821707437E+01 
    1.4631377961474920E+01 
    1.2015471157581940E+01 
    2.0138723668734659E+01 
    1.8503820411534100E+01 
    1.8224024336719776E+01 
    1.2724593666575444E+01 
    5.9410071183239923E+00 
    1.1971241704247204E+01 
    1.2041085590162677E+01 
    1.2085915146914163E+01 
    4.9181876500991875E+00 