# vtk DataFile Version 2.0
Pressure Field Data 
ASCII 
DATASET UNSTRUCTURED_GRID 

POINTS 2860 double 

    0.0000000000000000E+00     0.0000000000000000E+00     0.0000000000000000E+00 
    1.0000000000000000E+00     0.0000000000000000E+00     0.0000000000000000E+00 
    1.0000000000000000E+00     1.0000000000000000E+00     0.0000000000000000E+00 
    0.0000000000000000E+00     1.0000000000000000E+00     0.0000000000000000E+00 
    2.5000000000000000E-01     2.5000000000000000E-01     0.0000000000000000E+00 
    7.5000000000000000E-01     2.5000000000000000E-01     0.0000000000000000E+00 
    7.5000000000000000E-01     7.5000000000000000E-01     0.0000000000000000E+00 
    2.5000000000000000E-01     7.5000000000000000E-01     0.0000000000000000E+00 
    3.1249999999942091E-02     0.0000000000000000E+00     0.0000000000000000E+00 
    6.2499999999873469E-02     0.0000000000000000E+00     0.0000000000000000E+00 
    9.3749999999826514E-02     0.0000000000000000E+00     0.0000000000000000E+00 
    1.2499999999977961E-01     0.0000000000000000E+00     0.0000000000000000E+00 
    1.5624999999968961E-01     0.0000000000000000E+00     0.0000000000000000E+00 
    1.8749999999959971E-01     0.0000000000000000E+00     0.0000000000000000E+00 
    2.1874999999950970E-01     0.0000000000000000E+00     0.0000000000000000E+00 
    2.4999999999941969E-01     0.0000000000000000E+00     0.0000000000000000E+00 
    2.8124999999932920E-01     0.0000000000000000E+00     0.0000000000000000E+00 
    3.1249999999923850E-01     0.0000000000000000E+00     0.0000000000000000E+00 
    3.4374999999914790E-01     0.0000000000000000E+00     0.0000000000000000E+00 
    3.7499999999905720E-01     0.0000000000000000E+00     0.0000000000000000E+00 
    4.0624999999896660E-01     0.0000000000000000E+00     0.0000000000000000E+00 
    4.3749999999887590E-01     0.0000000000000000E+00     0.0000000000000000E+00 
    4.6874999999878530E-01     0.0000000000000000E+00     0.0000000000000000E+00 
    4.9999999999869471E-01     0.0000000000000000E+00     0.0000000000000000E+00 
    5.3124999999877620E-01     0.0000000000000000E+00     0.0000000000000000E+00 
    5.6249999999885780E-01     0.0000000000000000E+00     0.0000000000000000E+00 
    5.9374999999893940E-01     0.0000000000000000E+00     0.0000000000000000E+00 
    6.2499999999902101E-01     0.0000000000000000E+00     0.0000000000000000E+00 
    6.5624999999910261E-01     0.0000000000000000E+00     0.0000000000000000E+00 
    6.8749999999918421E-01     0.0000000000000000E+00     0.0000000000000000E+00 
    7.1874999999926570E-01     0.0000000000000000E+00     0.0000000000000000E+00 
    7.4999999999934730E-01     0.0000000000000000E+00     0.0000000000000000E+00 
    7.8124999999942890E-01     0.0000000000000000E+00     0.0000000000000000E+00 
    8.1249999999951039E-01     0.0000000000000000E+00     0.0000000000000000E+00 
    8.4374999999959199E-01     0.0000000000000000E+00     0.0000000000000000E+00 
    8.7499999999967359E-01     0.0000000000000000E+00     0.0000000000000000E+00 
    9.0624999999975520E-01     0.0000000000000000E+00     0.0000000000000000E+00 
    9.3749999999983680E-01     0.0000000000000000E+00     0.0000000000000000E+00 
    9.6874999999991840E-01     0.0000000000000000E+00     0.0000000000000000E+00 
    1.0000000000000000E+00     3.1249999999942091E-02     0.0000000000000000E+00 
    1.0000000000000000E+00     6.2499999999873469E-02     0.0000000000000000E+00 
    1.0000000000000000E+00     9.3749999999826514E-02     0.0000000000000000E+00 
    1.0000000000000000E+00     1.2499999999977961E-01     0.0000000000000000E+00 
    1.0000000000000000E+00     1.5624999999968961E-01     0.0000000000000000E+00 
    1.0000000000000000E+00     1.8749999999959971E-01     0.0000000000000000E+00 
    1.0000000000000000E+00     2.1874999999950970E-01     0.0000000000000000E+00 
    1.0000000000000000E+00     2.4999999999941969E-01     0.0000000000000000E+00 
    1.0000000000000000E+00     2.8124999999932920E-01     0.0000000000000000E+00 
    1.0000000000000000E+00     3.1249999999923850E-01     0.0000000000000000E+00 
    1.0000000000000000E+00     3.4374999999914790E-01     0.0000000000000000E+00 
    1.0000000000000000E+00     3.7499999999905720E-01     0.0000000000000000E+00 
    1.0000000000000000E+00     4.0624999999896660E-01     0.0000000000000000E+00 
    1.0000000000000000E+00     4.3749999999887590E-01     0.0000000000000000E+00 
    1.0000000000000000E+00     4.6874999999878530E-01     0.0000000000000000E+00 
    1.0000000000000000E+00     4.9999999999869471E-01     0.0000000000000000E+00 
    1.0000000000000000E+00     5.3124999999877620E-01     0.0000000000000000E+00 
    1.0000000000000000E+00     5.6249999999885780E-01     0.0000000000000000E+00 
    1.0000000000000000E+00     5.9374999999893940E-01     0.0000000000000000E+00 
    1.0000000000000000E+00     6.2499999999902101E-01     0.0000000000000000E+00 
    1.0000000000000000E+00     6.5624999999910261E-01     0.0000000000000000E+00 
    1.0000000000000000E+00     6.8749999999918421E-01     0.0000000000000000E+00 
    1.0000000000000000E+00     7.1874999999926570E-01     0.0000000000000000E+00 
    1.0000000000000000E+00     7.4999999999934730E-01     0.0000000000000000E+00 
    1.0000000000000000E+00     7.8124999999942890E-01     0.0000000000000000E+00 
    1.0000000000000000E+00     8.1249999999951039E-01     0.0000000000000000E+00 
    1.0000000000000000E+00     8.4374999999959199E-01     0.0000000000000000E+00 
    1.0000000000000000E+00     8.7499999999967359E-01     0.0000000000000000E+00 
    1.0000000000000000E+00     9.0624999999975520E-01     0.0000000000000000E+00 
    1.0000000000000000E+00     9.3749999999983680E-01     0.0000000000000000E+00 
    1.0000000000000000E+00     9.6874999999991840E-01     0.0000000000000000E+00 
    9.6875000000003686E-01     1.0000000000000000E+00     0.0000000000000000E+00 
    9.3750000000011691E-01     1.0000000000000000E+00     0.0000000000000000E+00 
    9.0625000000015765E-01     1.0000000000000000E+00     0.0000000000000000E+00 
    8.7500000000017863E-01     1.0000000000000000E+00     0.0000000000000000E+00 
    8.4375000000028044E-01     1.0000000000000000E+00     0.0000000000000000E+00 
    8.1250000000040856E-01     1.0000000000000000E+00     0.0000000000000000E+00 
    7.8125000000054956E-01     1.0000000000000000E+00     0.0000000000000000E+00 
    7.5000000000066480E-01     1.0000000000000000E+00     0.0000000000000000E+00 
    7.1875000000086831E-01     1.0000000000000000E+00     0.0000000000000000E+00 
    6.8750000000102829E-01     1.0000000000000000E+00     0.0000000000000000E+00 
    6.5625000000114431E-01     1.0000000000000000E+00     0.0000000000000000E+00 
    6.2500000000129829E-01     1.0000000000000000E+00     0.0000000000000000E+00 
    5.9375000000147926E-01     1.0000000000000000E+00     0.0000000000000000E+00 
    5.6250000000168354E-01     1.0000000000000000E+00     0.0000000000000000E+00 
    5.3125000000188671E-01     1.0000000000000000E+00     0.0000000000000000E+00 
    5.0000000000205835E-01     1.0000000000000000E+00     0.0000000000000000E+00 
    4.6875000000192979E-01     1.0000000000000000E+00     0.0000000000000000E+00 
    4.3750000000180111E-01     1.0000000000000000E+00     0.0000000000000000E+00 
    4.0625000000167238E-01     1.0000000000000000E+00     0.0000000000000000E+00 
    3.7500000000154382E-01     1.0000000000000000E+00     0.0000000000000000E+00 
    3.4375000000141509E-01     1.0000000000000000E+00     0.0000000000000000E+00 
    3.1250000000128642E-01     1.0000000000000000E+00     0.0000000000000000E+00 
    2.8125000000115769E-01     1.0000000000000000E+00     0.0000000000000000E+00 
    2.5000000000102918E-01     1.0000000000000000E+00     0.0000000000000000E+00 
    2.1875000000090050E-01     1.0000000000000000E+00     0.0000000000000000E+00 
    1.8750000000077180E-01     1.0000000000000000E+00     0.0000000000000000E+00 
    1.5625000000064329E-01     1.0000000000000000E+00     0.0000000000000000E+00 
    1.2500000000051459E-01     1.0000000000000000E+00     0.0000000000000000E+00 
    9.3750000000385914E-02     1.0000000000000000E+00     0.0000000000000000E+00 
    6.2500000000257239E-02     1.0000000000000000E+00     0.0000000000000000E+00 
    3.1250000000128557E-02     1.0000000000000000E+00     0.0000000000000000E+00 
    0.0000000000000000E+00     9.6875000000003686E-01     0.0000000000000000E+00 
    0.0000000000000000E+00     9.3750000000011691E-01     0.0000000000000000E+00 
    0.0000000000000000E+00     9.0625000000015765E-01     0.0000000000000000E+00 
    0.0000000000000000E+00     8.7500000000017863E-01     0.0000000000000000E+00 
    0.0000000000000000E+00     8.4375000000028044E-01     0.0000000000000000E+00 
    0.0000000000000000E+00     8.1250000000040856E-01     0.0000000000000000E+00 
    0.0000000000000000E+00     7.8125000000054956E-01     0.0000000000000000E+00 
    0.0000000000000000E+00     7.5000000000066480E-01     0.0000000000000000E+00 
    0.0000000000000000E+00     7.1875000000086831E-01     0.0000000000000000E+00 
    0.0000000000000000E+00     6.8750000000102829E-01     0.0000000000000000E+00 
    0.0000000000000000E+00     6.5625000000114431E-01     0.0000000000000000E+00 
    0.0000000000000000E+00     6.2500000000129829E-01     0.0000000000000000E+00 
    0.0000000000000000E+00     5.9375000000147926E-01     0.0000000000000000E+00 
    0.0000000000000000E+00     5.6250000000168354E-01     0.0000000000000000E+00 
    0.0000000000000000E+00     5.3125000000188671E-01     0.0000000000000000E+00 
    0.0000000000000000E+00     5.0000000000205835E-01     0.0000000000000000E+00 
    0.0000000000000000E+00     4.6875000000192979E-01     0.0000000000000000E+00 
    0.0000000000000000E+00     4.3750000000180111E-01     0.0000000000000000E+00 
    0.0000000000000000E+00     4.0625000000167238E-01     0.0000000000000000E+00 
[...]
CELL_DATA 2795 
SCALARS Pressure double 1 
LOOKUP_TABLE default 

    5.4439208062090536E+00 
    1.2246680014115009E+01 
    8.6412922962666485E+00 
    8.2936641816194534E+00 
    6.6460116705206644E+00 
    1.2140997352717905E+01 
    1.2780942455048642E+01 
    4.8763448683939341E+00 
    9.1431828470209133E+00 
    6.9566680912280843E+00 
    5.9136750278295214E+00 
    1.1920423299876873E+01 
    1.2162262995597757E+01 
    1.2114032949197075E+01 
    7.9374414009235519E+00 
    4.7938147279718670E+00 
    7.6457429110322757E+00 
    6.3022578784794794E+00 
    1.1609235077538894E+01 
    8.6379115681412291E+00 
    8.5238650416649993E+00 
    1.2057763638811947E+01 
    8.0644449571245591E+00 
    3.2965955748642223E-01 
    1.1905489562403766E+01 
    1.2138672243057929E+01 
    1.2809732405059030E+01 
    5.6842829499966285E+00 
    1.1851789427828960E+01 
    1.2796119761410287E+01 
    8.7471648214352786E+00 
    8.8696641606190827E+00 
    6.0993235243211847E+00 
    8.6020938921604735E+00 
    2.8285598781000072E+00 
    7.6479409382645853E+00 
    8.5933563762257847E+00 
    1.2831470225242876E+01 
    1.2761580609273842E+01 
    1.1931845941158615E+01 
    6.5911282461133389E+00 
    1.1884189530901985E+01 
    6.8332714108622805E-01 
    8.5165554815039375E+00 
    1.2593132118651573E+01 
    1.2450878479028381E+01 
    1.1911097218143397E+01 
    9.4526814025441919E+00 
    1.1973893774605449E+01 
    7.8168433590190665E+00 
    7.4577759581867014E+00 
    8.8355231095439546E+00 
    8.4068167379653982E+00 
    7.6910444180182740E+00 
    8.8200225690795016E+00 
    1.1429534039477488E+01 
    1.0320620638577886E+01 
    6.6808357193914762E+00 
    1.2060976135022134E+01 
    1.1996138810489587E+01 
    8.3342524403805029E+00 
    8.2948913656170618E+00 
    8.2099580183566960E+00 
    1.2709511813296736E+01 
    1.2940764632374339E+01 
    7.6561061043046816E+00 
    8.8335726166763617E+00 
    1.1839439835315433E+01 
    1.0128698486390592E+01 
    8.3255856108521744E+00 
    1.2953165467854713E+01 
    1.2001426595373974E+01 
    7.5497711377631385E+00 
    1.2533723426256969E+01 
    9.0487277523459166E+00 
    1.1776919270606417E+01 
    1.2844964983892037E+01 
    8.9564794132363712E+00 
    5.5089070280314063E+00 
    8.8501317858824535E+00 
    1.2768512654598524E+01 
    1.2970524891141505E+01 
    7.6719173324452417E+00 
    8.7633827922475458E+00 
    1.3013095970174703E+01 
    8.5997211183082971E+00 
    8.1380524470802698E+00 
    1.0482216464129429E+01 
    5.2845041794060137E+00 
    7.4798373474096893E+00 
    8.7651383519849411E+00 
    9.2650290571519012E+00 
    1.4358554857268139E+01 
    6.4630758987914305E+00 
    8.8407115957436204E+00 
    1.1892307580166001E+01 
    1.2119331507305299E+01 
    5.7105296014178233E+00 
    8.4711001983514720E+00 
    8.7925555551711518E+00 
    1.2137525443463824E+01 
    8.8003587940781021E+00 
    1.2077814253620875E+01 
    3.5059689391135582E+00 
    5.7469339158527566E+00 
    9.0359593747793792E+00 
    1.2254376214452659E+01 
    7.6181606770074985E+00 
    8.1485778547843957E+00 
    8.7862357618921347E+00 
    8.1147384710664756E+00 
    9.9975462380491216E+00 
    7.9201969798567244E+00 
    7.5566179872053958E+00 
    5.9966667383555441E+00 
    1.0244148274067452E+01 
    8.8712895826419746E+00 
    1.2632249802992460E+01 
    7.5742535512541052E+00 
    8.2829013435256655E+00 
    1.1991130373598098E+01 
    6.9482963103238866E+00 
    1.2387658514399643E+01 
    8.6817659232443116E+00 
    8.2191868339840131E+00 
    1.2121389400843084E+01 
    8.8618145630553489E+00 
    1.2854813207183293E+01 
    1.0492746411328371E+01 
    1.1300576492596120E+01 
    1.2824756787262375E+01 
    6.4752889333297068E+00 
    9.0526403626456791E+00 
    1.2123642237704468E+01 
    2.6328439940907309E+00 
    8.7982807187819336E+00 
    1.2795084342205101E+01 
    8.2482830682474795E+00 
    9.5143563834036939E+00 
    5.6556195614423324E+00 
    1.1891786988368002E+01 
    1.4817205088172422E+01 
    1.0891493708049861E+01 
    8.2427388628542193E+00 
    7.3935875335734664E+00 
    9.4678418216529767E+00 
    8.6977816438234914E+00 
    5.9763854381506665E+00 
    1.2818361492626321E+01 
    1.2224691181956668E+01 
    1.1893875729187398E+01 
    9.2752721603743957E+00 
    7.5299750073343281E+00 
    8.5227490097752767E+00 
    1.2556735050092577E+01 
    7.7299428838179516E+00 
    8.6485993153605421E+00 
    7.8669751665951484E+00 
    1.0034719787428241E+01 
    1.4806059934602205E+01 
    1.1886278512632343E+01 
    7.4903651735248422E+00 
    1.2290585950108413E+01 
    1.2218082256982452E+01 
    1.2289099881107392E+01 
    1.3189840213036305E+01 
    1.3686956272556865E+01 
    1.2444983919072358E+01 
    8.8259754607684489E+00 
    9.4086727196619293E+00 
    1.2291532749091960E+01 
    1.2645573224927769E+01 
    6.2269707193136572E+00 
    1.1910583750615981E+01 
    1.2522072690601734E+01 
    6.0742280345690096E+00 
    1.3108648006048346E+01 
    1.3098772844468858E+01 
    1.1669072740933618E+01 
    9.1084667426527037E+00 
    2.3422697512085873E+00 
    1.2792811792589980E+01 
    8.9858383942472102E+00 
    1.2900354331807803E+01 
    8.1916426742455535E+00 
    1.2644522498080836E+01 
    8.3217884129268549E-01 
    1.1316177019296770E+01 
    8.3349067670163723E+00 
    7.4954619089812446E+00 
    7.3084874252074883E+00 
    8.6535155134244075E+00 
    9.6890834654932139E+00 
    8.9781678885970670E+00 
    6.0588082210896719E+00 
    1.2638736848889749E+01 
    1.2145454828114612E+01 
    1.0236712246777092E+01 
    9.0289375595201609E+00 
    1.3460955106906101E+00 
    6.7662703764914074E+00 
    4.7158279023973169E+00 
    1.2806471383574038E+01 
    9.9044155780516103E+00 
    1.2201066013922201E+01 
    1.2203988294879348E+01 
    7.8126848763686025E+00 
    1.0318871028961185E+01 
    1.1889436621484114E+01 
    1.3084478820000902E+01 
    5.6458577652927646E+00 
    1.0724833758819923E+01 
    9.0241823328051343E+00 
    5.0324130567826222E+00 
    7.7919023561521206E+00 
    1.0742679484677224E+01 
    1.2170215325892531E+01 
    8.7119503314062410E+00 
    1.2268933870095291E+01 
    1.2059955951985089E+01 
    1.2015576242798014E+01 
    8.5294306475115853E+00 
    7.4550778835248872E+00 
    1.1901392475077145E+01 
    7.5470866853351239E+00 
    8.8029623991264838E+00 
    7.4040776502408612E+00 
    8.5934520177891649E+00 
    1.2211768981121022E+01 
    5.4204882479379242E+00 
    7.7191171878951792E+00 
    1.2732631026831925E+01 
    8.5439397676623674E+00 
    9.7995984563821086E+00 
    5.5613159312464333E+00 
    7.5958248387068386E+00 
    1.2040853844591405E+01 
    1.2318688804911595E+01 
    4.5563589679982393E+00 
    8.5461734498813904E+00 
    7.4435822061314125E+00 
    1.3470958444925046E+01 
    1.2978835722109331E+01 
    1.3710165822564656E+01 
    8.5681740167949414E+00 
    1.2188273078099034E+01 
    1.1852469157558794E+01 
    8.4488515544568923E+00 
    1.1893957436219114E+01 
    9.0297825470906510E+00 
    5.0713319171153248E+00 
    8.8071950386176709E+00 
    1.2718321621547847E+01 
    1.1891144639573730E+01 
    5.8824893642191283E+00 
    1.1916628032749484E+01 
    9.6980561900069198E+00 
    8.7817426154345704E+00 
    8.3232536014297782E+00 
    1.1776097921984482E+01 
    9.3081749569324295E+00 
    1.1905680944516302E+01 
    8.4663141230393002E+00 
    5.2032973664952173E+00 
    8.8690605450501785E+00 
    7.3167060719102039E+00 
    1.0893863301435470E+01 
    1.2899945076499465E+01 
    1.1900431773787249E+01 
    1.2788477840936398E+01 
    8.4953919106352345E+00 
    5.7350279501025261E+00 
    5.8146455372232984E+00 
    8.9634567885023042E+00 
    8.7808986166962555E+00 
    1.2861690882067547E+00 
    1.1473158111295582E+01 
    1.3216966159517371E+01 
    8.1988062289170784E+00 
    5.3129070803911072E+00 
    9.9800030635695034E+00 
    1.1915359633501474E+01 
    6.2684569933720553E+00 
    4.2998379879889947E+00 
    8.7544263600356178E+00 
    1.2002671012265216E+01 
    1.2553098812827125E+01 
    1.2457229592701999E+01 
    1.2322155269851674E+01 
    6.1271610489463431E+00 
    8.7716207861622202E+00 
    1.1490173473127886E+01 
    6.8290922914132182E+00 
    1.2150768876978967E+01 
    1.0507865237501408E+01 
    5.8961812298906358E+00 
    1.2009897554090399E+01 
    1.2800660988788422E+01 
    1.2008380901845623E+01 
    6.0452986657434336E+00 
    8.8299885803652671E+00 
    6.6259272827000570E+00 
    8.3168375893182223E+00 
    1.1907980247003307E+01 
    1.1897830298480873E+01 
    6.0793224245178354E+00 
    1.2680254446093970E+01 
    9.3097186646137704E+00 
    1.1932484869759691E+01 
    1.2651760575969083E+01 
    1.1919192310347830E+01 
    1.1103719284666351E+01 
    1.3516987642726010E+01 
    8.1738374997720893E+00 
    1.2761594013314555E+01 
    1.1960292184038755E+01 
    1.2825787232340517E+01 
    1.2674323218641637E+01 
    8.2582066827022995E+00 
    8.6349672112635645E+00 
    8.1892771705622227E+00 
    1.0679823156165975E+01 
    3.5155724462766069E+00 
    8.8986954127295146E+00 
    1.3634503209407908E+01 
    9.0323540466545733E+00 
    9.1993005849415059E+00 
    1.2801144056599052E+01 
    1.3015760829969773E+01 
    8.1497923012577385E+00 
    1.1920341958386009E+01 
    1.1895017909558115E+01 
    9.1882406196664572E+00 
    1.2633945946820468E+01 
    6.1991327080654086E+00 
    3.9851711303599395E+00 
    9.4389326999323053E+00 
    9.0448072627649321E+00 
    1.1899521749950731E+01 
    5.6962261593140164E+00 
    1.2382746366020578E+01 
    4.0613954583713996E+00 
    8.9869482864168901E+00 
    8.3329397418418996E+00 
    8.8078388633543891E+00 
    1.4854912411229593E+01 
    3.4168128691980226E+00 
    8.8164649973702058E+00 
    1.0424328869549452E+01 
    8.4065380623734178E+00 
    6.6732091355065242E+00 
    1.2489035769043623E+01 
    1.4445471743153359E+01 
    1.2617338740343564E+01 
    8.7608030749770336E+00 
    5.0148190223618156E+00 
    1.4302694441852736E+01 
    1.2135306252261444E+01 
    6.2893263087767819E+00 
    8.3659908318441474E+00 
    1.3174800535585380E+01 
    2.8997907452023761E+00 
    9.0898946599259993E+00 
    1.2586543107293034E+01 
    8.8201849720212184E+00 
    7.6501766238792772E+00 
    8.8558753123180960E+00 
    1.1681113804612087E+01 
    8.8010934029880499E+00 
    4.4825144365129104E+00 
    8.1773444979971910E-01 
    6.5062578965756579E+00 
    1.3370227233793885E+01 
    8.1875579031349250E+00 
    1.0068608284254088E+01 
    9.6147228353332199E+00 
    1.0960874537307488E+01 
    8.8332988544418942E+00 
    1.2054823312852164E+01 
    1.4868485953740816E+01 
    1.0402267057520730E+01 
    1.2736862920102514E+01 
    4.8724935959737459E-01 
    1.1899487151930641E+01 
    4.8737172038992673E+00 
    1.3791995477543530E+01 
    8.8299777244460103E+00 
    7.7546302477723072E+00 
    6.7519359953892302E+00 
    4.7059631592532467E+00 
    9.8319551420784101E+00 
    6.8941936886062631E+00 
    1.0801901101942738E+01 
    1.9904372074082120E+00 
    9.7290800183001398E+00 
    1.1841101419286986E+01 
    5.2810267912825681E+00 
    1.2336145107788058E+01 
    1.3626110480037124E+01 
    1.2211995078461067E+01 
    8.7045287297337648E+00 
    8.8025477944169577E+00 
    8.8227050570934438E+00 
    5.0865401353588044E+00 
    7.9565409643201468E+00 
    7.8263797718341674E+00 
    8.8119253213813398E+00 
    8.1341491166967490E+00 
    6.1486162318859539E-01 
    5.5854684285034342E+00 
    8.4684042619358681E+00 
    8.7885136372219659E+00 
    1.1099264867393584E+01 
    1.8954618104509686E+00 
    9.1523621178361161E+00 
    9.0495914040820704E+00 
    3.2890538184856859E+00 
    1.2091247478285885E+01 
    7.5692320235549131E+00 
    8.9245037422908506E+00 
    1.2132411134872298E+01 
    4.7204292624917166E+00 
    1.2194326846049206E+01 
    7.6546549299090145E+00 
    8.6124733203391912E-01 
    8.2422291522006681E+00 
    1.2691071779457349E+01 
    1.1899863040313129E+01 
    1.1918710680932733E+01 
    9.1669487814799613E+00 
    8.9902161136341423E+00 
    7.5446556454230960E+00 
    6.0696260674412184E+00 
    1.2229396182263583E+01 
    8.3665300726698622E+00 
    5.8430347882574560E+00 
    1.1912976925093600E+01 
    1.2523121269670160E+01 
    8.9900323422169954E+00 
    8.5929437695195361E+00 
    1.4755403119729992E+01 
    9.1890227625915717E+00 
    1.2246464890253419E+01 
    7.1839779294933681E+00 
    1.4896466042311147E+01 
    5.7806168688279600E+00 
    7.9240027267223097E+00 
    6.4658265837698243E+00 
    9.3940559453244443E+00 
    7.4252586265323757E+00 
    1.4880619600555248E+01 
    9.2316623943967571E+00 
    1.1625315885141298E+01 
    5.9441437632173235E+00 
    8.8305120893097797E+00 
    1.2105182231956165E+01 
    7.4421460572789861E+00 
    6.3384012822703175E+00 
    9.6889574992370395E+00 
    1.2319532217797937E+01 
    6.3815436224785440E+00 
    8.3495425758784112E+00 
    8.6192343355313366E+00 
    1.1878261689869147E+01 
    8.4320637898446460E+00 
    1.2287544201815372E+01 
    1.2851918735334309E+01 
    7.5674204922659083E+00 
    7.4229011287835354E+00 
    6.9354724728942356E+00 
    1.2004619236080053E+01 
    9.0604087618277696E+00 
    1.4480570267675102E+01 
    1.1331157908203300E+01 
    1.2068998401687407E+01 
    1.4184287872430803E+01 
    1.3628200675701546E+01 
    8.8762136749327478E+00 
    8.7976255625105981E+00 
    1.1696211501827127E+01 
    1.1932277487149195E+01 
    1.2384535328862523E+01 
    1.2153857957124510E+01 
    1.4773455927946634E+01 
    9.1886088776673880E+00 
    7.6551237454678791E+00 
    9.1685880644219768E+00 
    1.2774160652820806E+01 
    8.9617898870823307E+00 
    5.1727358361499736E+00 
    8.6895964208285026E+00 
    1.3146426825739118E+01 
    9.0814733338074465E+00 
    7.6573383645993864E+00 
    8.5574123639004185E+00 
    1.3246113311408406E+01 
    1.1932219189521392E+01 
    7.2907636487618452E+00 
    1.3373256346265926E+01 
    8.9033927791155580E+00 
    1.2380614874215787E+01 
    1.3260097257549880E+01 
    9.3218098135849221E+00 
    4.7169328086578393E+00 
    9.6734459720845560E+00 
    4.8766752415920207E+00 
    9.0042663629508528E+00 
    8.8198765609769012E+00 
    1.0167299765767387E+01 
    5.1524025638833315E+00 
    1.0789398871941794E+01 
    8.8425735638588314E+00 
    1.2144938754722613E+01 
    9.2683806014768670E+00 
    7.1032345954289626E+00 
    8.4423194782359552E+00 
    9.3407693794019409E+00 
    9.2813143099509787E+00 
    1.2889451886854086E+01 
    7.3242591323111093E+00 
    7.2007796482090249E+00 
    5.4118640988765634E+00 
    1.2409268284116600E+01 
    8.4799120401571368E+00 
    1.1753767973793749E+01 
    8.7924127063535042E+00 
    5.9066923042423900E+00 
    1.1958596767747499E+01 
    8.7670948886277991E+00 
    6.4276092605153083E+00 
    6.7993260569450937E+00 
    7.0326975981499897E+00 
    1.2172247553635538E+01 
    8.8138334684807180E+00 
    1.2746410612448717E+01 
    8.7239854669129002E+00 
    8.6561797667987026E+00 
    8.2723475331422023E+00 
    1.2030410559717204E+01 
    8.5687043289812586E+00 
    7.0673419080275544E+00 
    1.3615131083279186E+01 
    1.2100866577410269E+01 
    6.0553931694992542E+00 
    2.4121789311286985E+00 
    8.8032644321589935E+00 
    8.2032886362270006E+00 
    7.4193450406139316E+00 
    8.0958706965237486E+00 
    1.2076219473280293E+01 
    8.5326070376960335E+00 
    7.7107332335890213E+00 
    1.1951580590454915E+01 
    6.0007921460871669E+00 
    1.1661271620034448E+01 
    7.9277086322302619E+00 
    7.0177635656557706E+00 
    7.4870107721647452E+00 
    1.2456788172909668E+01 
    8.8108083470667324E+00 
    8.8186249642795609E+00 
    5.2289783877272482E+00 
    5.6404186854636356E+00 
    1.1084579338049236E+01 
    8.8280303014638015E+00 
    8.8426249633447878E+00 
    1.3357355140804172E+01 
    7.1999707127505177E+00 
    8.8393660770559315E+00 
    6.2102696127353045E+00 
    6.4117440787390478E+00 
    1.2023751331686642E+01 
    8.4640900257083853E+00 
    6.2023316572506060E+00 
    9.2784536967189499E+00 
    8.6988707281387292E+00 
    1.2026746395157121E+01 
    1.3443197032753254E+01 
    9.3979669703590885E-01 
    8.8079667779044026E+00 
    9.0433805009375021E+00 
    1.2083139618745875E+01 
    8.3075950988333531E+00 
    8.7845495351070308E+00 
    1.2937221629675211E+01 
    7.5139949932002015E+00 
    6.2555346514537531E+00 
    1.0674246384303384E+01 
    1.1911889184675022E+01 
    1.2826594919567723E+01 
    1.3061065146476118E+01 
    8.6579611589789032E+00 
    8.8003485341947219E+00 
    9.8909829586329483E+00 
    5.7540511336971560E+00 
    1.2022188829881591E+01 
    6.7282206952862964E+00 
    5.9921428222734159E+00 
    1.1044723199600226E+01 
    1.0370543696040476E+01 
    5.8759799066693112E+00 
    1.1944317535479890E+01 
    1.2812959306519405E+01 
    9.2026308419088387E+00 
    1.3536411116685635E+01 
    1.1972154940833249E+01 
    8.3916603024807586E+00 
    1.2574400761938660E+01 
    6.4132172978503119E+00 
    1.1927462868255365E+01 
    8.8071861389310655E+00 
    8.7675190802180456E+00 
    1.3511959357979167E+01 
    8.5093829855194212E+00 
    1.0778046785012382E+01 
    7.4707310584269306E+00 
    1.2918087553409466E+01 
    1.1846418770734962E+01 
    7.7845771199901490E+00 
    1.1891333650451209E+01 
    7.9183089040920880E+00 
    8.7953248877145178E+00 
    1.2776511284978534E+01 
    1.2147696629553531E+01 
    1.2816124902092465E+01 
    1.2086122837320152E+01 
    7.9690153069186120E+00 
    8.1761916071360634E+00 
    1.2821653267102405E+01 
    8.2863023313763833E+00 
    1.1787939857701826E+01 
    8.5008054922586069E+00 
    3.5401719240903224E+00 
    6.0523925026474936E+00 
    5.6105171818439672E+00 
    1.2779300543061780E+01 
    1.3448134166352528E+01 
    1.1907622128937847E+01 
    1.0202544508659978E+01 
    1.2158165244092507E+01 
    1.1948978802379912E+01 
    1.2466313245392342E+01 
    5.0527274048383823E+00 
    3.3046904071272221E+00 
    1.0014941546700703E+01 
    8.4602248383543692E+00 
    1.2077617646389067E+01 
    1.2075380690439770E+01 
    9.0596807995063653E+00 
    1.2107994972551030E+01 
    8.7950177813474557E+00 
    8.6924027257284902E+00 
    4.5749452744921353E+00 
    3.2939956762408418E+00 
    1.3242735513917484E+01 
    6.8140559823549864E+00 
    7.7302281043662235E+00 
    8.9687807711103886E+00 
    1.4755872979905588E+01 
    9.0519553202273801E+00 
    9.0793755245403052E+00 
    3.7159847207121826E+00 
    9.0527343080799696E+00 
    9.0648563387520493E+00 
    1.2360422430746400E+01 
    7.4952246855732767E+00 
    8.3860430406540019E+00 
    1.3397780413245471E+01 
    8.8159440263371600E+00 
    1.1921848829920544E+01 
    1.2154496277298124E+01 
    1.0896567227971167E+01 
    7.4109388683296675E+00 
    1.2085723935604781E+01 
    8.6079053621883013E+00 
    1.2103060709927391E+01 
    1.1866320595154587E+01 
    1.2796728550157987E+01 
    1.2083818862762381E+01 
    1.1357116565100664E+01 
    8.8054376816359703E+00 
    5.8300751525503163E+00 
    1.4635038291767518E+01 
    6.8646280255855272E+00 
    1.2724155433179883E+01 
    8.8028726698994397E+00 
    7.2505685144718131E+00 
    4.3263890869470911E+00 
    9.0954318409355093E+00 
    1.2074061325090984E+01 
    1.2070587354448433E+01 
    8.7756870296021159E+00 
    8.7970836140658868E+00 
    1.3591840910017339E+01 
    1.3009562124043820E+01 
    9.0686012599814934E+00 
    3.0767121229833849E+00 
    1.1339577548613116E+01 
    1.4879186774768678E+01 
    8.8087325035530117E+00 
    1.0540023150470084E+01 
    8.3032262187858876E+00 
    1.4500894916132152E+01 
    1.3082939296814491E+01 
    1.2844346063225199E+01 
    9.0877152489245994E+00 
    4.0605188433760731E+00 
    8.2650334127425804E+00 
    8.3281056970693363E+00 
    8.3762720579922778E+00 
    3.3411930481943051E+00 