# vtk DataFile Version 2.0
Pressure Field Data 
ASCII 
DATASET UNSTRUCTURED_GRID 

POINTS 2860 double 

    0.0000000000000000E+00     0.0000000000000000E+00     0.0000000000000000E+00 
    1.0000000000000000E+00     0.0000000000000000E+00     0.0000000000000000E+00 
    1.0000000000000000E+00     1.0000000000000000E+00     0.0000000000000000E+00 
    0.0000000000000000E+00     1.0000000000000000E+00     0.0000000000000000E+00 
    2.5000000000000000E-01     2.5000000000000000E-01     0.0000000000000000E+00 
    7.5000000000000000E-01     2.5000000000000000E-01     0.0000000000000000E+00 
    7.5000000000000000E-01     7.5000000000000000E-01     0.0000000000000000E+00 
    2.5000000000000000E-01     7.5000000000000000E-01     0.0000000000000000E+00 
    3.1249999999942091E-02     0.0000000000000000E+00     0.0000000000000000E+00 
    6.2499999999873469E-02     0.0000000000000000E+00     0.0000000000000000E+00 
    9.3749999999826514E-02     0.0000000000000000E+00     0.0000000000000000E+00 
    1.2499999999977961E-01     0.0000000000000000E+00     0.0000000000000000E+00 
    1.5624999999968961E-01     0.0000000000000000E+00     0.0000000000000000E+00 
    1.8749999999959971E-01     0.0000000000000000E+00     0.0000000000000000E+00 
    2.1874999999950970E-01     0.0000000000000000E+00     0.0000000000000000E+00 
    2.4999999999941969E-01     0.0000000000000000E+00     0.0000000000000000E+00 
    2.8124999999932920E-01     0.0000000000000000E+00     0.0000000000000000E+00 
    3.1249999999923850E-01     0.0000000000000000E+00     0.0000000000000000E+00 
    3.4374999999914790E-01     0.0000000000000000E+00     0.0000000000000000E+00 
    3.7499999999905720E-01     0.0000000000000000E+00     0.0000000000000000E+00 
    4.0624999999896660E-01     0.0000000000000000E+00     0.0000000000000000E+00 
    4.3749999999887590E-01     0.0000000000000000E+00     0.0000000000000000E+00 
    4.6874999999878530E-01     0.0000000000000000E+00     0.0000000000000000E+00 
    4.9999999999869471E-01     0.0000000000000000E+00     0.0000000000000000E+00 
    5.3124999999877620E-01     0.0000000000000000E+00     0.0000000000000000E+00 
    5.6249999999885780E-01     0.0000000000000000E+00     0.0000000000000000E+00 
    5.9374999999893940E-01     0.0000000000000000E+00     0.0000000000000000E+00 
    6.2499999999902101E-01     0.0000000000000000E+00     0.0000000000000000E+00 
    6.5624999999910261E-01     0.0000000000000000E+00     0.0000000000000000E+00 
    6.8749999999918421E-01     0.0000000000000000E+00     0.0000000000000000E+00 
    7.1874999999926570E-01     0.0000000000000000E+00     0.0000000000000000E+00 
    7.4999999999934730E-01     0.0000000000000000E+00     0.0000000000000000E+00 
    7.8124999999942890E-01     0.0000000000000000E+00     0.0000000000000000E+00 
    8.1249999999951039E-01     0.0000000000000000E+00     0.0000000000000000E+00 
    8.4374999999959199E-01     0.0000000000000000E+00     0.0000000000000000E+00 
    8.7499999999967359E-01     0.0000000000000000E+00     0.0000000000000000E+00 
    9.0624999999975520E-01     0.0000000000000000E+00     0.0000000000000000E+00 
    9.3749999999983680E-01     0.0000000000000000E+00     0.0000000000000000E+00 
    9.6874999999991840E-01     0.0000000000000000E+00     0.0000000000000000E+00 
    1.0000000000000000E+00     3.1249999999942091E-02     0.0000000000000000E+00 
    1.0000000000000000E+00     6.2499999999873469E-02     0.0000000000000000E+00 
    1.0000000000000000E+00     9.3749999999826514E-02     0.0000000000000000E+00 
    1.0000000000000000E+00     1.2499999999977961E-01     0.0000000000000000E+00 
    1.0000000000000000E+00     1.5624999999968961E-01     0.0000000000000000E+00 
    1.0000000000000000E+00     1.8749999999959971E-01     0.0000000000000000E+00 
    1.0000000000000000E+00     2.1874999999950970E-01     0.0000000000000000E+00 
    1.0000000000000000E+00     2.4999999999941969E-01     0.0000000000000000E+00 
    1.0000000000000000E+00     2.8124999999932920E-01     0.0000000000000000E+00 
    1.0000000000000000E+00     3.1249999999923850E-01     0.0000000000000000E+00 
    1.0000000000000000E+00     3.4374999999914790E-01     0.0000000000000000E+00 
    1.0000000000000000E+00     3.7499999999905720E-01     0.0000000000000000E+00 
    1.0000000000000000E+00     4.0624999999896660E-01     0.0000000000000000E+00 
    1.0000000000000000E+00     4.3749999999887590E-01     0.0000000000000000E+00 
    1.0000000000000000E+00     4.6874999999878530E-01     0.0000000000000000E+00 
    1.0000000000000000E+00     4.9999999999869471E-01     0.0000000000000000E+00 
    1.0000000000000000E+00     5.3124999999877620E-01     0.0000000000000000E+00 
    1.0000000000000000E+00     5.6249999999885780E-01     0.0000000000000000E+00 
    1.0000000000000000E+00     5.9374999999893940E-01     0.0000000000000000E+00 
    1.0000000000000000E+00     6.2499999999902101E-01     0.0000000000000000E+00 
    1.0000000000000000E+00     6.5624999999910261E-01     0.0000000000000000E+00 
    1.0000000000000000E+00     6.8749999999918421E-01     0.0000000000000000E+00 
    1.0000000000000000E+00     7.1874999999926570E-01     0.0000000000000000E+00 
    1.0000000000000000E+00     7.4999999999934730E-01     0.0000000000000000E+00 
    1.0000000000000000E+00     7.8124999999942890E-01     0.0000000000000000E+00 
    1.0000000000000000E+00     8.1249999999951039E-01     0.0000000000000000E+00 
    1.0000000000000000E+00     8.4374999999959199E-01     0.0000000000000000E+00 
    1.0000000000000000E+00     8.7499999999967359E-01     0.0000000000000000E+00 
    1.0000000000000000E+00     9.0624999999975520E-01     0.0000000000000000E+00 
    1.0000000000000000E+00     9.3749999999983680E-01     0.0000000000000000E+00 
    1.0000000000000000E+00     9.6874999999991840E-01     0.0000000000000000E+00 
    9.6875000000003686E-01     1.0000000000000000E+00     0.0000000000000000E+00 
    9.3750000000011691E-01     1.0000000000000000E+00     0.0000000000000000E+00 
    9.0625000000015765E-01     1.0000000000000000E+00     0.0000000000000000E+00 
    8.7500000000017863E-01     1.0000000000000000E+00     0.0000000000000000E+00 
    8.4375000000028044E-01     1.0000000000000000E+00     0.0000000000000000E+00 
    8.1250000000040856E-01     1.0000000000000000E+00     0.0000000000000000E+00 
    7.8125000000054956E-01     1.0000000000000000E+00     0.0000000000000000E+00 
    7.5000000000066480E-01     1.0000000000000000E+00     0.0000000000000000E+00 
    7.1875000000086831E-01     1.0000000000000000E+00     0.0000000000000000E+00 
    6.8750000000102829E-01     1.0000000000000000E+00     0.0000000000000000E+00 
    6.5625000000114431E-01     1.0000000000000000E+00     0.0000000000000000E+00 
    6.2500000000129829E-01     1.0000000000000000E+00     0.0000000000000000E+00 
    5.9375000000147926E-01     1.0000000000000000E+00     0.0000000000000000E+00 
    5.6250000000168354E-01     1.0000000000000000E+00     0.0000000000000000E+00 
    5.3125000000188671E-01     1.0000000000000000E+00     0.0000000000000000E+00 
    5.0000000000205835E-01     1.0000000000000000E+00     0.0000000000000000E+00 
    4.6875000000192979E-01     1.0000000000000000E+00     0.0000000000000000E+00 
    4.3750000000180111E-01     1.0000000000000000E+00     0.0000000000000000E+00 
    4.0625000000167238E-01     1.0000000000000000E+00     0.0000000000000000E+00 
    3.7500000000154382E-01     1.0000000000000000E+00     0.0000000000000000E+00 
    3.4375000000141509E-01     1.0000000000000000E+00     0.0000000000000000E+00 
    3.1250000000128642E-01     1.0000000000000000E+00     0.0000000000000000E+00 
    2.8125000000115769E-01     1.0000000000000000E+00     0.0000000000000000E+00 
    2.5000000000102918E-01     1.0000000000000000E+00     0.0000000000000000E+00 
    2.1875000000090050E-01     1.0000000000000000E+00     0.0000000000000000E+00 
    1.8750000000077180E-01     1.0000000000000000E+00     0.0000000000000000E+00 
    1.5625000000064329E-01     1.0000000000000000E+00     0.0000000000000000E+00 
    1.2500000000051459E-01     1.0000000000000000E+00     0.0000000000000000E+00 
    9.3750000000385914E-02     1.0000000000000000E+00     0.0000000000000000E+00 
    6.2500000000257239E-02     1.0000000000000000E+00     0.0000000000000000E+00 
    3.1250000000128557E-02     1.0000000000000000E+00     0.0000000000000000E+00 
    0.0000000000000000E+00     9.6875000000003686E-01     0.0000000000000000E+00 
    0.0000000000000000E+00     9.3750000000011691E-01     0.0000000000000000E+00 
    0.0000000000000000E+00     9.0625000000015765E-01     0.0000000000000000E+00 
    0.0000000000000000E+00     8.7500000000017863E-01     0.0000000000000000E+00 
    0.0000000000000000E+00     8.4375000000028044E-01     0.0000000000000000E+00 
    0.0000000000000000E+00     8.1250000000040856E-01     0.0000000000000000E+00 
    0.0000000000000000E+00     7.8125000000054956E-01     0.0000000000000000E+00 
    0.0000000000000000E+00     7.5000000000066480E-01     0.0000000000000000E+00 
    0.0000000000000000E+00     7.1875000000086831E-01     0.0000000000000000E+00 
    0.0000000000000000E+00     6.8750000000102829E-01     0.0000000000000000E+00 
    0.0000000000000000E+00     6.5625000000114431E-01     0.0000000000000000E+00 
    0.0000000000000000E+00     6.2500000000129829E-01     0.0000000000000000E+00 
    0.0000000000000000E+00     5.9375000000147926E-01     0.0000000000000000E+00 
    0.0000000000000000E+00     5.6250000000168354E-01     0.0000000000000000E+00 
    0.0000000000000000E+00     5.3125000000188671E-01     0.0000000000000000E+00 
    0.0000000000000000E+00     5.0000000000205835E-01     0.0000000000000000E+00 
    0.0000000000000000E+00     4.6875000000192979E-01     0.0000000000000000E+00 
    0.0000000000000000E+00     4.3750000000180111E-01     0.0000000000000000E+00 
    0.0000000000000000E+00     4.0625000000167238E-01     0.0000000000000000E+00 
[...]
CELL_DATA 2795 
SCALARS Pressure double 1 
LOOKUP_TABLE default 

    7.7715403842328685E+00 
    2.1442017334375070E+01 
    1.3087848914403246E+01 
    1.2550257775084029E+01 
    9.6750437650734913E+00 
    2.0650120150764231E+01 
    2.2502997909815527E+01 
    6.8838938887218486E+00 
    1.3878771163702657E+01 
    1.0367661366939863E+01 
    8.7168756914521222E+00 
    2.0108600866885205E+01 
    2.1127414977992530E+01 
    2.0582604618403579E+01 
    1.1951176086783731E+01 
    6.7611599033888661E+00 
    1.1365600137657689E+01 
    9.3291281228409062E+00 
    1.9333783972654373E+01 
    1.3069166592256689E+01 
    1.2912745629616497E+01 
    2.0418966740978565E+01 
    1.2131075597146946E+01 
    4.4729373932790845E-01 
    2.0387643137396839E+01 
    2.1144840744489894E+01 
    2.2589758530030508E+01 
    8.3556341003539174E+00 
    1.9934078135989477E+01 
    2.3171994375940024E+01 
    1.3345216442662517E+01 
    1.3384942572172529E+01 
    9.0481484600532678E+00 
    1.3032291307728256E+01 
    4.0282996381889884E+00 
    1.1370963796170601E+01 
    1.3014868642765308E+01 
    2.3373821217089070E+01 
    2.2426657348199381E+01 
    2.0134806474210176E+01 
    9.5890608747368411E+00 
    2.0468506605537648E+01 
    9.2844496520606934E-01 
    1.2955303288134996E+01 
    2.2487287008838319E+01 
    2.1647326518232035E+01 
    2.0087351209206552E+01 
    1.4483364557748622E+01 
    2.0135319926734912E+01 
    1.1667139860866603E+01 
    1.1033009957640326E+01 
    1.3336324426247003E+01 
    1.2777983436413367E+01 
    1.1444215423969961E+01 
    1.3474295400894405E+01 
    1.8904696449554361E+01 
    1.6150604646541026E+01 
    9.7301972656291777E+00 
    2.0444412528310508E+01 
    2.0259831102318962E+01 
    1.2613159646483966E+01 
    1.2533908302877922E+01 
    1.2397880430659676E+01 
    2.2853603111668100E+01 
    2.3708049857730526E+01 
    1.1382450686109923E+01 
    1.3334958361549633E+01 
    1.9689491209052473E+01 
    1.5899920989687507E+01 
    1.2582940368303481E+01 
    2.3039939989165859E+01 
    2.0724313230967748E+01 
    1.1194330184554962E+01 
    2.1828895343883538E+01 
    1.3879566961572920E+01 
    2.0143274725226810E+01 
    2.3431530057515204E+01 
    1.3888428472791551E+01 
    7.9197084533439357E+00 
    1.3361349301710234E+01 
    2.2455533377141329E+01 
    2.4000650166519627E+01 
    1.1422084017477278E+01 
    1.3241632467355206E+01 
    2.3750886774531903E+01 
    1.3017442691855617E+01 
    1.2265374009199956E+01 
    1.6659736176221259E+01 
    7.5387118666819317E+00 
    1.1066238012540579E+01 
    1.3240563469623265E+01 
    1.4102724942612950E+01 
    2.7951666866056730E+01 
    9.3867247150089987E+00 
    1.3346447479155078E+01 
    2.0048400257956420E+01 
    2.0999581580869592E+01 
    8.1899299295478958E+00 
    1.2824651178027468E+01 
    1.3284980496874667E+01 
    2.1058932568837648E+01 
    1.3285026825267231E+01 
    2.0884036936957752E+01 
    4.8588150270329624E+00 
    8.4643584909067506E+00 
    1.3664265611412834E+01 
    2.1472652403303822E+01 
    1.1312579719173307E+01 
    1.2283230041900346E+01 
    1.3262440731743961E+01 
    1.2223442197338096E+01 
    1.5555666537447292E+01 
    1.1878126219634206E+01 
    1.1204590810306705E+01 
    8.6442602247883507E+00 
    1.6724792296636778E+01 
    1.3388003586592069E+01 
    2.2683766606418160E+01 
    1.1346388238140078E+01 
    1.2528705149127155E+01 
    2.0725073355527318E+01 
    1.0177481693201484E+01 
    2.1839952139345176E+01 
    1.3130176159195083E+01 
    1.2414030765055182E+01 
    2.1013241729599969E+01 
    1.3379210195263664E+01 
    2.3020218168639058E+01 
    1.6700551637546120E+01 
    1.8572219112630474E+01 
    2.2646819483861687E+01 
    9.4048592203510033E+00 
    1.3692816447072559E+01 
    2.1070953061794828E+01 
    3.6117580377026193E+00 
    1.3435753841704468E+01 
    2.2528390251749123E+01 
    1.2465995194221602E+01 
    1.5102519354942164E+01 
    8.1191868724913654E+00 
    2.0081031998376091E+01 
    2.9162983530256838E+01 
    1.7573726889369794E+01 
    1.2457026066819568E+01 
    1.0926227734911594E+01 
    1.4582946681621532E+01 
    1.3155101513730433E+01 
    8.8072510001634488E+00 
    2.2769109816663612E+01 
    2.0896640067397630E+01 
    2.0054039916183388E+01 
    1.4118418780421617E+01 
    1.1161229826959342E+01 
    1.2909463813912653E+01 
    2.1833651920559969E+01 
    1.1512449195527784E+01 
    1.3232474045062068E+01 
    1.1769931457457284E+01 
    1.6329921232384176E+01 
    2.9140239761983047E+01 
    2.0026818243026014E+01 
    1.1101908297644636E+01 
    2.1508525335026203E+01 
    2.1365293144958507E+01 
    2.1572618107084956E+01 
    2.4806978452777898E+01 
    2.6393648822372668E+01 
    2.1515647100489353E+01 
    1.3323079912064417E+01 
    1.4790615867901691E+01 
    2.1021639764250594E+01 
    2.2481587537384875E+01 
    9.2086293982081546E+00 
    2.0079576877289508E+01 
    2.1692258126817752E+01 
    8.9594300023701798E+00 
    2.4268715684018229E+01 
    2.4473470415373594E+01 
    1.9466073888553847E+01 
    1.3798059052222229E+01 
    3.3277935782408425E+00 
    2.2671950077358854E+01 
    1.3572595948609001E+01 
    2.3612755522108166E+01 
    1.2363438435731625E+01 
    2.2186674972735887E+01 
    1.1628295281326031E+00 
    1.8564380533938323E+01 
    1.2596958139255996E+01 
    1.1097125856044956E+01 
    1.0776917944679012E+01 
    1.3085174097315962E+01 
    1.4917724633499144E+01 
    1.3975621481098958E+01 
    8.7815459507245208E+00 
    2.2579289284624778E+01 
    2.1148211839863308E+01 
    1.6101134375742920E+01 
    1.3650434877453865E+01 
    1.8145431258472318E+00 
    9.8695873211169438E+00 
    6.6980510628483314E+00 
    2.3320080799708894E+01 
    1.5402774355561432E+01 
    2.0791506148680671E+01 
    2.1301563918129879E+01 
    1.1677982396698820E+01 
    1.6343876477438155E+01 
    2.0021741509917515E+01 
    2.4355824168944821E+01 
    8.0880327120659601E+00 
    1.7765551164254351E+01 
    1.3945286690369501E+01 
    7.1510586536904235E+00 
    1.1634390091768561E+01 
    1.7364151485768325E+01 
    2.1213050438482462E+01 
    1.3164723409951947E+01 
    2.1504666602686630E+01 
    2.0904597824552781E+01 
    2.0797060777327005E+01 
    1.2918417910463146E+01 
    1.1058089410397573E+01 
    2.0074848067261691E+01 
    1.1191884573888936E+01 
    1.3291900618877905E+01 
    1.0936364979895163E+01 
    1.3151912647958326E+01 
    2.1319358723490321E+01 
    7.9668802731364510E+00 
    1.1503624290125547E+01 
    2.2714337610744703E+01 
    1.2936812754716422E+01 
    1.5218859808237543E+01 
    8.1728205330303361E+00 
    1.1284545536220534E+01 
    2.0851766995281327E+01 
    2.1656660094045741E+01 
    6.6675653498149208E+00 
    1.2945352383616225E+01 
    1.1010452994869544E+01 
    2.5755268642572094E+01 
    2.3966431825044836E+01 
    2.6509726971660132E+01 
    1.2975666047823266E+01 
    2.1260804932418765E+01 
    1.9909804864683665E+01 
    1.2787066898789883E+01 
    2.0049068187101881E+01 
    1.3650510269819216E+01 
    7.2514442757574873E+00 
    1.3471562327258926E+01 
    2.2985029570653239E+01 
    2.0040655076687685E+01 
    8.6623027356015179E+00 
    2.0097790001679105E+01 
    1.4963519512254550E+01 
    1.3406447603979903E+01 
    1.2598675165790253E+01 
    1.9747130301951643E+01 
    1.4296493307299565E+01 
    2.0080261515338115E+01 
    1.2851132268385282E+01 
    7.5232993529842256E+00 
    1.3393393651427532E+01 
    1.0796750253840324E+01 
    1.7613475604803455E+01 
    2.3092502335798041E+01 
    2.0082001533291475E+01 
    2.2522649195033175E+01 
    1.2860227699043868E+01 
    8.4385397776884012E+00 
    8.5634699340782685E+00 
    1.3722737542987735E+01 
    1.3257486946315806E+01 
    1.8269716108287688E+00 
    1.8965347518249526E+01 
    2.4795894016755302E+01 
    1.2377214338343176E+01 
    7.5734643218870543E+00 
    1.6067924885545573E+01 
    2.0086349614965773E+01 
    9.0766036948900179E+00 
    6.0335474642404323E+00 
    1.3223865064915172E+01 
    2.0330042979333829E+01 
    2.2414109246608085E+01 
    2.1490620356925593E+01 
    2.1675369302752358E+01 
    8.8447273863547391E+00 
    1.3388695274192305E+01 
    1.9537617535232229E+01 
    1.0164784609144004E+01 
    2.1094885889028269E+01 
    1.6757895575779944E+01 
    8.6920172631109747E+00 
    2.0232430857940756E+01 
    2.3158638884372184E+01 
    2.0663125038899434E+01 
    8.7245789998791334E+00 
    1.3329482731412128E+01 
    9.6440321786315018E+00 
    1.2521186566795604E+01 
    2.0077170389671817E+01 
    2.0055671931557761E+01 
    8.7763818759580126E+00 
    2.2216123722769005E+01 
    1.4198888871957045E+01 
    2.0194851582094163E+01 
    2.2722482054089465E+01 
    2.0130821406210682E+01 
    1.8019450646627764E+01 
    2.5966210289261994E+01 
    1.2330074614818596E+01 
    2.2425752941513529E+01 
    2.0214496841880138E+01 
    2.2690870879746953E+01 
    2.2159754003714468E+01 
    1.2481958886355097E+01 
    1.3074877104931350E+01 
    1.2360620382511675E+01 
    1.7058696283950777E+01 
    4.8819395556175520E+00 
    1.3613744410083498E+01 
    2.6315782148534407E+01 
    1.3659415800987176E+01 
    1.3982268845783675E+01 
    2.2610658306875749E+01 
    2.3175034737155762E+01 
    1.2285577522607367E+01 
    2.0103559405936892E+01 
    2.0058970912460545E+01 
    1.3960460777735564E+01 
    2.2019509468946588E+01 
    9.1551952190156349E+00 
    5.8012817576780691E+00 
    1.4451802801081556E+01 
    1.3679126681942554E+01 
    2.0041017004670792E+01 
    8.1689340625814317E+00 
    2.1284876732707271E+01 
    5.9153868705322328E+00 
    1.3583361440266692E+01 
    1.2610429251445485E+01 
    1.3295821191241849E+01 
    2.9239703066082328E+01 
    4.7351869768005388E+00 
    1.3467999653296316E+01 
    1.7149236106085016E+01 
    1.2717834912470673E+01 
    9.7319260478905996E+00 
    2.1626633419372368E+01 
    2.8105455278821537E+01 
    2.2229613505725613E+01 
    1.3369310726752103E+01 
    7.1084393223682136E+00 
    2.8005027296613012E+01 
    2.1099678814407692E+01 
    9.2853597999888304E+00 
    1.2692192524886098E+01 
    2.4771942304654583E+01 
    4.0136484077471000E+00 
    1.3768918480784182E+01 
    2.2480007667311046E+01 
    1.3314848427404019E+01 
    1.1466045206838306E+01 
    1.3537911618908023E+01 
    1.9737331008996065E+01 
    1.3287637862835441E+01 
    6.2911150258651984E+00 
    1.1483793707222536E+00 
    9.6452041768437144E+00 
    2.5345292302486932E+01 
    1.2357765795437789E+01 
    1.5735475528978798E+01 
    1.4844897530501077E+01 
    1.7869332733332829E+01 
    1.3333999536894826E+01 
    2.0878199911270883E+01 
    2.9265156697686365E+01 
    1.6512870688069210E+01 
    2.2351535226612043E+01 
    6.6961444374148904E-01 
    2.0056254025762282E+01 
    7.0140540068338471E+00 
    2.6734129730059369E+01 
    1.3491951313717692E+01 
    1.1657161906945440E+01 
    9.8496296975996458E+00 
    6.6273895292273641E+00 
    1.5258409519162278E+01 
    1.0265290668668964E+01 
    1.7414456153390816E+01 
    2.7918152056932217E+00 
    1.5028690922340981E+01 
    1.9891489110647530E+01 
    7.7593034114365427E+00 
    2.1174063625811051E+01 
    2.5241861153855361E+01 
    2.0932024849628284E+01 
    1.3269513708271258E+01 
    1.3288318037823300E+01 
    1.3479061717117355E+01 
    7.2075804695841850E+00 
    1.1932266831696534E+01 
    1.1690399276342731E+01 
    1.3459953973419102E+01 
    1.2260032379939242E+01 
    8.5872818047651112E-01 
    8.0880447284461390E+00 
    1.2887302765020664E+01 
    1.3418448409420318E+01 
    1.8075976094072637E+01 
    2.6218064553542306E+00 
    1.3890497684248421E+01 
    1.3691324013193665E+01 
    4.5506208488238871E+00 
    2.0546363572468575E+01 
    1.1241550113802530E+01 
    1.3481699338421002E+01 
    2.1073167643172948E+01 
    6.6473108802939960E+00 
    2.0775281312462099E+01 
    1.1378383408119841E+01 
    1.1801491693135078E+00 
    1.2455621871289225E+01 
    2.2457448604416683E+01 
    2.0066842143325420E+01 
    2.0116062711016802E+01 
    1.4087047475332771E+01 
    1.3587456702131956E+01 
    1.1195745791124184E+01 
    8.8279784608173983E+00 
    2.1337293614585388E+01 
    1.2686413173004144E+01 
    8.5903360250824843E+00 
    2.0097043001431686E+01 
    2.1976846905166056E+01 
    1.3759699259375529E+01 
    1.3005883447028275E+01 
    2.9025257012308955E+01 
    1.3962142345927928E+01 
    2.1416756643371734E+01 
    1.0572455854096551E+01 
    2.9307410758038611E+01 
    8.5133268478143087E+00 
    1.1885455796085816E+01 
    9.5834725454198573E+00 
    1.4366149818137865E+01 
    1.1115025369449542E+01 
    2.9280793616983658E+01 
    1.4045966736007548E+01 
    1.9707427038817389E+01 
    8.7580778740458616E+00 
    1.3329179999866197E+01 
    2.1026226045157831E+01 
    1.1153478766678058E+01 
    9.2063162766223794E+00 
    1.5521439502600463E+01 
    2.1137275600660669E+01 
    9.4560627018608034E+00 
    1.2639859379522708E+01 
    1.3051129815160730E+01 
    2.0009362087847663E+01 
    1.2757637571046018E+01 
    2.1572807365762209E+01 
    2.2799217007488110E+01 
    1.1226202202663725E+01 
    1.0977636863235482E+01 
    1.0333618146039692E+01 
    2.0300092776809993E+01 
    1.3702772194795697E+01 
    2.8236406530545139E+01 
    1.8312255811215881E+01 
    2.0916262176956760E+01 
    2.7697417111673460E+01 
    2.5399846404282926E+01 
    1.3395474913021918E+01 
    1.3434607098353299E+01 
    1.9490343438282206E+01 
    2.0130971343691364E+01 
    2.1809507647999574E+01 
    2.1144925556019079E+01 
    2.9072184983733653E+01 
    1.3961297792824459E+01 
    1.1391646642402733E+01 
    1.3902071594342278E+01 
    2.2472001302208422E+01 
    1.3534902214870785E+01 
    7.5659861977794796E+00 
    1.3243039634438519E+01 
    2.4568041083985303E+01 
    1.3751909690954921E+01 
    1.1389364302246795E+01 
    1.2963547826008666E+01 
    2.5005759128293416E+01 
    2.0599342899352862E+01 
    1.0747231522682357E+01 
    2.5384136783421564E+01 
    1.3437539331131774E+01 
    2.1849169915540436E+01 
    2.4918588756583830E+01 
    1.4470132201027743E+01 
    6.6610255971749188E+00 
    1.5269377184298790E+01 
    6.8985728029785722E+00 
    1.3608028901046788E+01 
    1.3317262392046594E+01 
    1.6401397635348474E+01 
    7.3146469343482936E+00 
    1.7842502146581854E+01 
    1.3346246956097129E+01 
    2.1123388775337201E+01 
    1.4634583174394550E+01 
    1.0462263624912236E+01 
    1.2776979553365891E+01 
    1.4357499071031764E+01 
    1.4142033052552847E+01 
    2.3540406920541695E+01 
    1.0800240858983409E+01 
    1.0591575925732794E+01 
    7.7167144851497227E+00 
    2.1891244370023177E+01 
    1.2838286850773546E+01 
    2.0138442234028687E+01 
    1.3274720317941975E+01 
    8.4933336242196305E+00 
    2.0637296986413222E+01 
    1.3238894903692422E+01 
    9.3280899047103620E+00 
    9.9341292010616389E+00 
    1.0319557628137241E+01 
    2.1191703717549856E+01 
    1.3463334894423417E+01 
    2.2381748881880903E+01 
    1.3178552570655343E+01 
    1.3087953942759889E+01 
    1.2502823023030162E+01 
    2.0814835935335012E+01 
    1.2966481445078003E+01 
    1.0371125250056556E+01 
    2.5365632863066523E+01 
    2.0987773746489619E+01 
    8.9297849493464945E+00 
    3.3106602215515180E+00 
    1.3444611336490462E+01 
    1.2379886004247032E+01 
    1.0965492996741162E+01 
    1.2189292552544220E+01 
    2.0463753866641994E+01 
    1.2964751149943945E+01 
    1.1498014476822979E+01 
    2.0179288392196590E+01 
    8.8498224163500989E+00 
    1.9423955251108708E+01 
    1.1933949980800497E+01 
    1.0290335781812933E+01 
    1.1092531236277942E+01 
    2.2092739301578483E+01 
    1.3300135374097396E+01 
    1.3311748409095021E+01 
    7.4327133671355750E+00 
    8.0807706328037092E+00 
    1.8332528676709249E+01 
    1.3325891273612049E+01 
    1.3514216681046728E+01 
    2.5418030915185593E+01 
    1.0597382122291576E+01 
    1.3343654089217255E+01 
    9.1776579309090867E+00 
    9.4928994472569581E+00 
    2.0752395197658856E+01 
    1.2803424341819310E+01 
    8.9703883147848220E+00 
    1.4118792748410998E+01 
    1.3160514965600136E+01 
    2.0779600391967172E+01 
    2.5701735205947344E+01 
    1.2473370690501429E+00 
    1.3452914477036639E+01 
    1.3677347640020352E+01 
    2.0948803682564630E+01 
    1.2573028615303395E+01 
    1.3262452328837046E+01 
    2.3690736152601222E+01 
    1.1128253501877746E+01 
    9.0554274533832100E+00 
    1.6868573518571313E+01 
    2.0091241018200904E+01 
    2.2615559246868759E+01 
    2.4348445604023098E+01 
    1.3187390323192517E+01 
    1.3439439418576891E+01 
    1.5345140967653711E+01 
    8.4628710446262509E+00 
    2.0346550136309133E+01 
    9.8101376929396764E+00 
    8.8324752722890043E+00 
    1.7729635450736023E+01 
    1.6343329407578491E+01 
    8.6526937029290085E+00 
    2.0162745607287953E+01 
    2.2592445573650270E+01 
    1.3988837840725544E+01 
    2.6005377249475988E+01 
    2.0226962728145573E+01 
    1.2717833446586276E+01 
    2.1840426227426892E+01 
    9.4913222924638294E+00 
    2.0117246354167808E+01 
    1.3451553893443995E+01 
    1.3381531110143035E+01 
    2.5950830043663935E+01 
    1.2888818317766958E+01 
    1.7228523269886217E+01 
    1.1060050362408386E+01 
    2.3090358827591007E+01 
    1.9913355143688069E+01 
    1.1610166116905656E+01 
    2.0068526216023756E+01 
    1.1925933085117807E+01 
    1.3276154960518983E+01 
    2.2470871618485024E+01 
    2.1092011604261270E+01 
    2.2594028257854873E+01 
    2.0953444280793047E+01 
    1.1960709341345893E+01 
    1.2332891602264054E+01 
    2.2646169992517127E+01 
    1.2529922505303459E+01 
    1.9715298700023308E+01 
    1.2871797653234744E+01 
    4.9320872552359054E+00 
    8.9359233100640409E+00 
    8.2574005848611627E+00 
    2.2486761234994070E+01 
    2.5736868339033606E+01 
    2.0090685234416764E+01 
    1.5930084552631730E+01 
    2.0694253637664723E+01 
    2.0169911410421914E+01 
    2.1563929961321946E+01 
    7.1567853156326944E+00 
    4.5810935547431280E+00 
    1.5542633152723317E+01 
    1.2839605130846877E+01 
    2.0482849142053741E+01 
    2.0479549249839110E+01 
    1.3706083657138326E+01 
    2.0556402373052251E+01 
    1.3429993851387035E+01 
    1.3238857901164934E+01 
    6.4290596626847334E+00 
    4.5542694276901914E+00 
    2.5018502145495795E+01 
    1.0135036568176368E+01 
    1.1517391865286744E+01 
    1.3553214755708497E+01 
    2.9037994314502875E+01 
    1.3692333807059184E+01 
    1.3933122874174188E+01 
    5.2504039550747512E+00 
    1.3692063774054674E+01 
    1.3713715117966416E+01 
    2.1219634311094111E+01 
    1.1105794206172579E+01 
    1.2666750006810327E+01 
    2.5545791218504476E+01 
    1.3466961278193704E+01 
    2.0117331643522320E+01 
    2.0650001322937957E+01 
    1.7344385246298589E+01 
    1.1107737646435927E+01 
    2.0947988856066086E+01 
    1.3100562256362462E+01 
    2.0536723597318328E+01 
    1.9977321042408324E+01 
    2.2543227967998824E+01 
    2.0959277059492145E+01 
    1.8608966888606549E+01 
    1.3448459524356123E+01 
    8.5893170130207785E+00 
    2.8777644651495336E+01 
    1.0033048848251882E+01 
    2.2980029384730443E+01 
    1.3443919569253177E+01 
    1.0684452499550023E+01 
    6.2303128180969987E+00 
    1.3770287175433321E+01 
    2.0923557378501400E+01 
    2.0900217660412526E+01 
    1.3248469313397464E+01 
    1.3433683335748539E+01 
    2.5942163483910278E+01 
    2.4052314187149808E+01 
    1.3723423658046482E+01 
    4.2633973488579828E+00 
    1.8444940225186667E+01 
    2.9266323152231653E+01 
    1.3454295423877737E+01 
    1.6607010303414718E+01 
    1.2566141158020717E+01 
    2.8463565975586043E+01 
    2.4220513495632094E+01 
    2.3355219774976181E+01 
    1.3758340235290087E+01 
    5.8413690281238697E+00 
    1.2497748103085460E+01 
    1.2609466786387470E+01 
    1.2693140496479742E+01 
    4.6772453422608926E+00 