# vtk DataFile Version 2.0
Pressure Field Data 
ASCII 
DATASET UNSTRUCTURED_GRID 

POINTS 2860 double 

    0.0000000000000000E+00     0.0000000000000000E+00     0.0000000000000000E+00 
    1.0000000000000000E+00     0.0000000000000000E+00     0.0000000000000000E+00 
    1.0000000000000000E+00     1.0000000000000000E+00     0.0000000000000000E+00 
    0.0000000000000000E+00     1.0000000000000000E+00     0.0000000000000000E+00 
    2.5000000000000000E-01     2.5000000000000000E-01     0.0000000000000000E+00 
    7.5000000000000000E-01     2.5000000000000000E-01     0.0000000000000000E+00 
    7.5000000000000000E-01     7.5000000000000000E-01     0.0000000000000000E+00 
    2.5000000000000000E-01     7.5000000000000000E-01     0.0000000000000000E+00 
    3.1249999999942091E-02     0.0000000000000000E+00     0.0000000000000000E+00 
    6.2499999999873469E-02     0.0000000000000000E+00     0.0000000000000000E+00 
    9.3749999999826514E-02     0.0000000000000000E+00     0.0000000000000000E+00 
    1.2499999999977961E-01     0.0000000000000000E+00     0.0000000000000000E+00 
    1.5624999999968961E-01     0.0000000000000000E+00     0.0000000000000000E+00 
    1.8749999999959971E-01     0.0000000000000000E+00     0.0000000000000000E+00 
    2.1874999999950970E-01     0.0000000000000000E+00     0.0000000000000000E+00 
    2.4999999999941969E-01     0.0000000000000000E+00     0.0000000000000000E+00 
    2.8124999999932920E-01     0.0000000000000000E+00     0.0000000000000000E+00 
    3.1249999999923850E-01     0.0000000000000000E+00     0.0000000000000000E+00 
    3.4374999999914790E-01     0.0000000000000000E+00     0.0000000000000000E+00 
    3.7499999999905720E-01     0.0000000000000000E+00     0.0000000000000000E+00 
    4.0624999999896660E-01     0.0000000000000000E+00     0.0000000000000000E+00 
    4.3749999999887590E-01     0.0000000000000000E+00     0.0000000000000000E+00 
    4.6874999999878530E-01     0.0000000000000000E+00     0.0000000000000000E+00 
    4.9999999999869471E-01     0.0000000000000000E+00     0.0000000000000000E+00 
    5.3124999999877620E-01     0.0000000000000000E+00     0.0000000000000000E+00 
    5.6249999999885780E-01     0.0000000000000000E+00     0.0000000000000000E+00 
    5.9374999999893940E-01     0.0000000000000000E+00     0.0000000000000000E+00 
    6.2499999999902101E-01     0.0000000000000000E+00     0.0000000000000000E+00 
    6.5624999999910261E-01     0.0000000000000000E+00     0.0000000000000000E+00 
    6.8749999999918421E-01     0.0000000000000000E+00     0.0000000000000000E+00 
    7.1874999999926570E-01     0.0000000000000000E+00     0.0000000000000000E+00 
    7.4999999999934730E-01     0.0000000000000000E+00     0.0000000000000000E+00 
    7.8124999999942890E-01     0.0000000000000000E+00     0.0000000000000000E+00 
    8.1249999999951039E-01     0.0000000000000000E+00     0.0000000000000000E+00 
    8.4374999999959199E-01     0.0000000000000000E+00     0.0000000000000000E+00 
    8.7499999999967359E-01     0.0000000000000000E+00     0.0000000000000000E+00 
    9.0624999999975520E-01     0.0000000000000000E+00     0.0000000000000000E+00 
    9.3749999999983680E-01     0.0000000000000000E+00     0.0000000000000000E+00 
    9.6874999999991840E-01     0.0000000000000000E+00     0.0000000000000000E+00 
    1.0000000000000000E+00     3.1249999999942091E-02     0.0000000000000000E+00 
    1.0000000000000000E+00     6.2499999999873469E-02     0.0000000000000000E+00 
    1.0000000000000000E+00     9.3749999999826514E-02     0.0000000000000000E+00 
    1.0000000000000000E+00     1.2499999999977961E-01     0.0000000000000000E+00 
    1.0000000000000000E+00     1.5624999999968961E-01     0.0000000000000000E+00 
    1.0000000000000000E+00     1.8749999999959971E-01     0.0000000000000000E+00 
    1.0000000000000000E+00     2.1874999999950970E-01     0.0000000000000000E+00 
    1.0000000000000000E+00     2.4999999999941969E-01     0.0000000000000000E+00 
    1.0000000000000000E+00     2.8124999999932920E-01     0.0000000000000000E+00 
    1.0000000000000000E+00     3.1249999999923850E-01     0.0000000000000000E+00 
    1.0000000000000000E+00     3.4374999999914790E-01     0.0000000000000000E+00 
    1.0000000000000000E+00     3.7499999999905720E-01     0.0000000000000000E+00 
    1.0000000000000000E+00     4.0624999999896660E-01     0.0000000000000000E+00 
    1.0000000000000000E+00     4.3749999999887590E-01     0.0000000000000000E+00 
    1.0000000000000000E+00     4.6874999999878530E-01     0.0000000000000000E+00 
    1.0000000000000000E+00     4.9999999999869471E-01     0.0000000000000000E+00 
    1.0000000000000000E+00     5.3124999999877620E-01     0.0000000000000000E+00 
    1.0000000000000000E+00     5.6249999999885780E-01     0.0000000000000000E+00 
    1.0000000000000000E+00     5.9374999999893940E-01     0.0000000000000000E+00 
    1.0000000000000000E+00     6.2499999999902101E-01     0.0000000000000000E+00 
    1.0000000000000000E+00     6.5624999999910261E-01     0.0000000000000000E+00 
    1.0000000000000000E+00     6.8749999999918421E-01     0.0000000000000000E+00 
    1.0000000000000000E+00     7.1874999999926570E-01     0.0000000000000000E+00 
    1.0000000000000000E+00     7.4999999999934730E-01     0.0000000000000000E+00 
    1.0000000000000000E+00     7.8124999999942890E-01     0.0000000000000000E+00 
    1.0000000000000000E+00     8.1249999999951039E-01     0.0000000000000000E+00 
    1.0000000000000000E+00     8.4374999999959199E-01     0.0000000000000000E+00 
    1.0000000000000000E+00     8.7499999999967359E-01     0.0000000000000000E+00 
    1.0000000000000000E+00     9.0624999999975520E-01     0.0000000000000000E+00 
    1.0000000000000000E+00     9.3749999999983680E-01     0.0000000000000000E+00 
    1.0000000000000000E+00     9.6874999999991840E-01     0.0000000000000000E+00 
    9.6875000000003686E-01     1.0000000000000000E+00     0.0000000000000000E+00 
    9.3750000000011691E-01     1.0000000000000000E+00     0.0000000000000000E+00 
    9.0625000000015765E-01     1.0000000000000000E+00     0.0000000000000000E+00 
    8.7500000000017863E-01     1.0000000000000000E+00     0.0000000000000000E+00 
    8.4375000000028044E-01     1.0000000000000000E+00     0.0000000000000000E+00 
    8.1250000000040856E-01     1.0000000000000000E+00     0.0000000000000000E+00 
    7.8125000000054956E-01     1.0000000000000000E+00     0.0000000000000000E+00 
    7.5000000000066480E-01     1.0000000000000000E+00     0.0000000000000000E+00 
    7.1875000000086831E-01     1.0000000000000000E+00     0.0000000000000000E+00 
    6.8750000000102829E-01     1.0000000000000000E+00     0.0000000000000000E+00 
    6.5625000000114431E-01     1.0000000000000000E+00     0.0000000000000000E+00 
    6.2500000000129829E-01     1.0000000000000000E+00     0.0000000000000000E+00 
    5.9375000000147926E-01     1.0000000000000000E+00     0.0000000000000000E+00 
    5.6250000000168354E-01     1.0000000000000000E+00     0.0000000000000000E+00 
    5.3125000000188671E-01     1.0000000000000000E+00     0.0000000000000000E+00 
    5.0000000000205835E-01     1.0000000000000000E+00     0.0000000000000000E+00 
    4.6875000000192979E-01     1.0000000000000000E+00     0.0000000000000000E+00 
    4.3750000000180111E-01     1.0000000000000000E+00     0.0000000000000000E+00 
    4.0625000000167238E-01     1.0000000000000000E+00     0.0000000000000000E+00 
    3.7500000000154382E-01     1.0000000000000000E+00     0.0000000000000000E+00 
    3.4375000000141509E-01     1.0000000000000000E+00     0.0000000000000000E+00 
    3.1250000000128642E-01     1.0000000000000000E+00     0.0000000000000000E+00 
    2.8125000000115769E-01     1.0000000000000000E+00     0.0000000000000000E+00 
    2.5000000000102918E-01     1.0000000000000000E+00     0.0000000000000000E+00 
    2.1875000000090050E-01     1.0000000000000000E+00     0.0000000000000000E+00 
    1.8750000000077180E-01     1.0000000000000000E+00     0.0000000000000000E+00 
    1.5625000000064329E-01     1.0000000000000000E+00     0.0000000000000000E+00 
    1.2500000000051459E-01     1.0000000000000000E+00     0.0000000000000000E+00 
    9.3750000000385914E-02     1.0000000000000000E+00     0.0000000000000000E+00 
    6.2500000000257239E-02     1.0000000000000000E+00     0.0000000000000000E+00 
    3.1250000000128557E-02     1.0000000000000000E+00     0.0000000000000000E+00 
    0.0000000000000000E+00     9.6875000000003686E-01     0.0000000000000000E+00 
    0.0000000000000000E+00     9.3750000000011691E-01     0.0000000000000000E+00 
    0.0000000000000000E+00     9.0625000000015765E-01     0.0000000000000000E+00 
    0.0000000000000000E+00     8.7500000000017863E-01     0.0000000000000000E+00 
    0.0000000000000000E+00     8.4375000000028044E-01     0.0000000000000000E+00 
    0.0000000000000000E+00     8.1250000000040856E-01     0.0000000000000000E+00 
    0.0000000000000000E+00     7.8125000000054956E-01     0.0000000000000000E+00 
    0.0000000000000000E+00     7.5000000000066480E-01     0.0000000000000000E+00 
    0.0000000000000000E+00     7.1875000000086831E-01     0.0000000000000000E+00 
    0.0000000000000000E+00     6.8750000000102829E-01     0.0000000000000000E+00 
    0.0000000000000000E+00     6.5625000000114431E-01     0.0000000000000000E+00 
    0.0000000000000000E+00     6.2500000000129829E-01     0.0000000000000000E+00 
    0.0000000000000000E+00     5.9375000000147926E-01     0.0000000000000000E+00 
    0.0000000000000000E+00     5.6250000000168354E-01     0.0000000000000000E+00 
    0.0000000000000000E+00     5.3125000000188671E-01     0.0000000000000000E+00 
    0.0000000000000000E+00     5.0000000000205835E-01     0.0000000000000000E+00 
    0.0000000000000000E+00     4.6875000000192979E-01     0.0000000000000000E+00 
    0.0000000000000000E+00     4.3750000000180111E-01     0.0000000000000000E+00 
    0.0000000000000000E+00     4.0625000000167238E-01     0.0000000000000000E+00 
[...]
CELL_DATA 2795 
SCALARS Pressure double 1 
LOOKUP_TABLE default 

    5.1919275914712015E+00 
    1.1706671757193213E+01 
    8.2848960494279247E+00 
    7.9178147552965505E+00 
    6.3396431511899545E+00 
    1.1609925809203705E+01 
    1.2224723359318769E+01 
    4.6500484329280258E+00 
    8.7497526782431798E+00 
    6.6654751672731294E+00 
    5.6696137684495538E+00 
    1.1399114760546642E+01 
    1.1622879404031323E+01 
    1.1584028849805321E+01 
    7.6095471795064693E+00 
    4.5708629224194102E+00 
    7.2951297367513916E+00 
    6.0411242435413239E+00 
    1.1101554287685229E+01 
    8.2799714513398808E+00 
    8.1722854224794492E+00 
    1.1530071727966282E+01 
    7.6976683340277603E+00 
    3.1531932215547814E-01 
    1.1373067649964575E+01 
    1.1602052194479359E+01 
    1.2252779783941977E+01 
    5.4566542825339770E+00 
    1.1333521149175750E+01 
    1.2240328590953791E+01 
    8.3854576514700820E+00 
    8.5015949430310780E+00 
    5.8617642957081282E+00 
    8.2466822971642237E+00 
    2.7022400927791481E+00 
    7.2973648565043376E+00 
    8.2387531848800055E+00 
    1.2274835934531589E+01 
    1.2206306480000594E+01 
    1.1409928887013402E+01 
    6.2805683778926422E+00 
    1.1355684803727440E+01 
    6.5378020537220771E-01 
    8.1277230091122661E+00 
    1.2040600006648402E+01 
    1.1897677329236627E+01 
    1.1390262396626014E+01 
    9.0511285901730609E+00 
    1.1448891143743664E+01 
    7.4584593212777648E+00 
    7.1144295218819060E+00 
    8.4674595163841229E+00 
    8.0248573139151258E+00 
    7.3371891673488916E+00 
    8.4623494863730642E+00 
    1.0929668235572246E+01 
    9.8814915916278494E+00 
    6.3726258034487184E+00 
    1.1533238847410873E+01 
    1.1471091283656177E+01 
    7.9757096054747461E+00 
    7.9517360733234455E+00 
    7.8372313137254643E+00 
    1.2156267174868157E+01 
    1.2378754885114349E+01 
    7.3045601465162147E+00 
    8.4656273755049725E+00 
    1.1317631727432978E+01 
    9.6918947707863250E+00 
    7.9807702775928311E+00 
    1.2392445261242843E+01 
    1.1467853109193809E+01 
    7.2028052977212971E+00 
    1.1980316522443397E+01 
    8.7019329042167701E+00 
    1.1250028070486529E+01 
    1.2287425619437741E+01 
    8.5470673314965868E+00 
    5.2345029952635489E+00 
    8.4814664844430823E+00 
    1.2212760382130316E+01 
    1.2410275227451478E+01 
    7.3225175988073410E+00 
    8.4006876376555883E+00 
    1.2450729855958587E+01 
    8.2440846779379111E+00 
    7.7682821628548879E+00 
    1.0027415837862490E+01 
    5.0307348420631275E+00 
    7.1354034010278964E+00 
    8.4019302096820976E+00 
    8.8650639916111338E+00 
    1.3773057858849489E+01 
    6.1648235433972696E+00 
    8.4724453879173325E+00 
    1.1372459652205535E+01 
    1.1581248504854988E+01 
    5.4452842671364436E+00 
    8.1209331884296851E+00 
    8.4311392452731493E+00 
    1.1598993131421970E+01 
    8.4338182612090424E+00 
    1.1541024185757379E+01 
    3.3449840727505524E+00 
    5.5094159267673888E+00 
    8.6572593809857619E+00 
    1.1714378056429183E+01 
    7.2685296303961193E+00 
    7.7964851102816004E+00 
    8.4198802649805629E+00 
    7.7463614354118668E+00 
    9.6046393588254890E+00 
    7.5723813821302501E+00 
    7.2093859956406918E+00 
    5.7026131715295882E+00 
    9.7814586438082127E+00 
    8.5036879978972166E+00 
    1.2081197050572831E+01 
    7.2569079033511192E+00 
    7.9093426322974310E+00 
    1.1458623823132212E+01 
    6.6249555208441784E+00 
    1.1842354318009793E+01 
    8.3229381925923889E+00 
    7.8463880995247406E+00 
    1.1583400321213515E+01 
    8.4926413098742604E+00 
    1.2296620991911542E+01 
    1.0037015053968803E+01 
    1.0806144057213942E+01 
    1.2267345238252885E+01 
    6.1765800872791115E+00 
    8.6717283867360884E+00 
    1.1586726802722218E+01 
    2.5127384846792218E+00 
    8.4398248863602436E+00 
    1.2238669481571559E+01 
    7.8760308983453413E+00 
    9.0816204955608857E+00 
    5.3782279352423057E+00 
    1.1372926086600591E+01 
    1.4227898575901571E+01 
    1.0416337753513272E+01 
    7.8690060913388500E+00 
    7.0530380154585259E+00 
    9.0752082884514458E+00 
    8.3395589743142331E+00 
    5.7319633270828501E+00 
    1.2261081690549531E+01 
    1.1679579165503648E+01 
    1.1374012170673749E+01 
    8.8799637217918210E+00 
    7.1832703678889755E+00 
    8.1721303327051569E+00 
    1.2003740055809736E+01 
    7.3759430059639879E+00 
    8.2527772169694948E+00 
    7.5080624546756969E+00 
    9.5832402865132611E+00 
    1.4216879118871530E+01 
    1.1366564524847444E+01 
    7.1201824892641250E+00 
    1.1746966825399328E+01 
    1.1679051098395551E+01 
    1.1748029427719590E+01 
    1.2623589716370752E+01 
    1.3110937845684077E+01 
    1.1892609591817545E+01 
    8.4584093447755837E+00 
    8.9763116171548063E+00 
    1.1747788796157623E+01 
    1.2093624658531432E+01 
    5.9733891348465749E+00 
    1.1389703334226068E+01 
    1.1971086135788823E+01 
    5.8257909395296643E+00 
    1.2542021549153315E+01 
    1.2534992701807390E+01 
    1.1158631822304427E+01 
    8.7244826450410287E+00 
    2.2392646971963286E+00 
    1.2236242365216475E+01 
    8.6069249716518463E+00 
    1.2340782031035234E+01 
    7.8218419025610180E+00 
    1.2090261122851670E+01 
    7.9437676134999025E-01 
    1.0821019192387057E+01 
    7.9865877229721125E+00 
    7.1504911834666007E+00 
    6.9713751493071525E+00 
    8.2939706080143267E+00 
    9.3028469915100800E+00 
    8.5700129957381890E+00 
    5.7505004451468871E+00 
    1.2087543139938342E+01 
    1.1608262614300576E+01 
    9.7946853300152483E+00 
    8.6496498688272787E+00 
    1.2861946195695493E+00 
    6.4542333878097917E+00 
    4.4935040345444754E+00 
    1.2250559748615002E+01 
    9.4379820923031001E+00 
    1.1663564735647022E+01 
    1.1664793734537261E+01 
    7.4594573383178009E+00 
    9.8317036653775371E+00 
    1.1369443435351672E+01 
    1.2520667431525524E+01 
    5.3766319081563871E+00 
    1.0241287819265740E+01 
    8.6070000928889581E+00 
    4.7934192996738529E+00 
    7.4359475735252305E+00 
    1.0242116828507170E+01 
    1.1632180834551123E+01 
    8.3495296102029926E+00 
    1.1728206142404206E+01 
    1.1525188334678349E+01 
    1.1482495001591056E+01 
    8.1800031688864259E+00 
    7.1198030942741113E+00 
    1.1381391568805608E+01 
    7.2002439432388297E+00 
    8.4379303217597492E+00 
    7.0627406058275035E+00 
    8.2020977975983609E+00 
    1.1672194886548141E+01 
    5.1951621131489540E+00 
    7.3661617933553671E+00 
    1.2178197135414226E+01 
    8.1949600885399665E+00 
    9.3370309574519279E+00 
    5.3311710444945088E+00 
    7.2473581545558394E+00 
    1.1506657059906136E+01 
    1.1776560803362029E+01 
    4.3643582028410277E+00 
    8.1954526489828687E+00 
    7.0980856603282501E+00 
    1.2898391326916544E+01 
    1.2418054203530639E+01 
    1.3133453263104460E+01 
    8.2160883847899626E+00 
    1.1649628202229147E+01 
    1.1333890658075664E+01 
    8.1002526069471372E+00 
    1.1373962715087929E+01 
    8.6495623101818246E+00 
    4.8261817729366925E+00 
    8.4010188093652651E+00 
    1.2164663841273731E+01 
    1.1371245667575041E+01 
    5.6429948450241714E+00 
    1.1395509069393473E+01 
    9.3079054768839953E+00 
    8.4239298436320311E+00 
    7.9527178117544919E+00 
    1.1261188943972595E+01 
    8.9049577943406160E+00 
    1.1385238000792306E+01 
    8.0848174209807073E+00 
    4.9477969746427624E+00 
    8.5017107558291762E+00 
    6.9793537291331829E+00 
    1.0418094802989350E+01 
    1.2340390137997636E+01 
    1.1380994762333486E+01 
    1.2232143358882960E+01 
    8.1476294436565997E+00 
    5.4982605596534286E+00 
    5.5746035139931935E+00 
    8.6152652070966180E+00 
    8.4155694664191749E+00 
    1.2271621390015139E+00 
    1.0970966302744278E+01 
    1.2648879329188201E+01 
    7.8272517078749804E+00 
    5.0605646355262603E+00 
    9.5256581057138074E+00 
    1.1394205108876591E+01 
    5.9780371727166948E+00 
    4.1006205772489022E+00 
    8.3910164262362628E+00 
    1.1483762134872180E+01 
    1.2004290759854175E+01 
    1.1909617899333552E+01 
    1.1780229660013525E+01 
    5.8354171206081284E+00 
    8.4120303282156126E+00 
    1.0976816180844422E+01 
    6.5444942170134652E+00 
    1.1611777726838877E+01 
    1.0012455310920686E+01 
    5.6527030499483191E+00 
    1.1483373942664899E+01 
    1.2241890013980765E+01 
    1.1473086715955457E+01 
    5.7659312432606473E+00 
    8.4621817201571883E+00 
    6.3202033446732893E+00 
    7.9691632505620689E+00 
    1.1387265607158351E+01 
    1.1377616511058477E+01 
    5.7984226320492365E+00 
    1.2125445801409402E+01 
    8.9261561086443475E+00 
    1.1416430737859731E+01 
    1.2098966556327330E+01 
    1.1400325259717068E+01 
    1.0618809222422639E+01 
    1.2942772387092237E+01 
    7.8078759757864820E+00 
    1.2206336094181006E+01 
    1.1441926589321019E+01 
    1.2268270707122898E+01 
    1.2120095743560901E+01 
    7.8893750305212427E+00 
    8.2791828654377415E+00 
    7.8176088279445430E+00 
    1.0215815339474810E+01 
    3.3534962215574553E+00 
    8.5405283644161312E+00 
    1.3058716872353710E+01 
    8.6539494499975351E+00 
    8.8177553915456546E+00 
    1.2244308795972664E+01 
    1.2453597418120387E+01 
    7.7983758400745309E+00 
    1.1399019171949657E+01 
    1.1375188302327739E+01 
    8.8069055210996527E+00 
    1.2081512104823581E+01 
    5.9446574721552636E+00 
    3.8173777554643133E+00 
    9.0531473511049168E+00 
    8.6657972090606261E+00 
    1.1379013712131744E+01 
    5.4321465128874991E+00 
    1.1839547368561316E+01 
    3.8881106680519029E+00 
    8.6107014228417889E+00 
    7.9790746310832192E+00 
    8.4410257924731162E+00 
    1.4265706473523901E+01 
    3.2602200809520983E+00 
    8.4586461294856612E+00 
    9.9551736403199307E+00 
    8.0592083104198462E+00 
    6.3428537433206325E+00 
    1.1944153890424387E+01 
    1.3858612361818038E+01 
    1.2064303414731333E+01 
    8.4031422965947051E+00 
    4.7792307039238624E+00 
    1.3718624178223578E+01 
    1.1597957487261491E+01 
    5.9535544756890060E+00 
    7.9859221162856988E+00 
    1.2609053617830108E+01 
    2.7664681516709742E+00 
    8.7103604228227915E+00 
    1.2034921823676457E+01 
    8.4540984087384228E+00 
    7.3302310667752621E+00 
    8.4987205621388942E+00 
    1.1153928134383792E+01 
    8.4355118811631353E+00 
    4.2738728953105856E+00 
    7.7939422170703099E-01 
    6.2390024180364145E+00 
    1.2798352697491751E+01 
    7.8158577844165462E+00 
    9.5924695993053426E+00 
    9.2103798609491427E+00 
    1.0452646988877296E+01 
    8.4678761610343471E+00 
    1.1519930807333877E+01 
    1.4279197826004387E+01 
    9.9506916041756011E+00 
    1.2182513317503858E+01 
    4.6576865832609921E-01 
    1.1379150728249410E+01 
    4.6378121067940397E+00 
    1.3214224692419673E+01 
    8.4721827475863876E+00 
    7.4253929083505801E+00 
    6.4406122562272490E+00 
    4.4880051925031621E+00 
    9.4106629088504103E+00 
    6.5984073385647424E+00 
    1.0330268123412804E+01 
    1.9033680032000728E+00 
    9.3369063861949630E+00 
    1.1323149265664252E+01 
    5.0618523093795842E+00 
    1.1786257362705705E+01 
    1.3051292854826684E+01 
    1.1668910235332287E+01 
    8.3472266604096124E+00 
    8.4361085511033629E+00 
    8.4649910491950138E+00 
    4.8505108369269161E+00 
    7.5939264233355148E+00 
    7.4686807257894268E+00 
    8.4540789851995779E+00 
    7.7653820063472905E+00 
    5.8684624288688925E-01 
    5.3009838422565787E+00 
    8.0826836575674150E+00 
    8.4307059424552762E+00 
    1.0613837832638490E+01 
    1.8086329482126309E+00 
    8.7716859549921704E+00 
    8.6707872911253396E+00 
    3.1378532856060923E+00 
    1.1561606911570703E+01 
    7.2242268873350577E+00 
    8.5517308250511661E+00 
    1.1594713979353251E+01 
    4.5011515050371553E+00 
    1.1651680507129880E+01 
    7.3036043501901062E+00 
    8.2310415935745740E-01 
    7.8689779940998781E+00 
    1.2137119628814419E+01 
    1.1379678414278949E+01 
    1.1398826821335790E+01 
    8.8177736353655245E+00 
    8.6135554831125614E+00 
    7.1980109492424118E+00 
    5.7546163779559620E+00 
    1.1688163771056304E+01 
    7.9863251626645049E+00 
    5.5504047478094467E+00 
    1.1392383460350505E+01 
    1.1970841037741536E+01 
    8.6329423830082579E+00 
    8.2399392432689016E+00 
    1.4167189941600322E+01 
    8.8076684400993148E+00 
    1.1705681294318163E+01 
    6.8518146107355573E+00 
    1.4307202199102019E+01 
    5.5418388140321824E+00 
    7.5768036147068702E+00 
    6.2017329463295248E+00 
    9.0087315017230285E+00 
    7.1165026494466419E+00 
    1.4291427634035953E+01 
    8.8494982463437051E+00 
    1.1101569445784305E+01 
    5.6996191962202376E+00 
    8.4626644651932033E+00 
    1.1568966239093692E+01 
    7.1373110957124872E+00 
    6.0191999356555188E+00 
    9.2505683279912869E+00 
    1.1781196373822940E+01 
    6.1169461434513366E+00 
    7.9947414588901964E+00 
    8.2633843815521537E+00 
    1.1358922047333456E+01 
    8.0861367958100754E+00 
    1.1746684041734374E+01 
    1.2293666637284032E+01 
    7.2198490860007256E+00 
    7.0808684642032063E+00 
    6.6464501479981575E+00 
    1.1477715369620631E+01 
    8.6696928998666856E+00 
    1.3893696305532989E+01 
    1.0832097386317335E+01 
    1.1533657892740882E+01 
    1.3601810598739311E+01 
    1.3053806025636696E+01 
    8.5065487798654740E+00 
    8.4397619523621650E+00 
    1.1183964446859905E+01 
    1.1410375141427018E+01 
    1.1838222116899335E+01 
    1.1615775069590409E+01 
    1.4184494916269555E+01 
    8.8072633087038774E+00 
    7.3045204413093892E+00 
    8.7733503915920252E+00 
    1.2218348449848168E+01 
    8.5855171912138974E+00 
    4.9565582510937638E+00 
    8.3323351571282309E+00 
    1.2580684999091082E+01 
    8.7021087645459581E+00 
    7.3064198688657589E+00 
    8.2056486302628322E+00 
    1.2678305667502881E+01 
    1.1402381448100673E+01 
    6.9471551705732049E+00 
    1.2802543379648592E+01 
    8.5303398432579964E+00 
    1.1836657251915822E+01 
    1.2691800865384511E+01 
    8.8876615802522352E+00 
    4.4968789056786784E+00 
    9.2259954590417745E+00 
    4.6486939873344193E+00 
    8.6263896052037836E+00 
    8.4564500949492771E+00 
    9.7022777600822714E+00 
    4.9111475497422736E+00 
    1.0300845154243770E+01 
    8.4751119111629318E+00 
    1.1607226192321376E+01 
    8.8489254574085816E+00 
    6.7391852322403514E+00 
    8.0931987775616960E+00 
    8.9490076547835375E+00 
    8.8983467159096250E+00 
    1.2329392107203923E+01 
    6.9862420447263576E+00 
    6.8682375791834032E+00 
    5.1582088812972087E+00 
    1.1862673644247634E+01 
    8.1305946186549836E+00 
    1.1229574794513027E+01 
    8.4267331485265533E+00 
    5.6297188464983803E+00 
    1.1427053297496546E+01 
    8.4020851684928211E+00 
    6.1278443370498081E+00 
    6.4841283549020270E+00 
    6.7076632489736285E+00 
    1.1633441203551419E+01 
    8.4560119106722720E+00 
    1.2191486924460410E+01 
    8.3606778716909140E+00 
    8.2999482539113121E+00 
    7.9171842782557915E+00 
    1.1496328208945767E+01 
    8.2188591863393903E+00 
    6.7408582915778910E+00 
    1.3040718612601136E+01 
    1.1564182695890615E+01 
    5.8071306019568585E+00 
    2.3022709286817866E+00 
    8.4452119607798366E+00 
    7.8615563713277776E+00 
    7.0774201953767504E+00 
    7.7433416898825795E+00 
    1.1547705992150400E+01 
    8.1752737184409927E+00 
    7.3627114186009184E+00 
    1.1428717366811524E+01 
    5.7535108705782596E+00 
    1.1150812855860028E+01 
    7.5911943926746837E+00 
    6.6790086568607840E+00 
    7.1423366693043882E+00 
    1.1910549349109026E+01 
    8.4438560805787208E+00 
    8.4512803887010470E+00 
    4.9865198352568214E+00 
    5.3792078771797565E+00 
    1.0577408284480526E+01 
    8.4603402746162395E+00 
    8.4870134096439447E+00 
    1.2786844042796551E+01 
    6.8677092046008426E+00 
    8.4711530012939722E+00 
    5.9545918849841506E+00 
    6.1432506368563660E+00 
    1.1488841983890838E+01 
    8.1128087108641811E+00 
    5.9156062336414266E+00 
    8.8811161676890027E+00 
    8.3400252822968195E+00 
    1.1492140802134749E+01 
    1.2871019407205591E+01 
    8.9966784547016643E-01 
    8.4499711203759365E+00 
    8.6645353945312173E+00 
    1.1547225118431976E+01 
    7.9333763194451432E+00 
    8.4192495471262383E+00 
    1.2375225293411217E+01 
    7.1683517590215269E+00 
    5.9660919284023564E+00 
    1.0224076957205149E+01 
    1.1391009380519414E+01 
    1.2269276458801597E+01 
    1.2498357440208821E+01 
    8.2989457780901930E+00 
    8.4424402601360882E+00 
    9.4662244582263728E+00 
    5.5182960992853145E+00 
    1.1496210488455191E+01 
    6.4182370068869705E+00 
    5.7457454968736084E+00 
    1.0564388840251505E+01 
    9.9231720866337838E+00 
    5.6345522690673278E+00 
    1.1421496874796329E+01 
    1.2255937902206087E+01 
    8.8210211538867807E+00 
    1.2962437003711131E+01 
    1.1447996432425402E+01 
    8.0257439902328418E+00 
    1.2024833275684118E+01 
    6.1483933183840893E+00 
    1.1405767832481196E+01 
    8.4492598288454346E+00 
    8.4081653053049816E+00 
    1.2937914668781108E+01 
    8.1584382374081592E+00 
    1.0310484467144766E+01 
    7.1270342168795562E+00 
    1.2358011676882212E+01 
    1.1328324868712629E+01 
    7.4282440515791128E+00 
    1.1372208754952162E+01 
    7.5938220272444701E+00 
    8.4287406916148964E+00 
    1.2220727678765304E+01 
    1.1608919989127019E+01 
    1.2259053364075200E+01 
    1.1550031391788892E+01 
    7.6061337271002287E+00 
    7.8141523526121723E+00 
    1.2264304048327835E+01 
    7.9218939176829899E+00 
    1.1271731087154963E+01 
    8.1525931782300187E+00 
    3.3763447805058968E+00 
    5.8022780240648917E+00 
    5.3780560563836479E+00 
    1.2223351377591868E+01 
    1.2875643571919591E+01 
    1.1387729775960050E+01 
    9.7997371047214479E+00 
    1.1625423143672343E+01 
    1.1426296678123389E+01 
    1.1922355113513678E+01 
    4.8176967280734937E+00 
    3.1527946225548891E+00 
    9.6154949470774351E+00 
    8.0833513467838589E+00 
    1.1549195022550453E+01 
    1.1547058057472793E+01 
    8.6788376183736791E+00 
    1.1578241135854174E+01 
    8.4370944841833815E+00 
    8.3073138783227574E+00 
    4.3627742117508763E+00 
    3.1430641432196116E+00 
    1.2675199753636001E+01 
    6.5284589830676856E+00 
    7.3763607743086501E+00 
    8.5934136300173076E+00 
    1.4167428890788802E+01 
    8.6729885582989041E+00 
    8.6605383205460296E+00 
    3.5504705099754275E+00 
    8.6734030882209368E+00 
    8.6849508201033405E+00 
    1.1812404120992042E+01 
    7.1509757210877867E+00 
    8.0297892610437760E+00 
    1.2826572585364312E+01 
    8.4580513374708062E+00 
    1.1401239038883684E+01 
    1.1614143180404037E+01 
    1.0453747383849233E+01 
    7.0979978129959358E+00 
    1.1549539594221255E+01 
    8.2435272708475846E+00 
    1.1570165342958777E+01 
    1.1347468805918771E+01 
    1.2240200732523787E+01 
    1.1548074961272796E+01 
    1.0860128160653153E+01 
    8.4475178219183640E+00 
    5.5893035551734824E+00 
    1.4047486707498450E+01 
    6.5481285928767532E+00 
    1.2170663716223205E+01 
    8.4448956956858954E+00 
    6.9180383788697437E+00 
    4.1515861556608060E+00 
    8.7137967011651654E+00 
    1.1538411035679447E+01 
    1.1534721488498215E+01 
    8.4102167239071584E+00 
    8.4389621920834745E+00 
    1.3016992980883384E+01 
    1.2447970049451744E+01 
    8.6893327402747929E+00 
    2.9352685486036214E+00 
    1.0842453130668961E+01 
    1.4290175081046472E+01 
    8.4508705154776695E+00 
    1.0119174541530255E+01 
    7.9278657418642329E+00 
    1.3914841982904713E+01 
    1.2519113579269572E+01 
    1.2284808913915569E+01 
    8.7079433898875074E+00 
    3.8839583679552980E+00 
    7.8905788755986137E+00 
    7.9534340577994547E+00 
    8.0050165973904406E+00 
    3.1890598695269636E+00 