# vtk DataFile Version 2.0
Pressure Field Data 
ASCII 
DATASET UNSTRUCTURED_GRID 

POINTS 13481 double 

    0.0000000000000000E+00     0.0000000000000000E+00     0.0000000000000000E+00 
    1.0000000000000000E+00     0.0000000000000000E+00     0.0000000000000000E+00 
    1.0000000000000000E+00     1.0000000000000000E+00     0.0000000000000000E+00 
    0.0000000000000000E+00     1.0000000000000000E+00     0.0000000000000000E+00 
    4.5454545454459132E-03     0.0000000000000000E+00     0.0000000000000000E+00 
    9.0909090908918525E-03     0.0000000000000000E+00     0.0000000000000000E+00 
    1.3636363636337859E-02     0.0000000000000000E+00     0.0000000000000000E+00 
    1.8181818181783872E-02     0.0000000000000000E+00     0.0000000000000000E+00 
    2.2727272727229870E-02     0.0000000000000000E+00     0.0000000000000000E+00 
    2.7272727272675549E-02     0.0000000000000000E+00     0.0000000000000000E+00 
    3.1818181818121058E-02     0.0000000000000000E+00     0.0000000000000000E+00 
    3.6363636363565877E-02     0.0000000000000000E+00     0.0000000000000000E+00 
    4.0909090909010543E-02     0.0000000000000000E+00     0.0000000000000000E+00 
    4.5454545454454973E-02     0.0000000000000000E+00     0.0000000000000000E+00 
    4.9999999999899403E-02     0.0000000000000000E+00     0.0000000000000000E+00 
    5.4545454545343833E-02     0.0000000000000000E+00     0.0000000000000000E+00 
    5.9090909090789019E-02     0.0000000000000000E+00     0.0000000000000000E+00 
    6.3636363636234636E-02     0.0000000000000000E+00     0.0000000000000000E+00 
    6.8181818181681425E-02     0.0000000000000000E+00     0.0000000000000000E+00 
    7.2727272727128645E-02     0.0000000000000000E+00     0.0000000000000000E+00 
    7.7272727272576225E-02     0.0000000000000000E+00     0.0000000000000000E+00 
    8.1818181818023805E-02     0.0000000000000000E+00     0.0000000000000000E+00 
    8.6363636363471386E-02     0.0000000000000000E+00     0.0000000000000000E+00 
    9.0909090908918966E-02     0.0000000000000000E+00     0.0000000000000000E+00 
    9.5454545454366560E-02     0.0000000000000000E+00     0.0000000000000000E+00 
    9.9999999999814140E-02     0.0000000000000000E+00     0.0000000000000000E+00 
    1.0454545454526171E-01     0.0000000000000000E+00     0.0000000000000000E+00 
    1.0909090909070930E-01     0.0000000000000000E+00     0.0000000000000000E+00 
    1.1363636363615690E-01     0.0000000000000000E+00     0.0000000000000000E+00 
    1.1818181818160410E-01     0.0000000000000000E+00     0.0000000000000000E+00 
    1.2272727272705020E-01     0.0000000000000000E+00     0.0000000000000000E+00 
    1.2727272727249461E-01     0.0000000000000000E+00     0.0000000000000000E+00 
    1.3181818181793739E-01     0.0000000000000000E+00     0.0000000000000000E+00 
    1.3636363636337900E-01     0.0000000000000000E+00     0.0000000000000000E+00 
    1.4090909090882031E-01     0.0000000000000000E+00     0.0000000000000000E+00 
    1.4545454545426159E-01     0.0000000000000000E+00     0.0000000000000000E+00 
    1.4999999999970290E-01     0.0000000000000000E+00     0.0000000000000000E+00 
    1.5454545454514421E-01     0.0000000000000000E+00     0.0000000000000000E+00 
    1.5909090909058540E-01     0.0000000000000000E+00     0.0000000000000000E+00 
    1.6363636363602671E-01     0.0000000000000000E+00     0.0000000000000000E+00 
    1.6818181818146799E-01     0.0000000000000000E+00     0.0000000000000000E+00 
    1.7272727272690930E-01     0.0000000000000000E+00     0.0000000000000000E+00 
    1.7727272727235049E-01     0.0000000000000000E+00     0.0000000000000000E+00 
    1.8181818181779180E-01     0.0000000000000000E+00     0.0000000000000000E+00 
    1.8636363636323311E-01     0.0000000000000000E+00     0.0000000000000000E+00 
    1.9090909090867439E-01     0.0000000000000000E+00     0.0000000000000000E+00 
    1.9545454545411561E-01     0.0000000000000000E+00     0.0000000000000000E+00 
    1.9999999999955689E-01     0.0000000000000000E+00     0.0000000000000000E+00 
    2.0454545454499820E-01     0.0000000000000000E+00     0.0000000000000000E+00 
    2.0909090909043951E-01     0.0000000000000000E+00     0.0000000000000000E+00 
    2.1363636363588079E-01     0.0000000000000000E+00     0.0000000000000000E+00 
    2.1818181818132210E-01     0.0000000000000000E+00     0.0000000000000000E+00 
    2.2272727272676340E-01     0.0000000000000000E+00     0.0000000000000000E+00 
    2.2727272727220460E-01     0.0000000000000000E+00     0.0000000000000000E+00 
    2.3181818181764591E-01     0.0000000000000000E+00     0.0000000000000000E+00 
    2.3636363636308719E-01     0.0000000000000000E+00     0.0000000000000000E+00 
    2.4090909090852841E-01     0.0000000000000000E+00     0.0000000000000000E+00 
    2.4545454545396969E-01     0.0000000000000000E+00     0.0000000000000000E+00 
    2.4999999999941100E-01     0.0000000000000000E+00     0.0000000000000000E+00 
    2.5454545454485222E-01     0.0000000000000000E+00     0.0000000000000000E+00 
    2.5909090909029348E-01     0.0000000000000000E+00     0.0000000000000000E+00 
    2.6363636363573478E-01     0.0000000000000000E+00     0.0000000000000000E+00 
    2.6818181818117609E-01     0.0000000000000000E+00     0.0000000000000000E+00 
    2.7272727272661729E-01     0.0000000000000000E+00     0.0000000000000000E+00 
    2.7727272727205871E-01     0.0000000000000000E+00     0.0000000000000000E+00 
    2.8181818181749990E-01     0.0000000000000000E+00     0.0000000000000000E+00 
    2.8636363636294121E-01     0.0000000000000000E+00     0.0000000000000000E+00 
    2.9090909090838252E-01     0.0000000000000000E+00     0.0000000000000000E+00 
    2.9545454545382382E-01     0.0000000000000000E+00     0.0000000000000000E+00 
    2.9999999999926502E-01     0.0000000000000000E+00     0.0000000000000000E+00 
    3.0454545454470627E-01     0.0000000000000000E+00     0.0000000000000000E+00 
    3.0909090909014758E-01     0.0000000000000000E+00     0.0000000000000000E+00 
    3.1363636363558878E-01     0.0000000000000000E+00     0.0000000000000000E+00 
    3.1818181818103008E-01     0.0000000000000000E+00     0.0000000000000000E+00 
    3.2272727272647139E-01     0.0000000000000000E+00     0.0000000000000000E+00 
    3.2727272727191270E-01     0.0000000000000000E+00     0.0000000000000000E+00 
    3.3181818181735401E-01     0.0000000000000000E+00     0.0000000000000000E+00 
    3.3636363636279532E-01     0.0000000000000000E+00     0.0000000000000000E+00 
    3.4090909090823651E-01     0.0000000000000000E+00     0.0000000000000000E+00 
    3.4545454545367782E-01     0.0000000000000000E+00     0.0000000000000000E+00 
    3.4999999999911913E-01     0.0000000000000000E+00     0.0000000000000000E+00 
    3.5454545454456032E-01     0.0000000000000000E+00     0.0000000000000000E+00 
    3.5909090909000158E-01     0.0000000000000000E+00     0.0000000000000000E+00 
    3.6363636363544288E-01     0.0000000000000000E+00     0.0000000000000000E+00 
    3.6818181818088419E-01     0.0000000000000000E+00     0.0000000000000000E+00 
    3.7272727272632539E-01     0.0000000000000000E+00     0.0000000000000000E+00 
    3.7727272727176681E-01     0.0000000000000000E+00     0.0000000000000000E+00 
    3.8181818181720800E-01     0.0000000000000000E+00     0.0000000000000000E+00 
    3.8636363636264931E-01     0.0000000000000000E+00     0.0000000000000000E+00 
    3.9090909090809062E-01     0.0000000000000000E+00     0.0000000000000000E+00 
    3.9545454545353192E-01     0.0000000000000000E+00     0.0000000000000000E+00 
    3.9999999999897312E-01     0.0000000000000000E+00     0.0000000000000000E+00 
    4.0454545454441437E-01     0.0000000000000000E+00     0.0000000000000000E+00 
    4.0909090908985568E-01     0.0000000000000000E+00     0.0000000000000000E+00 
    4.1363636363529688E-01     0.0000000000000000E+00     0.0000000000000000E+00 
    4.1818181818073819E-01     0.0000000000000000E+00     0.0000000000000000E+00 
    4.2272727272617949E-01     0.0000000000000000E+00     0.0000000000000000E+00 
    4.2727272727162080E-01     0.0000000000000000E+00     0.0000000000000000E+00 
    4.3181818181706211E-01     0.0000000000000000E+00     0.0000000000000000E+00 
    4.3636363636250342E-01     0.0000000000000000E+00     0.0000000000000000E+00 
    4.4090909090794472E-01     0.0000000000000000E+00     0.0000000000000000E+00 
    4.4545454545338597E-01     0.0000000000000000E+00     0.0000000000000000E+00 
    4.4999999999882723E-01     0.0000000000000000E+00     0.0000000000000000E+00 
    4.5454545454426848E-01     0.0000000000000000E+00     0.0000000000000000E+00 
    4.5909090908970979E-01     0.0000000000000000E+00     0.0000000000000000E+00 
    4.6363636363515098E-01     0.0000000000000000E+00     0.0000000000000000E+00 
    4.6818181818059240E-01     0.0000000000000000E+00     0.0000000000000000E+00 
    4.7272727272603360E-01     0.0000000000000000E+00     0.0000000000000000E+00 
    4.7727272727147491E-01     0.0000000000000000E+00     0.0000000000000000E+00 
    4.8181818181691621E-01     0.0000000000000000E+00     0.0000000000000000E+00 
    4.8636363636235752E-01     0.0000000000000000E+00     0.0000000000000000E+00 
    4.9090909090779872E-01     0.0000000000000000E+00     0.0000000000000000E+00 
    4.9545454545324458E-01     0.0000000000000000E+00     0.0000000000000000E+00 
    4.9999999999869221E-01     0.0000000000000000E+00     0.0000000000000000E+00 
    5.0454545454415234E-01     0.0000000000000000E+00     0.0000000000000000E+00 
    5.0909090908961430E-01     0.0000000000000000E+00     0.0000000000000000E+00 
    5.1363636363508092E-01     0.0000000000000000E+00     0.0000000000000000E+00 
    5.1818181818054743E-01     0.0000000000000000E+00     0.0000000000000000E+00 
    5.2272727272601394E-01     0.0000000000000000E+00     0.0000000000000000E+00 
    5.2727272727148045E-01     0.0000000000000000E+00     0.0000000000000000E+00 
[...]
CELL_DATA 13200 
SCALARS Pressure double 1 
LOOKUP_TABLE default 

    2.2286180536238360E+00 
    2.2230853828521888E+00 
    2.2199558697739601E+00 
    2.2182025221393809E+00 
    2.2173177227367940E+00 
    2.2168677306881373E+00 
    2.2166183638060581E+00 
    2.2163205793245142E+00 
    2.2159928160295976E+00 
    2.2155873602661811E+00 
    2.2152656210040966E+00 
    2.2150927550265269E+00 
    2.2149028447716756E+00 
    2.2144963226043166E+00 
    2.2137995851083243E+00 
    2.2130987064720324E+00 
    2.2121089764168160E+00 
    2.2108031684828675E+00 
    2.2098329245880852E+00 
    2.2083973649430786E+00 
    2.2068132939326532E+00 
    2.2057854653795443E+00 
    2.2046434596411211E+00 
    2.2028994498660812E+00 
    2.2009939725663243E+00 
    2.1984281261420833E+00 
    2.1957497134797292E+00 
    2.1922235553889005E+00 
    2.1878878564504638E+00 
    2.1837307662006671E+00 
    2.1777260754738705E+00 
    2.1704594366676271E+00 
    2.1628313386182598E+00 
    2.1548705834528561E+00 
    2.1479256831451932E+00 
    2.1411032521670124E+00 
    2.1253185871946236E+00 
    2.1067930596636781E+00 
    2.0907382035890536E+00 
    2.0806156008292280E+00 
    2.0707183630306445E+00 
    2.0607701203757109E+00 
    2.0505980742015470E+00 
    2.0426153160025478E+00 
    2.0094111519276185E+00 
    1.9669628842788649E+00 
    1.9090311959601238E+00 
    1.8563759505164763E+00 
    1.8342022730528409E+00 
    1.8117709163027638E+00 
    1.7737497111042959E+00 
    1.7494207125271173E+00 
    1.7347073085462801E+00 
    1.7222890397886177E+00 
    1.7100972693936847E+00 
    1.6992057390288124E+00 
    1.6941130963622073E+00 
    1.6922290956070114E+00 
    1.6909446394978525E+00 
    1.6904287038544501E+00 
    2.2269798007859110E+00 
    2.2227647154348782E+00 
    2.2198890454619722E+00 
    2.2182095068675336E+00 
    2.2173200337819416E+00 
    2.2168694980877848E+00 
    2.2166097534505891E+00 
    2.2163161242799747E+00 
    2.2159966031672487E+00 
    2.2155916604478052E+00 
    2.2152677694041789E+00 
    2.2150932388560114E+00 
    2.2149030548172179E+00 
    2.2145019018683234E+00 
    2.2138134074488134E+00 
    2.2130767318794029E+00 
    2.2120377496260133E+00 
    2.2107759266932066E+00 
    2.2098527936994743E+00 
    2.2084091148418854E+00 
    2.2068514148902389E+00 
    2.2057850592409824E+00 
    2.2046268187954658E+00 
    2.2028474410951726E+00 
    2.2008261071490751E+00 
    2.1983632437217353E+00 
    2.1957295070963032E+00 
    2.1923289700127251E+00 
    2.1881645998479304E+00 
    2.1836248140227617E+00 
    2.1775484034603156E+00 
    2.1705782824607209E+00 
    2.1632032863329398E+00 
    2.1554903577184059E+00 
    2.1481015774817998E+00 
    2.1406500038422798E+00 
    2.1247146742250611E+00 
    2.1070547910582165E+00 
    2.0910005363842457E+00 
    2.0807780962921245E+00 
    2.0710620492655294E+00 
    2.0611463220742632E+00 
    2.0507098987937180E+00 
    2.0407713269944527E+00 
    2.0084276166577388E+00 
    1.9669627313340630E+00 
    1.9088572454977291E+00 
    1.8564380972893393E+00 
    1.8343516680789840E+00 
    1.8093232240091637E+00 
    1.7721084873328523E+00 
    1.7491589661937461E+00 
    1.7346518705495695E+00 
    1.7224042700841538E+00 
    1.7101943666588031E+00 
    1.6992690315836054E+00 
    1.6940772468725143E+00 
    1.6922116030333874E+00 
    1.6909225359314444E+00 
    1.6904120665696920E+00 
    2.2256834156158471E+00 
    2.2224788065995078E+00 
    2.2198572124070397E+00 
    2.2182016904478115E+00 
    2.2173354520893738E+00 
    2.2168734774135781E+00 
    2.2165985683487848E+00 
    2.2163124544457293E+00 
    2.2159929785158776E+00 
    2.2155928355778518E+00 
    2.2152726649384560E+00 
    2.2150987726062232E+00 
    2.2149027385766829E+00 
    2.2144898632036156E+00 
    2.2138052367643106E+00 
    2.2130354588999612E+00 
    2.2119768442646173E+00 
    2.2107608888082364E+00 
    2.2098932492587129E+00 
    2.2084602595117016E+00 
    2.2069099676933241E+00 
    2.2057640482309182E+00 
    2.2045866570268333E+00 
    2.2026021730937688E+00 
    2.2006000023329855E+00 
    2.1982651836358227E+00 
    2.1957166842171625E+00 
    2.1925032830802533E+00 
    2.1884794279151452E+00 
    2.1836009301562687E+00 
    2.1776122644660920E+00 
    2.1708315025754206E+00 
    2.1637242956962530E+00 
    2.1563717357728227E+00 
    2.1487318824915378E+00 
    2.1403066139216755E+00 
    2.1244241812428153E+00 
    2.1072653400333361E+00 
    2.0917552277743336E+00 
    2.0813209010707907E+00 
    2.0716834960708335E+00 
    2.0612348659733160E+00 
    2.0504366323480370E+00 
    2.0387541116298689E+00 
    2.0074044924176384E+00 
    1.9656889420352115E+00 
    1.9095492271604049E+00 
    1.8579066120139567E+00 
    1.8325745652967063E+00 
    1.8052078323506100E+00 
    1.7704724592610050E+00 
    1.7486617665546560E+00 
    1.7348103613021677E+00 
    1.7224672435815316E+00 
    1.7099779942193132E+00 
    1.6991726757236403E+00 
    1.6941198260749963E+00 
    1.6921787034793310E+00 
    1.6908765452198691E+00 
    1.6903839606337419E+00 
    2.2249175318869496E+00 
    2.2223917406270752E+00 
    2.2197807691196476E+00 
    2.2181782069682230E+00 
    2.2173279409835223E+00 
    2.2168716731301630E+00 
    2.2165913284389278E+00 
    2.2163146918540284E+00 
    2.2159836333401470E+00 
    2.2155922431501289E+00 
    2.2152793595094504E+00 
    2.2151041477535904E+00 
    2.2148907582739881E+00 
    2.2144799080668642E+00 
    2.2137976669914208E+00 
    2.2130047042250598E+00 
    2.2119321488825467E+00 
    2.2107555433409254E+00 
    2.2098793266210768E+00 
    2.2084686077823830E+00 
    2.2070117539649989E+00 
    2.2057878656079764E+00 
    2.2044608570354507E+00 
    2.2023202975834471E+00 
    2.2003935643468560E+00 
    2.1981537265650242E+00 
    2.1956698599360993E+00 
    2.1926303734225008E+00 
    2.1887526038246468E+00 
    2.1836326189362469E+00 
    2.1777675254360753E+00 
    2.1710931953448496E+00 
    2.1642976460793584E+00 
    2.1571354125682247E+00 
    2.1495810539834626E+00 
    2.1405105005365699E+00 
    2.1251007219992926E+00 
    2.1078120639257079E+00 
    2.0925462335314524E+00 
    2.0823240083759043E+00 
    2.0733657463194990E+00 
    2.0623283140689006E+00 
    2.0498248257775629E+00 
    2.0379975593480211E+00 
    2.0065162491162547E+00 
    1.9624005176651729E+00 
    1.9087649613669402E+00 
    1.8585026144777343E+00 
    1.8292961175524183E+00 
    1.8021742673765049E+00 
    1.7684046066167143E+00 
    1.7480492731956656E+00 
    1.7348350515729531E+00 
    1.7224831872604025E+00 
    1.7099631057233919E+00 
    1.6991304517824164E+00 
    1.6941091908664530E+00 
    1.6921149762464942E+00 
    1.6908556076605494E+00 
    1.6903628461651745E+00 
    2.2244826249767504E+00 
    2.2222501748831109E+00 
    2.2195923043367189E+00 
    2.2181386830790748E+00 
    2.2173144586100193E+00 
    2.2168609162549573E+00 
    2.2165876774793696E+00 
    2.2163104028068075E+00 
    2.2159810663078181E+00 
    2.2156118458597467E+00 
    2.2152839611864144E+00 
    2.2151084532940386E+00 
    2.2148814977156301E+00 
    2.2144638967555150E+00 
    2.2137702138759954E+00 
    2.2128994102815658E+00 
    2.2118440299561195E+00 
    2.2107436443524509E+00 
    2.2098798743388088E+00 
    2.2084584809105681E+00 
    2.2070734462153427E+00 
    2.2058288521497094E+00 
    2.2043319308991389E+00 
    2.2020348791849940E+00 
    2.2001701589998794E+00 
    2.1980803549255552E+00 
    2.1955977627605221E+00 
    2.1927278095860405E+00 
    2.1890899555486181E+00 
    2.1839756155006800E+00 
    2.1779735266933784E+00 
    2.1713393707185693E+00 
    2.1645506875032656E+00 
    2.1575791917189471E+00 
    2.1502530246260370E+00 
    2.1408695008161400E+00 
    2.1259445508188053E+00 
    2.1086994163373944E+00 
    2.0934226830308180E+00 
    2.0830267780469787E+00 
    2.0748176697864698E+00 
    2.0640974432806152E+00 
    2.0496975679741016E+00 
    2.0377874068296338E+00 
    2.0036780953931537E+00 
    1.9590560798096697E+00 
    1.9075293359173018E+00 
    1.8574264042937905E+00 
    1.8268793627082662E+00 
    1.7976480225325635E+00 
    1.7657817522093977E+00 
    1.7478021958686731E+00 
    1.7350018170609396E+00 
    1.7222723122825512E+00 
    1.7098333859376373E+00 
    1.6991737467107657E+00 
    1.6940891843796368E+00 
    1.6920846523500992E+00 
    1.6908592592279170E+00 
    1.6903411652371905E+00 
    2.2241279603035595E+00 
    2.2219408812533774E+00 
    2.2193771151882009E+00 
    2.2180753519618683E+00 
    2.2173130526739540E+00 
    2.2168546502619408E+00 
    2.2165852403118569E+00 
    2.2163043722374813E+00 
    2.2159687540808917E+00 
    2.2156330310627017E+00 
    2.2153058157290211E+00 
    2.2151051945923235E+00 
    2.2148638630754718E+00 
    2.2144275063742431E+00 
    2.2136655789037087E+00 
    2.2127623316486158E+00 
    2.2118205901764134E+00 
    2.2107784892117910E+00 
    2.2098679591585930E+00 
    2.2084574183356196E+00 
    2.2070854372758513E+00 
    2.2058200093355356E+00 
    2.2040666784771776E+00 
    2.2017265362204950E+00 
    2.2000838634226025E+00 
    2.1979767812476716E+00 
    2.1955575082490406E+00 
    2.1928331365268390E+00 
    2.1892597569961008E+00 
    2.1845115853378854E+00 
    2.1784244936726087E+00 
    2.1717856398451856E+00 
    2.1647923989733382E+00 
    2.1579259000374518E+00 
    2.1510324028772545E+00 
    2.1415066441339525E+00 
    2.1260078073348372E+00 
    2.1091545625459172E+00 
    2.0943178469203692E+00 
    2.0834597980882972E+00 
    2.0751038355170479E+00 
    2.0653025768995747E+00 
    2.0503779086817180E+00 
    2.0351023465925766E+00 
    2.0004045863053670E+00 
    1.9579450717318798E+00 
    1.9041677538352024E+00 
    1.8554639078370005E+00 
    1.8237609120574585E+00 
    1.7924694832379968E+00 
    1.7646874760165223E+00 
    1.7474808403199638E+00 
    1.7352306414687744E+00 
    1.7221124910613508E+00 
    1.7093993166075172E+00 
    1.6990510802839667E+00 
    1.6941319243282342E+00 
    1.6920842231863233E+00 
    1.6908772480750331E+00 
    1.6903383850114093E+00 
    2.2236170179562338E+00 
    2.2212987137165978E+00 
    2.2191970435454929E+00 
    2.2180196174829234E+00 
    2.2172970384974651E+00 
    2.2168336163531155E+00 
    2.2165771345540479E+00 
    2.2163095725174298E+00 
    2.2159671541297268E+00 
    2.2156434876835909E+00 
    2.2153317817468290E+00 
    2.2150956190808069E+00 
    2.2148404156753285E+00 
    2.2143169831618921E+00 
    2.2135294911901169E+00 
    2.2126873900706241E+00 
    2.2117741014457750E+00 
    2.2107809146932191E+00 
    2.2098593578724213E+00 
    2.2084502458897632E+00 
    2.2071086864337368E+00 
    2.2057327011627565E+00 
    2.2037172899956903E+00 
    2.2015770332154934E+00 
    2.1999461249707042E+00 
    2.1978929751637009E+00 
    2.1955166035825036E+00 
    2.1928748124063411E+00 
    2.1893043735822468E+00 
    2.1849202664896263E+00 
    2.1790281062929027E+00 
    2.1723571896179461E+00 
    2.1649148129232261E+00 
    2.1581487129295631E+00 
    2.1516019424302097E+00 
    2.1425022710335169E+00 
    2.1264606663183026E+00 
    2.1095365454010615E+00 
    2.0950843930643059E+00 
    2.0839909127713128E+00 
    2.0754623259515297E+00 
    2.0657105119214205E+00 
    2.0501231283517098E+00 
    2.0320052806110902E+00 
    1.9981396384911219E+00 
    1.9546365792169889E+00 
    1.9001223524111792E+00 
    1.8540596881387348E+00 
    1.8198606946527744E+00 
    1.7897744972009322E+00 
    1.7645027937286732E+00 
    1.7475676800757529E+00 
    1.7340943703726828E+00 
    1.7216074805166777E+00 
    1.7089191563783386E+00 
    1.6988879633131631E+00 
    1.6942552311145274E+00 
    1.6921415180674180E+00 
    1.6909040973669631E+00 
    1.6903436629243145E+00 
    2.2229247575805768E+00 
    2.2206121216591219E+00 
    2.2187908138511685E+00 
    2.2179451999762758E+00 
    2.2172417998736784E+00 
    2.2168045250579804E+00 
    2.2165706852453226E+00 
    2.2163147655505746E+00 
    2.2159733473325272E+00 
    2.2156489245719739E+00 
    2.2153515644392447E+00 
    2.2150804877974162E+00 
    2.2147808195528764E+00 
    2.2142054784813907E+00 
    2.2134565431423505E+00 
    2.2126162152079720E+00 
    2.2117424406185680E+00 
    2.2107938642758800E+00 
    2.2098147292467671E+00 
    2.2084324577567491E+00 
    2.2071125481256311E+00 
    2.2056134315536666E+00 
    2.2034003886806190E+00 
    2.2014161009866511E+00 
    2.1998492719863734E+00 
    2.1978864146947878E+00 
    2.1954290413118684E+00 
    2.1929514634285510E+00 
    2.1893934458407815E+00 
    2.1849850435019404E+00 
    2.1795107674500449E+00 
    2.1732028738167308E+00 
    2.1652120745774841E+00 
    2.1582088996476942E+00 
    2.1518754015971173E+00 
    2.1426790037549348E+00 
    2.1267742265315075E+00 
    2.1104569350700455E+00 
    2.0962956892327282E+00 
    2.0850323996184632E+00 
    2.0760933940851380E+00 
    2.0657129722035279E+00 
    2.0492890444863217E+00 
    2.0293595396318134E+00 
    1.9931764614202205E+00 
    1.9439660094674065E+00 
    1.8957146806094090E+00 
    1.8493733134404575E+00 
    1.8150343812456196E+00 
    1.7882470215517752E+00 
    1.7642370876199622E+00 
    1.7470139069953239E+00 
    1.7326094835800545E+00 
    1.7217100106938248E+00 
    1.7085870475432359E+00 
    1.6986921478288410E+00 
    1.6943991510855345E+00 
    1.6922252513882436E+00 
    1.6909427586285029E+00 
    1.6903656423083064E+00 
    2.2218329118460809E+00 
    2.2199877632296627E+00 
    2.2182606653557899E+00 
    2.2177075954648400E+00 
    2.2171178952109170E+00 
    2.2167788874936689E+00 
    2.2165684310247089E+00 
    2.2163301482236655E+00 
    2.2159969001008393E+00 
    2.2156458333047455E+00 
    2.2153387190765312E+00 
    2.2150527201201218E+00 
    2.2147236243840962E+00 
    2.2141546249234212E+00 
    2.2134163717356397E+00 
    2.2125401274643632E+00 
    2.2117282667349549E+00 
    2.2108111190957258E+00 
    2.2097303416785539E+00 
    2.2084064540971533E+00 
    2.2071272836790499E+00 
    2.2054494301613223E+00 
    2.2031565296734454E+00 
    2.2013404320727772E+00 
    2.1997903779966173E+00 
    2.1979348814815118E+00 
    2.1954713188150339E+00 
    2.1929024587690376E+00 
    2.1893699940842928E+00 
    2.1850561051937829E+00 
    2.1798156710280918E+00 
    2.1739913104569215E+00 
    2.1659566325430104E+00 
    2.1584953601481995E+00 
    2.1520898259700054E+00 
    2.1419304038987321E+00 
    2.1266380465755930E+00 
    2.1118169498479360E+00 
    2.0981412149584342E+00 
    2.0870590294671425E+00 
    2.0771028731311549E+00 
    2.0659385898155636E+00 
    2.0475712277836045E+00 
    2.0218333570405687E+00 
    1.9797582454895137E+00 
    1.9262877498660931E+00 
    1.8847777674203201E+00 
    1.8413487155624497E+00 
    1.8104678515753179E+00 
    1.7879003846176296E+00 
    1.7637337109574354E+00 
    1.7454449543650943E+00 
    1.7314220513523113E+00 
    1.7225042083674527E+00 
    1.7085466291845894E+00 
    1.6985403941462744E+00 
    1.6945091839165498E+00 
    1.6924022978957582E+00 
    1.6909953235726365E+00 
    1.6903817617183905E+00 
    2.2203189795063736E+00 
    2.2190838066128502E+00 
    2.2179469610137961E+00 
    2.2174148929617621E+00 
    2.2170019033620636E+00 
    2.2167558195560422E+00 
    2.2165583891558662E+00 
    2.2163467833681740E+00 
    2.2160330004793960E+00 
    2.2156387909585136E+00 
    2.2153192575006786E+00 
    2.2150304722314877E+00 
    2.2146804748307707E+00 
    2.2141208654314233E+00 
    2.2133619355117178E+00 
    2.2124493701969543E+00 
    2.2116780766544735E+00 
    2.2107916226158766E+00 
    2.2096652838011024E+00 
    2.2084173166868784E+00 
    2.2071290689094019E+00 
    2.2052962146684738E+00 
    2.2030450046307601E+00 
    2.2012847692941304E+00 
    2.1997489697881898E+00 
    2.1979757744645405E+00 
    2.1956132283674501E+00 
    2.1928468619657888E+00 
    2.1892014188768503E+00 
    2.1850605759470354E+00 
    2.1799540375573763E+00 
    2.1743865882971489E+00 
    2.1666264235450710E+00 
    2.1588808243545299E+00 
    2.1519586425060564E+00 
    2.1407590722661038E+00 
    2.1267749705205801E+00 
    2.1139372476388800E+00 
    2.1012575838268748E+00 
    2.0895599724570020E+00 
    2.0783948362841991E+00 
    2.0660553336721406E+00 
    2.0427534062138490E+00 
    2.0105962990232693E+00 
    1.9641770767290032E+00 
    1.9139890878818748E+00 
    1.8714456030551225E+00 
    1.8343138422822645E+00 
    1.8077939729815593E+00 
    1.7870867994428634E+00 
    1.7628159853998679E+00 
    1.7440166403338828E+00 
    1.7306702055789629E+00 
    1.7235052580742076E+00 
    1.7094855190257772E+00 
    1.6984636069969727E+00 
    1.6945150037279548E+00 
    1.6925599740286081E+00 
    1.6910755341949508E+00 
    1.6904034295210255E+00 
    2.2190254301933741E+00 
    2.2182477702478791E+00 
    2.2177210591567640E+00 
    2.2172759341493133E+00 
    2.2169253642916749E+00 
    2.2167303865836696E+00 
    2.2165485028270453E+00 
    2.2163465764107526E+00 
    2.2160567159315052E+00 
    2.2156326912869369E+00 
    2.2153061278116377E+00 
    2.2150159104155822E+00 
    2.2146638582829263E+00 
    2.2140749846911465E+00 
    2.2132533356108675E+00 
    2.2123510238487492E+00 
    2.2116238404494903E+00 
    2.2107870677646999E+00 
    2.2096724640586509E+00 
    2.2084488445804946E+00 
    2.2071164781191066E+00 
    2.2051780947313340E+00 
    2.2029345108764655E+00 
    2.2012676098834887E+00 
    2.1997141274608021E+00 
    2.1979503518089736E+00 
    2.1957399191992342E+00 
    2.1928038462731800E+00 
    2.1891196489941933E+00 
    2.1850972122153816E+00 
    2.1800319058277755E+00 
    2.1747213152837159E+00 
    2.1667667398720343E+00 
    2.1588781738714879E+00 
    2.1515135359462505E+00 
    2.1396410708128428E+00 
    2.1268523340045671E+00 
    2.1165617105022938E+00 
    2.1051062961322757E+00 
    2.0923393288731940E+00 
    2.0803925957531875E+00 
    2.0654279651973875E+00 
    2.0385087252401153E+00 
    2.0043419626858117E+00 
    1.9550209073136258E+00 
    1.9075404921912849E+00 
    1.8642780709272597E+00 
    1.8303904184521045E+00 
    1.8060963409923301E+00 
    1.7848170728688855E+00 
    1.7618983665366139E+00 
    1.7436247733695476E+00 
    1.7307175216443791E+00 
    1.7236890937224973E+00 
    1.7106470451490110E+00 
    1.6987930584331934E+00 
    1.6945890012678613E+00 
    1.6925940545375138E+00 
    1.6911147934509041E+00 
    1.6904298168522127E+00 
    2.2184487327757378E+00 
    2.2178259136500693E+00 
    2.2175062050219991E+00 
    2.2171895206375516E+00 
    2.2168619120414448E+00 
    2.2167023628967431E+00 
    2.2165328268408380E+00 
    2.2163413021345186E+00 
    2.2160787951175398E+00 
    2.2156355466151902E+00 
    2.2152929394741223E+00 
    2.2150022725551324E+00 
    2.2146331159810719E+00 
    2.2139962501683677E+00 
    2.2131235998231946E+00 
    2.2122601019194619E+00 
    2.2115936201660635E+00 
    2.2107900952057489E+00 
    2.2096992208081718E+00 
    2.2084696538716879E+00 
    2.2071060513882537E+00 
    2.2050700106422165E+00 
    2.2028481847830865E+00 
    2.2012646681885979E+00 
    2.1996493547655604E+00 
    2.1979044426871410E+00 
    2.1958127442702526E+00 
    2.1928846347151887E+00 
    2.1891686960969210E+00 
    2.1850024972024000E+00 
    2.1800383457856207E+00 
    2.1749013039822542E+00 
    2.1665429919213248E+00 
    2.1587028689394816E+00 
    2.1511501560731872E+00 
    2.1387086530075092E+00 
    2.1267356748279842E+00 
    2.1181930000711815E+00 
    2.1076680874510902E+00 
    2.0952453768873500E+00 
    2.0832238727510046E+00 
    2.0659690370754378E+00 
    2.0379010909174662E+00 
    2.0014336988788113E+00 
    1.9483817384336277E+00 
    1.9030177161131898E+00 
    1.8626876735077571E+00 
    1.8275014285311129E+00 
    1.8037299545855408E+00 
    1.7825157034239043E+00 
    1.7614352871962720E+00 