# vtk DataFile Version 2.0
Pressure Field Data 
ASCII 
DATASET UNSTRUCTURED_GRID 

POINTS 13481 double 

    0.0000000000000000E+00     0.0000000000000000E+00     0.0000000000000000E+00 
    1.0000000000000000E+00     0.0000000000000000E+00     0.0000000000000000E+00 
    1.0000000000000000E+00     1.0000000000000000E+00     0.0000000000000000E+00 
    0.0000000000000000E+00     1.0000000000000000E+00     0.0000000000000000E+00 
    4.5454545454459132E-03     0.0000000000000000E+00     0.0000000000000000E+00 
    9.0909090908918525E-03     0.0000000000000000E+00     0.0000000000000000E+00 
    1.3636363636337859E-02     0.0000000000000000E+00     0.0000000000000000E+00 
    1.8181818181783872E-02     0.0000000000000000E+00     0.0000000000000000E+00 
    2.2727272727229870E-02     0.0000000000000000E+00     0.0000000000000000E+00 
    2.7272727272675549E-02     0.0000000000000000E+00     0.0000000000000000E+00 
    3.1818181818121058E-02     0.0000000000000000E+00     0.0000000000000000E+00 
    3.6363636363565877E-02     0.0000000000000000E+00     0.0000000000000000E+00 
    4.0909090909010543E-02     0.0000000000000000E+00     0.0000000000000000E+00 
    4.5454545454454973E-02     0.0000000000000000E+00     0.0000000000000000E+00 
    4.9999999999899403E-02     0.0000000000000000E+00     0.0000000000000000E+00 
    5.4545454545343833E-02     0.0000000000000000E+00     0.0000000000000000E+00 
    5.9090909090789019E-02     0.0000000000000000E+00     0.0000000000000000E+00 
    6.3636363636234636E-02     0.0000000000000000E+00     0.0000000000000000E+00 
    6.8181818181681425E-02     0.0000000000000000E+00     0.0000000000000000E+00 
    7.2727272727128645E-02     0.0000000000000000E+00     0.0000000000000000E+00 
    7.7272727272576225E-02     0.0000000000000000E+00     0.0000000000000000E+00 
    8.1818181818023805E-02     0.0000000000000000E+00     0.0000000000000000E+00 
    8.6363636363471386E-02     0.0000000000000000E+00     0.0000000000000000E+00 
    9.0909090908918966E-02     0.0000000000000000E+00     0.0000000000000000E+00 
    9.5454545454366560E-02     0.0000000000000000E+00     0.0000000000000000E+00 
    9.9999999999814140E-02     0.0000000000000000E+00     0.0000000000000000E+00 
    1.0454545454526171E-01     0.0000000000000000E+00     0.0000000000000000E+00 
    1.0909090909070930E-01     0.0000000000000000E+00     0.0000000000000000E+00 
    1.1363636363615690E-01     0.0000000000000000E+00     0.0000000000000000E+00 
    1.1818181818160410E-01     0.0000000000000000E+00     0.0000000000000000E+00 
    1.2272727272705020E-01     0.0000000000000000E+00     0.0000000000000000E+00 
    1.2727272727249461E-01     0.0000000000000000E+00     0.0000000000000000E+00 
    1.3181818181793739E-01     0.0000000000000000E+00     0.0000000000000000E+00 
    1.3636363636337900E-01     0.0000000000000000E+00     0.0000000000000000E+00 
    1.4090909090882031E-01     0.0000000000000000E+00     0.0000000000000000E+00 
    1.4545454545426159E-01     0.0000000000000000E+00     0.0000000000000000E+00 
    1.4999999999970290E-01     0.0000000000000000E+00     0.0000000000000000E+00 
    1.5454545454514421E-01     0.0000000000000000E+00     0.0000000000000000E+00 
    1.5909090909058540E-01     0.0000000000000000E+00     0.0000000000000000E+00 
    1.6363636363602671E-01     0.0000000000000000E+00     0.0000000000000000E+00 
    1.6818181818146799E-01     0.0000000000000000E+00     0.0000000000000000E+00 
    1.7272727272690930E-01     0.0000000000000000E+00     0.0000000000000000E+00 
    1.7727272727235049E-01     0.0000000000000000E+00     0.0000000000000000E+00 
    1.8181818181779180E-01     0.0000000000000000E+00     0.0000000000000000E+00 
    1.8636363636323311E-01     0.0000000000000000E+00     0.0000000000000000E+00 
    1.9090909090867439E-01     0.0000000000000000E+00     0.0000000000000000E+00 
    1.9545454545411561E-01     0.0000000000000000E+00     0.0000000000000000E+00 
    1.9999999999955689E-01     0.0000000000000000E+00     0.0000000000000000E+00 
    2.0454545454499820E-01     0.0000000000000000E+00     0.0000000000000000E+00 
    2.0909090909043951E-01     0.0000000000000000E+00     0.0000000000000000E+00 
    2.1363636363588079E-01     0.0000000000000000E+00     0.0000000000000000E+00 
    2.1818181818132210E-01     0.0000000000000000E+00     0.0000000000000000E+00 
    2.2272727272676340E-01     0.0000000000000000E+00     0.0000000000000000E+00 
    2.2727272727220460E-01     0.0000000000000000E+00     0.0000000000000000E+00 
    2.3181818181764591E-01     0.0000000000000000E+00     0.0000000000000000E+00 
    2.3636363636308719E-01     0.0000000000000000E+00     0.0000000000000000E+00 
    2.4090909090852841E-01     0.0000000000000000E+00     0.0000000000000000E+00 
    2.4545454545396969E-01     0.0000000000000000E+00     0.0000000000000000E+00 
    2.4999999999941100E-01     0.0000000000000000E+00     0.0000000000000000E+00 
    2.5454545454485222E-01     0.0000000000000000E+00     0.0000000000000000E+00 
    2.5909090909029348E-01     0.0000000000000000E+00     0.0000000000000000E+00 
    2.6363636363573478E-01     0.0000000000000000E+00     0.0000000000000000E+00 
    2.6818181818117609E-01     0.0000000000000000E+00     0.0000000000000000E+00 
    2.7272727272661729E-01     0.0000000000000000E+00     0.0000000000000000E+00 
    2.7727272727205871E-01     0.0000000000000000E+00     0.0000000000000000E+00 
    2.8181818181749990E-01     0.0000000000000000E+00     0.0000000000000000E+00 
    2.8636363636294121E-01     0.0000000000000000E+00     0.0000000000000000E+00 
    2.9090909090838252E-01     0.0000000000000000E+00     0.0000000000000000E+00 
    2.9545454545382382E-01     0.0000000000000000E+00     0.0000000000000000E+00 
    2.9999999999926502E-01     0.0000000000000000E+00     0.0000000000000000E+00 
    3.0454545454470627E-01     0.0000000000000000E+00     0.0000000000000000E+00 
    3.0909090909014758E-01     0.0000000000000000E+00     0.0000000000000000E+00 
    3.1363636363558878E-01     0.0000000000000000E+00     0.0000000000000000E+00 
    3.1818181818103008E-01     0.0000000000000000E+00     0.0000000000000000E+00 
    3.2272727272647139E-01     0.0000000000000000E+00     0.0000000000000000E+00 
    3.2727272727191270E-01     0.0000000000000000E+00     0.0000000000000000E+00 
    3.3181818181735401E-01     0.0000000000000000E+00     0.0000000000000000E+00 
    3.3636363636279532E-01     0.0000000000000000E+00     0.0000000000000000E+00 
    3.4090909090823651E-01     0.0000000000000000E+00     0.0000000000000000E+00 
    3.4545454545367782E-01     0.0000000000000000E+00     0.0000000000000000E+00 
    3.4999999999911913E-01     0.0000000000000000E+00     0.0000000000000000E+00 
    3.5454545454456032E-01     0.0000000000000000E+00     0.0000000000000000E+00 
    3.5909090909000158E-01     0.0000000000000000E+00     0.0000000000000000E+00 
    3.6363636363544288E-01     0.0000000000000000E+00     0.0000000000000000E+00 
    3.6818181818088419E-01     0.0000000000000000E+00     0.0000000000000000E+00 
    3.7272727272632539E-01     0.0000000000000000E+00     0.0000000000000000E+00 
    3.7727272727176681E-01     0.0000000000000000E+00     0.0000000000000000E+00 
    3.8181818181720800E-01     0.0000000000000000E+00     0.0000000000000000E+00 
    3.8636363636264931E-01     0.0000000000000000E+00     0.0000000000000000E+00 
    3.9090909090809062E-01     0.0000000000000000E+00     0.0000000000000000E+00 
    3.9545454545353192E-01     0.0000000000000000E+00     0.0000000000000000E+00 
    3.9999999999897312E-01     0.0000000000000000E+00     0.0000000000000000E+00 
    4.0454545454441437E-01     0.0000000000000000E+00     0.0000000000000000E+00 
    4.0909090908985568E-01     0.0000000000000000E+00     0.0000000000000000E+00 
    4.1363636363529688E-01     0.0000000000000000E+00     0.0000000000000000E+00 
    4.1818181818073819E-01     0.0000000000000000E+00     0.0000000000000000E+00 
    4.2272727272617949E-01     0.0000000000000000E+00     0.0000000000000000E+00 
    4.2727272727162080E-01     0.0000000000000000E+00     0.0000000000000000E+00 
    4.3181818181706211E-01     0.0000000000000000E+00     0.0000000000000000E+00 
    4.3636363636250342E-01     0.0000000000000000E+00     0.0000000000000000E+00 
    4.4090909090794472E-01     0.0000000000000000E+00     0.0000000000000000E+00 
    4.4545454545338597E-01     0.0000000000000000E+00     0.0000000000000000E+00 
    4.4999999999882723E-01     0.0000000000000000E+00     0.0000000000000000E+00 
    4.5454545454426848E-01     0.0000000000000000E+00     0.0000000000000000E+00 
    4.5909090908970979E-01     0.0000000000000000E+00     0.0000000000000000E+00 
    4.6363636363515098E-01     0.0000000000000000E+00     0.0000000000000000E+00 
    4.6818181818059240E-01     0.0000000000000000E+00     0.0000000000000000E+00 
    4.7272727272603360E-01     0.0000000000000000E+00     0.0000000000000000E+00 
    4.7727272727147491E-01     0.0000000000000000E+00     0.0000000000000000E+00 
    4.8181818181691621E-01     0.0000000000000000E+00     0.0000000000000000E+00 
    4.8636363636235752E-01     0.0000000000000000E+00     0.0000000000000000E+00 
    4.9090909090779872E-01     0.0000000000000000E+00     0.0000000000000000E+00 
    4.9545454545324458E-01     0.0000000000000000E+00     0.0000000000000000E+00 
    4.9999999999869221E-01     0.0000000000000000E+00     0.0000000000000000E+00 
    5.0454545454415234E-01     0.0000000000000000E+00     0.0000000000000000E+00 
    5.0909090908961430E-01     0.0000000000000000E+00     0.0000000000000000E+00 
    5.1363636363508092E-01     0.0000000000000000E+00     0.0000000000000000E+00 
    5.1818181818054743E-01     0.0000000000000000E+00     0.0000000000000000E+00 
    5.2272727272601394E-01     0.0000000000000000E+00     0.0000000000000000E+00 
    5.2727272727148045E-01     0.0000000000000000E+00     0.0000000000000000E+00 
[...]
CELL_DATA 13200 
SCALARS Pressure double 1 
LOOKUP_TABLE default 

    1.6998200000000000E+02 
    9.8326999999999998E+01 
    1.3637700000000001E+02 
    1.1184699999999999E+02 
    3.4797499999999999E+01 
    6.5429299999999998E+01 
    1.4849400000000000E+02 
    4.7555300000000003E+01 
    1.7055900000000001E+01 
    3.6131200000000001E+02 
    2.8538099999999997E+02 
    7.1636499999999998E+01 
    6.0598500000000001E+01 
    4.2518000000000001E+02 
    5.8882899999999995E+02 
    5.2146600000000001E+02 
    8.1674999999999998E-02 
    1.9143299999999999E-01 
    4.5575300000000002E-01 
    1.0576300000000000E-01 
    3.6450000000000003E-02 
    1.3535999999999999E-02 
    7.9577999999999996E-02 
    1.0297300000000000E-01 
    4.6364000000000002E-02 
    9.1116000000000003E-02 
    1.3970900000000000E-01 
    1.8215300000000001E-01 
    9.7814999999999999E-02 
    1.1793500000000000E-01 
    3.0584299999999998E-01 
    1.0857400000000000E-01 
    1.1614000000000000E+02 
    2.5665500000000002E+01 
    5.1618699999999997E+01 
    2.6892599999999999E+02 
    2.9930000000000001E+02 
    4.5341099999999997E+01 
    6.1175400000000003E+01 
    1.8991600000000000E+02 
    1.1079300000000001E+02 
    7.4479499999999996E+02 
    3.9036599999999999E+02 
    2.2936600000000001E+02 
    3.4537099999999998E+02 
    9.4005700000000002E+02 
    4.3023399999999998E+02 
    1.1528800000000001E+03 
    1.6697800000000001E+02 
    7.7892300000000000E+02 
    5.5489300000000003E+02 
    1.8647200000000000E+03 
    3.1657700000000002E+00 
    1.1005300000000000E+02 
    4.9556699999999999E+01 
    2.5505600000000001E+01 
    1.2584300000000001E+01 
    3.3864999999999999E-02 
    3.4083000000000002E-02 
    6.4542000000000002E-02 
    2.9328600000000000E+02 
    1.6654800000000000E+02 
    2.7658199999999999E+02 
    1.3853000000000000E+02 
    3.4475499999999997E+01 
    2.5882999999999998E+02 
    6.5188999999999993E+01 
    6.1988300000000002E+01 
    3.1730099999999999E+02 
    2.4672700000000000E+02 
    2.3121500000000000E+02 
    1.9534000000000000E+02 
    1.4261699999999999E+02 
    5.2078299999999999E+01 
    3.2400500000000000E+02 
    4.3253899999999999E+02 
    3.4775000000000000E-02 
    7.3889999999999997E-02 
    9.9196000000000006E-02 
    1.1767200000000000E-01 
    1.9085999999999999E-02 
    1.4430000000000000E-02 
    3.4875000000000003E-02 
    5.9152000000000003E-02 
    2.6637000000000001E-02 
    3.7564599999999998E-01 
    2.2513300000000000E-01 
    4.8855999999999997E-02 
    1.2330199999999999E-01 
    2.5872299999999998E-01 
    3.3028000000000002E-01 
    2.8881000000000001E-01 
    9.8913399999999996E+01 
    2.8594899999999999E+01 
    6.5123999999999995E+01 
    2.5787200000000001E+02 
    3.7997000000000003E+02 
    3.9997999999999998E+01 
    2.5326599999999999E+01 
    6.7002300000000005E+01 
    6.9299300000000002E+01 
    2.8881200000000001E+02 
    3.6990400000000000E+02 
    3.7978399999999999E+02 
    4.2682799999999997E+02 
    3.7146300000000002E+02 
    6.7644500000000005E+02 
    1.6333800000000001E+03 
    2.8586799999999999E+02 
    7.9361400000000003E+02 
    4.9244299999999998E+02 
    6.7812599999999998E+02 
    2.2377300000000000E+03 
    1.6646400000000000E+02 
    3.6477300000000000E+01 
    3.2540599999999998E+01 
    5.2393000000000002E-02 
    8.1667000000000003E-02 
    1.0633900000000000E-01 
    1.1285900000000000E-01 
    1.9351900000000001E+02 
    1.4490600000000001E+02 
    2.3160300000000001E+02 
    4.2309899999999999E+02 
    3.8304900000000004E+01 
    1.4125899999999999E+02 
    9.0055199999999999E+01 
    4.7030400000000000E+01 
    2.3784399999999999E+02 
    3.0820200000000000E+02 
    1.4143500000000000E+02 
    3.3893700000000001E+02 
    2.5293500000000000E+02 
    8.7035499999999999E+01 
    3.7671600000000001E+02 
    2.4660200000000000E+02 
    5.5697000000000003E-02 
    3.6858000000000002E-02 
    8.7617000000000000E-02 
    2.5925500000000001E-01 
    1.2283800000000000E-01 
    4.3472999999999998E-02 
    2.4468899999999999E-01 
    1.5721900000000000E-01 
    3.8131100000000001E-01 
    2.3827499999999999E-01 
    1.5791600000000000E-01 
    8.6305999999999994E-02 
    1.2732599999999999E-01 
    1.9455000000000000E-01 
    1.8382000000000001E-01 
    6.3261100000000003E-01 
    7.0772499999999994E+01 
    2.4528600000000001E+01 
    2.7213999999999999E+01 
    2.3595900000000000E+02 
    1.2033900000000000E+02 
    4.7058399999999999E+01 
    2.2285399999999999E+01 
    8.5964100000000002E+01 
    7.3181100000000001E+01 
    1.3956800000000001E+02 
    3.4094700000000000E+02 
    5.7448000000000002E+02 
    6.1766399999999999E+02 
    1.4520400000000001E+02 
    6.4859400000000005E+02 
    9.9889800000000002E+02 
    2.3007300000000001E+02 
    5.6678599999999994E+02 
    1.9016200000000001E+02 
    6.0882899999999995E+02 
    2.0005300000000000E+02 
    4.4765300000000003E+01 
    2.3443100000000000E-01 
    4.9302299999999999E-01 
    7.9875499999999999E-01 
    2.0937500000000001E-01 
    9.7744999999999999E-02 
    6.5882999999999997E-02 
    1.9081600000000000E+02 
    6.4900800000000004E+01 
    3.2005400000000002E+01 
    3.0702100000000002E+01 
    2.9542500000000000E+01 
    9.8735299999999995E+01 
    8.4454300000000003E+01 
    1.4111699999999999E+02 
    1.4461400000000000E+02 
    1.2640700000000000E+02 
    8.4121799999999993E+01 
    2.0567400000000001E+02 
    1.6547800000000001E+02 
    9.8520499999999998E+01 
    2.7908600000000001E+02 
    5.1816200000000002E+01 
    3.5193000000000002E-02 
    1.2088900000000000E-01 
    1.4442199999999999E-01 
    2.0390200000000000E-01 
    4.5960600000000001E-01 
    2.8115099999999998E-01 
    3.6985000000000001E-01 
    1.3245999999999999E-01 
    1.8254200000000001E-01 
    2.3192099999999999E-01 
    3.7765700000000002E-01 
    1.5685600000000000E-01 
    2.3117900000000000E-01 
    7.9791000000000001E-02 
    7.3425000000000004E-02 
    1.4683099999999999E-01 
    5.2300500000000000E+01 
    2.7537900000000000E+01 
    4.9509300000000003E+01 
    7.8210999999999999E+01 
    6.2857599999999998E+01 
    3.1055000000000000E+01 
    2.9326300000000000E+01 
    6.3968800000000002E+01 
    7.4962400000000002E+01 
    6.4781999999999996E+01 
    2.3028899999999999E+02 
    6.9079300000000001E+02 
    6.7954999999999995E+02 
    9.9834599999999995E+01 
    9.6002099999999996E+02 
    1.1793299999999999E+03 
    3.3223099999999999E+02 
    7.0996600000000001E+02 
    2.9766000000000003E+02 
    8.4092699999999994E+01 
    6.9859000000000004E-02 
    4.6928199999999998E-01 
    1.3589399999999999E-01 
    6.3652500000000001E-01 
    1.8873699999999999E-01 
    1.6622899999999999E-01 
    2.9963000000000000E-02 
    1.9582400000000000E-01 
    3.8273000000000002E+02 
    3.5465499999999999E+01 
    3.4049799999999999E+02 
    2.2237100000000001E+02 
    2.1440000000000001E+01 
    3.4694000000000003E+01 
    4.9360100000000003E+01 
    3.8502099999999999E+01 
    8.6509799999999998E+01 
    4.8328500000000003E+02 
    2.0505400000000000E+02 
    1.2291000000000000E+02 
    2.8924700000000001E+02 
    1.0824600000000000E+02 
    1.6136799999999999E+02 
    1.0779600000000000E-01 
    7.1952000000000002E-02 
    1.5805500000000000E-01 
    6.3393000000000005E-02 
    1.2464400000000000E-01 
    7.4097999999999997E-02 
    1.0557000000000001E+00 
    3.1336000000000003E-01 
    4.1337600000000002E-01 
    4.2638000000000002E-02 
    3.7823000000000002E-02 
    1.5465799999999999E-01 
    3.4276099999999998E-01 
    2.2700600000000001E-01 
    3.6083999999999998E-02 
    1.0258100000000001E-01 
    2.0547000000000000E+02 
    5.7562600000000003E+01 
    6.3364899999999999E+01 
    5.9858800000000002E+01 
    8.7029899999999998E+01 
    1.2055400000000000E+02 
    2.4469400000000000E+01 
    2.3240500000000001E+01 
    1.2494300000000001E+01 
    7.3648200000000003E+01 
    1.8213100000000000E+02 
    2.2367699999999999E+02 
    3.5426499999999999E+02 
    2.1862600000000000E+02 
    1.4394800000000001E+02 
    8.8423699999999997E+02 
    5.6855300000000000E+02 
    4.5113999999999999E+02 
    1.0566199999999999E+03 
    1.9202300000000000E+02 
    6.5548199999999994E+01 
    2.7706999999999999E-02 
    1.0344500000000000E-01 
    3.1371900000000003E-01 
    2.8686400000000001E-01 
    1.7964400000000000E-01 
    2.7135500000000001E-01 
    4.5128000000000001E-02 
    2.4327599999999999E-01 
    3.7401799999999997E+02 
    1.2573099999999999E+02 
    2.7244400000000002E+02 
    1.4225800000000001E+02 
    1.5999400000000000E+01 
    3.8379600000000003E+01 
    5.8487699999999997E+01 
    4.3991999999999997E+01 
    1.1596299999999999E+02 
    4.3391600000000000E+02 
    1.3976400000000001E+02 
    1.8546000000000001E+02 
    2.0019999999999999E+02 
    8.3341099999999994E+02 
    2.0605699999999999E-01 
    1.1187300000000000E-01 
    4.2736999999999997E-02 
    4.4325799999999999E-01 
    6.2313000000000000E-02 
    2.3151999999999999E-02 
    1.0903100000000000E-01 
    5.8834299999999995E-01 
    3.9945799999999998E-01 
    4.1540100000000002E-01 
    1.4630599999999999E-01 
    8.3807999999999994E-02 
    2.3013900000000001E-01 
    1.3990700000000000E-01 
    1.1138700000000000E-01 
    2.1406000000000001E-02 
    1.2884000000000000E-02 
    1.1672199999999999E+02 
    7.0095399999999998E+01 
    5.0982900000000001E+01 
    3.1503699999999998E+01 
    4.3265999999999998E+01 
    1.3935100000000000E+02 
    8.8772700000000000E+01 
    3.3532200000000003E+01 
    4.0689200000000000E+02 
    9.4586000000000001E+02 
    2.0578500000000000E+02 
    2.6414499999999998E+02 
    3.0145499999999998E+02 
    2.5768400000000003E+02 
    1.2755100000000000E+02 
    2.4188999999999999E+02 
    5.9806899999999996E+02 
    2.3158500000000001E+02 
    1.1096500000000000E+02 
    2.0514200000000000E+02 
    4.9595300000000002E+01 
    4.4621000000000002E+01 
    1.3347300000000001E-01 
    4.0387200000000001E-01 
    5.0224700000000000E-01 
    1.1204300000000000E-01 
    2.1956400000000001E-01 
    2.4344399999999999E-01 
    1.7405100000000001E-01 
    3.5472500000000002E+02 
    7.0520499999999998E+01 
    1.1056000000000000E+02 
    2.6824599999999998E+02 
    8.0657799999999995E+01 
    8.7287800000000004E+01 
    4.6385700000000000E+01 
    1.3576400000000001E+02 
    2.5654599999999999E+02 
    2.4856200000000001E+02 
    1.6922000000000000E+02 
    2.2793799999999999E+02 
    1.7914800000000000E+02 
    3.5754100000000000E+02 
    4.0363099999999997E+02 
    1.0054100000000000E+03 
    1.1079799999999999E-01 
    2.6905600000000002E-01 
    7.2593000000000005E-02 
    1.1549000000000000E-02 
    1.3456699999999999E-01 
    9.2787600000000003E-01 
    3.0582500000000001E-01 
    2.2495699999999999E-01 
    1.8029999999999999E-01 
    6.8927000000000002E-02 
    7.9701999999999995E-02 
    2.6435700000000001E-01 
    2.4240400000000001E-01 
    1.5826200000000001E-01 
    2.7809800000000001E-01 
    8.2841499999999996E+01 
    8.2649199999999993E+01 
    2.8022700000000000E+01 
    3.1722200000000001E+01 
    3.2665500000000002E+01 
    2.1859700000000001E+02 
    9.0014799999999994E+01 
    4.4921999999999997E+01 
    4.1440800000000002E+02 
    5.5742200000000003E+02 
    1.1052000000000000E+02 
    1.6392500000000001E+02 
    1.1223000000000000E+02 
    6.9682299999999998E+01 
    2.2753100000000001E+02 
    6.5640799999999999E+01 
    1.8506999999999999E+02 
    1.4489300000000000E+02 
    6.9143699999999995E+01 
    2.9325900000000001E+02 
    7.2074900000000000E+01 
    2.2279699999999998E+01 
    1.2786400000000000E+01 
    1.8270900000000001E-01 
    6.9527899999999998E-01 
    5.7645999999999997E-01 
    3.4596800000000000E-01 
    2.3022999999999999E-01 
    3.6356400000000000E-01 
    1.5244000000000000E+02 
    5.9541100000000000E+01 
    7.6897800000000004E+01 
    1.0482400000000000E+02 
    8.2619299999999996E+01 
    8.4877700000000004E+01 
    1.3801800000000000E+02 
    1.5203899999999999E+02 
    2.0419300000000001E+02 
    2.5309700000000001E+02 
    1.2377400000000000E+02 
    2.0406299999999999E+02 
    9.9912800000000004E+01 
    7.9583500000000004E+02 
    7.4592600000000004E+02 
    1.2169600000000000E+03 
    7.6016499999999996E+02 
    3.5619999999999999E-02 
    4.6246000000000002E-02 
    4.1313999999999997E-02 
    4.8080999999999999E-02 
    1.4534000000000000E-01 
    9.3883999999999995E-02 
    5.5662000000000003E-02 
    2.1324899999999999E-01 
    2.0586499999999999E-01 
    5.7265000000000003E-02 
    1.1372999999999999E-02 
    1.4113800000000001E-01 
    1.1355100000000000E-01 
    6.3505400000000002E+01 
    2.2376400000000000E+01 
    7.6305400000000006E+01 
    4.0613399999999999E+01 
    3.3826799999999999E+01 
    2.0654000000000000E+01 
    1.1401400000000000E+02 
    2.2932300000000001E+02 
    2.0610100000000000E+02 
    3.4774500000000000E+02 
    1.5766999999999999E+02 
    7.5242699999999999E+01 
    1.0084999999999999E+02 
    2.0082200000000000E+02 
    3.7980900000000003E+02 
    5.2811799999999998E+01 
    8.9496499999999997E+01 
    1.3360499999999999E+02 
    1.2053900000000000E+02 
    1.7911600000000001E+02 
    2.3254300000000001E+02 
    7.0954099999999997E+01 
    3.1061599999999999E+01 
    1.4969700000000000E+01 
    6.1433400000000005E-01 
    1.1344200000000000E+00 
    2.8590599999999999E-01 
    1.4683100000000000E+00 
    1.9122300000000000E-01 
    1.7062300000000000E-01 
    3.0700999999999999E-02 
    2.4275099999999999E-01 
    1.6250500000000001E-01 
    7.6808899999999994E+01 
    6.4790899999999993E+01 
    1.0414500000000000E+02 
    2.5135400000000001E+02 
    2.3572800000000001E+02 
    3.7782900000000001E+02 
    1.3893499999999999E+03 
    2.3383199999999999E+02 
    1.7093000000000001E+02 
    9.9921000000000006E+01 
    7.6860100000000000E+02 
    6.9998500000000001E+02 
    4.4409800000000001E+02 
    4.5932600000000002E+02 
    2.0516699999999999E-01 
    1.4649999999999999E-01 
    6.1922999999999999E-02 
    6.6334000000000004E-02 
    3.2434099999999999E-01 
    1.7864099999999999E-01 
    6.6353999999999996E-02 
    8.6001999999999995E-02 
    8.9318999999999996E-02 
    1.8600999999999999E-02 
    3.3354000000000002E-02 
    7.2294999999999998E-02 
    2.3629000000000001E+03 
    7.5613299999999995E+01 
    2.4526900000000001E+01 
    1.0641600000000000E+02 
    2.7374600000000001E+01 
    3.6319000000000003E+01 
    3.4606200000000001E+01 
    8.9070999999999998E+01 
    3.7292200000000003E+02 
    2.0818600000000001E+02 
    4.4462299999999999E+02 
    1.6922200000000001E+02 
    7.6741500000000002E+01 
    6.0567500000000003E+01 
    2.5726100000000002E+02 
    3.3935700000000003E+02 
    3.0764600000000002E+02 
    5.6737699999999997E+01 
    6.9265400000000000E+01 
    1.5824100000000001E+02 
    2.1193500000000000E+02 
    1.7780300000000000E+02 
    3.1243400000000001E+01 
    6.4722200000000001E+01 
    2.7532900000000001E+01 
    8.3080900000000002E-01 
    3.2075599999999999E-01 
    4.3611399999999998E+00 
    2.9430899999999999E-01 
    1.3716600000000001E-01 
    2.9373400000000000E-01 
    1.5314600000000000E-01 
    1.1366200000000000E-01 
    1.4955700000000000E-01 
    3.2684800000000001E+02 
    1.9639699999999999E+02 
    3.5559399999999999E+02 
    2.5307200000000000E+02 
    2.9077300000000002E+02 
    1.3607800000000000E+03 
    4.6792800000000000E+02 
    1.6441200000000001E+02 
    1.9454100000000000E+02 
    2.1758500000000001E+02 
    7.5090499999999997E+02 
    4.0326900000000001E+02 
    5.8453399999999999E+02 
    5.8988400000000001E+02 
    2.7898200000000003E+02 
    3.1723600000000001E+03 
    1.1444300000000000E-01 
    1.2459000000000001E-01 
    7.1457000000000007E-02 
    2.2955000000000000E-01 
    8.3346000000000003E-02 
    3.5361999999999998E-02 
    6.7790000000000003E-02 
    2.9737000000000000E-02 
    7.2111999999999996E-02 
    9.7565599999999995E+02 
    3.2421599999999999E+03 
    7.8058700000000002E+01 
    2.7895700000000001E+01 
    1.3572399999999999E+02 
    1.2916300000000001E+02 
    1.5747200000000001E+02 
    3.8516199999999998E+02 
    2.5705300000000000E+02 
    3.1331900000000002E+02 
    2.4531999999999999E+02 
    5.2952300000000002E+02 
    5.6688999999999999E+02 
    2.9442300000000000E+02 
    3.0974299999999999E+01 
    2.3227900000000000E+02 
    2.3498099999999999E+02 
    1.8773400000000001E+02 
    1.6872399999999999E+02 
    7.4531899999999993E+01 
    2.2977499999999999E+01 
    5.1884900000000002E+01 
    2.1387899999999999E+02 
    3.7374200000000002E+01 
    8.3229699999999994E+01 
    4.6389699999999998E+01 
    1.0716199999999999E-01 
    5.5413199999999996E-01 
    6.5021600000000002E-01 
    5.4659500000000005E-01 
    2.0232200000000000E-01 
    4.5119300000000001E-01 
    6.2680000000000000E-02 
    1.4019100000000001E-01 
    5.5833000000000001E-02 
    2.7539999999999998E+02 
    7.1130399999999997E+02 
    1.3308600000000001E+02 
    1.0707800000000000E+02 
    1.2990299999999999E+02 
    4.6288799999999998E+02 
    2.6366899999999998E+02 
    3.4848800000000000E+02 
    1.5946100000000001E+02 
    1.4651300000000001E+02 
    2.0918500000000000E+02 
    2.4421399999999999E+03 
    2.2616399999999999E+03 
    3.1911700000000002E+02 
    2.4199299999999999E+02 
    2.0996700000000001E+03 
    5.7740800000000002E+02 
    1.6195699999999999E+02 
    1.6847000000000001E-02 
    1.0691199999999999E-01 
    4.0395300000000001E-01 
    4.9766999999999999E-02 
    3.9313000000000001E-02 
    8.4529999999999994E-02 
    1.8647100000000000E+02 
    9.1179100000000005E+02 
    1.0155700000000000E+02 
    1.6610900000000001E+02 
    1.2574500000000000E+02 
    1.2761000000000000E+02 
    9.1262599999999998E+02 
    1.1675700000000001E+02 
    8.0349199999999996E+02 
    1.8874000000000001E+02 
    2.2193799999999999E+02 
    1.3865899999999999E+02 
    1.1291100000000000E+02 
    1.3641100000000000E+02 
    4.6212599999999998E+02 
    3.3877400000000002E+01 
    1.7654400000000001E+02 
    2.9922899999999998E+02 
    2.0163800000000001E+02 
    3.4726499999999999E+02 
    5.3032800000000002E+01 
    1.6117000000000001E+01 
    2.5552900000000001E+01 
    1.3724100000000001E+02 
    5.0816400000000002E+01 
    4.3560800000000000E+01 
    7.2658400000000000E+01 
    6.4120999999999997E-02 
    8.0940999999999999E-02 
    7.9027000000000000E-02 
    1.0671799999999999E-01 
    2.3949000000000001E-01 
    3.7969000000000003E-01 
    5.6341000000000002E-02 
    1.2623500000000001E-01 
    7.5427700000000004E+02 
    5.4758799999999997E+02 
    8.5500199999999995E+02 
    2.6763000000000000E+02 
    2.2242800000000000E+02 
    5.5897100000000002E+01 
    3.7322500000000002E+02 
    7.5258199999999999E+02 
    2.7679399999999998E+02 
    1.2974500000000000E+02 
    7.1925899999999999E+01 
    1.6196299999999999E+02 
    2.4415200000000000E+03 
    1.8001900000000001E+03 
    9.3460100000000000E+02 
    4.6320999999999998E+02 
    1.0630500000000000E+03 
    5.0774500000000000E+02 
    3.6197199999999998E+02 
    3.5230300000000000E+02 
    2.3775299999999999E-01 
    4.0758899999999998E-01 
    9.8477999999999996E-02 
    1.2756999999999999E-01 
    2.8038000000000000E-02 
    5.0542200000000003E+02 
    7.6799499999999995E+01 
    1.4906999999999999E+02 
    3.3721600000000002E+01 
    2.1817500000000001E+02 
    5.3362000000000000E+02 
    7.9049199999999999E+01 
    4.1529899999999998E+01 
    3.7153199999999998E+02 
    2.1103600000000000E+02 
    2.6820299999999997E+02 
    1.7249400000000000E+02 
    6.2506700000000002E+01 
    8.7375900000000001E+01 
    5.1380399999999997E+02 
    1.8185600000000001E+01 
    6.8022900000000007E+01 
    1.8058400000000000E+02 
    4.7352300000000002E+02 
    4.7245499999999998E+02 
    8.3530299999999997E+01 
    3.1024999999999999E+01 
    1.7271299999999999E+02 
    5.5880899999999997E+01 