# vtk DataFile Version 2.0
Pressure Field Data 
ASCII 
DATASET UNSTRUCTURED_GRID 

POINTS 13481 double 

    0.0000000000000000E+00     0.0000000000000000E+00     0.0000000000000000E+00 
    1.0000000000000000E+00     0.0000000000000000E+00     0.0000000000000000E+00 
    1.0000000000000000E+00     1.0000000000000000E+00     0.0000000000000000E+00 
    0.0000000000000000E+00     1.0000000000000000E+00     0.0000000000000000E+00 
    4.5454545454459132E-03     0.0000000000000000E+00     0.0000000000000000E+00 
    9.0909090908918525E-03     0.0000000000000000E+00     0.0000000000000000E+00 
    1.3636363636337859E-02     0.0000000000000000E+00     0.0000000000000000E+00 
    1.8181818181783872E-02     0.0000000000000000E+00     0.0000000000000000E+00 
    2.2727272727229870E-02     0.0000000000000000E+00     0.0000000000000000E+00 
    2.7272727272675549E-02     0.0000000000000000E+00     0.0000000000000000E+00 
    3.1818181818121058E-02     0.0000000000000000E+00     0.0000000000000000E+00 
    3.6363636363565877E-02     0.0000000000000000E+00     0.0000000000000000E+00 
    4.0909090909010543E-02     0.0000000000000000E+00     0.0000000000000000E+00 
    4.5454545454454973E-02     0.0000000000000000E+00     0.0000000000000000E+00 
    4.9999999999899403E-02     0.0000000000000000E+00     0.0000000000000000E+00 
    5.4545454545343833E-02     0.0000000000000000E+00     0.0000000000000000E+00 
    5.9090909090789019E-02     0.0000000000000000E+00     0.0000000000000000E+00 
    6.3636363636234636E-02     0.0000000000000000E+00     0.0000000000000000E+00 
    6.8181818181681425E-02     0.0000000000000000E+00     0.0000000000000000E+00 
    7.2727272727128645E-02     0.0000000000000000E+00     0.0000000000000000E+00 
    7.7272727272576225E-02     0.0000000000000000E+00     0.0000000000000000E+00 
    8.1818181818023805E-02     0.0000000000000000E+00     0.0000000000000000E+00 
    8.6363636363471386E-02     0.0000000000000000E+00     0.0000000000000000E+00 
    9.0909090908918966E-02     0.0000000000000000E+00     0.0000000000000000E+00 
    9.5454545454366560E-02     0.0000000000000000E+00     0.0000000000000000E+00 
    9.9999999999814140E-02     0.0000000000000000E+00     0.0000000000000000E+00 
    1.0454545454526171E-01     0.0000000000000000E+00     0.0000000000000000E+00 
    1.0909090909070930E-01     0.0000000000000000E+00     0.0000000000000000E+00 
    1.1363636363615690E-01     0.0000000000000000E+00     0.0000000000000000E+00 
    1.1818181818160410E-01     0.0000000000000000E+00     0.0000000000000000E+00 
    1.2272727272705020E-01     0.0000000000000000E+00     0.0000000000000000E+00 
    1.2727272727249461E-01     0.0000000000000000E+00     0.0000000000000000E+00 
    1.3181818181793739E-01     0.0000000000000000E+00     0.0000000000000000E+00 
    1.3636363636337900E-01     0.0000000000000000E+00     0.0000000000000000E+00 
    1.4090909090882031E-01     0.0000000000000000E+00     0.0000000000000000E+00 
    1.4545454545426159E-01     0.0000000000000000E+00     0.0000000000000000E+00 
    1.4999999999970290E-01     0.0000000000000000E+00     0.0000000000000000E+00 
    1.5454545454514421E-01     0.0000000000000000E+00     0.0000000000000000E+00 
    1.5909090909058540E-01     0.0000000000000000E+00     0.0000000000000000E+00 
    1.6363636363602671E-01     0.0000000000000000E+00     0.0000000000000000E+00 
    1.6818181818146799E-01     0.0000000000000000E+00     0.0000000000000000E+00 
    1.7272727272690930E-01     0.0000000000000000E+00     0.0000000000000000E+00 
    1.7727272727235049E-01     0.0000000000000000E+00     0.0000000000000000E+00 
    1.8181818181779180E-01     0.0000000000000000E+00     0.0000000000000000E+00 
    1.8636363636323311E-01     0.0000000000000000E+00     0.0000000000000000E+00 
    1.9090909090867439E-01     0.0000000000000000E+00     0.0000000000000000E+00 
    1.9545454545411561E-01     0.0000000000000000E+00     0.0000000000000000E+00 
    1.9999999999955689E-01     0.0000000000000000E+00     0.0000000000000000E+00 
    2.0454545454499820E-01     0.0000000000000000E+00     0.0000000000000000E+00 
    2.0909090909043951E-01     0.0000000000000000E+00     0.0000000000000000E+00 
    2.1363636363588079E-01     0.0000000000000000E+00     0.0000000000000000E+00 
    2.1818181818132210E-01     0.0000000000000000E+00     0.0000000000000000E+00 
    2.2272727272676340E-01     0.0000000000000000E+00     0.0000000000000000E+00 
    2.2727272727220460E-01     0.0000000000000000E+00     0.0000000000000000E+00 
    2.3181818181764591E-01     0.0000000000000000E+00     0.0000000000000000E+00 
    2.3636363636308719E-01     0.0000000000000000E+00     0.0000000000000000E+00 
    2.4090909090852841E-01     0.0000000000000000E+00     0.0000000000000000E+00 
    2.4545454545396969E-01     0.0000000000000000E+00     0.0000000000000000E+00 
    2.4999999999941100E-01     0.0000000000000000E+00     0.0000000000000000E+00 
    2.5454545454485222E-01     0.0000000000000000E+00     0.0000000000000000E+00 
    2.5909090909029348E-01     0.0000000000000000E+00     0.0000000000000000E+00 
    2.6363636363573478E-01     0.0000000000000000E+00     0.0000000000000000E+00 
    2.6818181818117609E-01     0.0000000000000000E+00     0.0000000000000000E+00 
    2.7272727272661729E-01     0.0000000000000000E+00     0.0000000000000000E+00 
    2.7727272727205871E-01     0.0000000000000000E+00     0.0000000000000000E+00 
    2.8181818181749990E-01     0.0000000000000000E+00     0.0000000000000000E+00 
    2.8636363636294121E-01     0.0000000000000000E+00     0.0000000000000000E+00 
    2.9090909090838252E-01     0.0000000000000000E+00     0.0000000000000000E+00 
    2.9545454545382382E-01     0.0000000000000000E+00     0.0000000000000000E+00 
    2.9999999999926502E-01     0.0000000000000000E+00     0.0000000000000000E+00 
    3.0454545454470627E-01     0.0000000000000000E+00     0.0000000000000000E+00 
    3.0909090909014758E-01     0.0000000000000000E+00     0.0000000000000000E+00 
    3.1363636363558878E-01     0.0000000000000000E+00     0.0000000000000000E+00 
    3.1818181818103008E-01     0.0000000000000000E+00     0.0000000000000000E+00 
    3.2272727272647139E-01     0.0000000000000000E+00     0.0000000000000000E+00 
    3.2727272727191270E-01     0.0000000000000000E+00     0.0000000000000000E+00 
    3.3181818181735401E-01     0.0000000000000000E+00     0.0000000000000000E+00 
    3.3636363636279532E-01     0.0000000000000000E+00     0.0000000000000000E+00 
    3.4090909090823651E-01     0.0000000000000000E+00     0.0000000000000000E+00 
    3.4545454545367782E-01     0.0000000000000000E+00     0.0000000000000000E+00 
    3.4999999999911913E-01     0.0000000000000000E+00     0.0000000000000000E+00 
    3.5454545454456032E-01     0.0000000000000000E+00     0.0000000000000000E+00 
    3.5909090909000158E-01     0.0000000000000000E+00     0.0000000000000000E+00 
    3.6363636363544288E-01     0.0000000000000000E+00     0.0000000000000000E+00 
    3.6818181818088419E-01     0.0000000000000000E+00     0.0000000000000000E+00 
    3.7272727272632539E-01     0.0000000000000000E+00     0.0000000000000000E+00 
    3.7727272727176681E-01     0.0000000000000000E+00     0.0000000000000000E+00 
    3.8181818181720800E-01     0.0000000000000000E+00     0.0000000000000000E+00 
    3.8636363636264931E-01     0.0000000000000000E+00     0.0000000000000000E+00 
    3.9090909090809062E-01     0.0000000000000000E+00     0.0000000000000000E+00 
    3.9545454545353192E-01     0.0000000000000000E+00     0.0000000000000000E+00 
    3.9999999999897312E-01     0.0000000000000000E+00     0.0000000000000000E+00 
    4.0454545454441437E-01     0.0000000000000000E+00     0.0000000000000000E+00 
    4.0909090908985568E-01     0.0000000000000000E+00     0.0000000000000000E+00 
    4.1363636363529688E-01     0.0000000000000000E+00     0.0000000000000000E+00 
    4.1818181818073819E-01     0.0000000000000000E+00     0.0000000000000000E+00 
    4.2272727272617949E-01     0.0000000000000000E+00     0.0000000000000000E+00 
    4.2727272727162080E-01     0.0000000000000000E+00     0.0000000000000000E+00 
    4.3181818181706211E-01     0.0000000000000000E+00     0.0000000000000000E+00 
    4.3636363636250342E-01     0.0000000000000000E+00     0.0000000000000000E+00 
    4.4090909090794472E-01     0.0000000000000000E+00     0.0000000000000000E+00 
    4.4545454545338597E-01     0.0000000000000000E+00     0.0000000000000000E+00 
    4.4999999999882723E-01     0.0000000000000000E+00     0.0000000000000000E+00 
    4.5454545454426848E-01     0.0000000000000000E+00     0.0000000000000000E+00 
    4.5909090908970979E-01     0.0000000000000000E+00     0.0000000000000000E+00 
    4.6363636363515098E-01     0.0000000000000000E+00     0.0000000000000000E+00 
    4.6818181818059240E-01     0.0000000000000000E+00     0.0000000000000000E+00 
    4.7272727272603360E-01     0.0000000000000000E+00     0.0000000000000000E+00 
    4.7727272727147491E-01     0.0000000000000000E+00     0.0000000000000000E+00 
    4.8181818181691621E-01     0.0000000000000000E+00     0.0000000000000000E+00 
    4.8636363636235752E-01     0.0000000000000000E+00     0.0000000000000000E+00 
    4.9090909090779872E-01     0.0000000000000000E+00     0.0000000000000000E+00 
    4.9545454545324458E-01     0.0000000000000000E+00     0.0000000000000000E+00 
    4.9999999999869221E-01     0.0000000000000000E+00     0.0000000000000000E+00 
    5.0454545454415234E-01     0.0000000000000000E+00     0.0000000000000000E+00 
    5.0909090908961430E-01     0.0000000000000000E+00     0.0000000000000000E+00 
    5.1363636363508092E-01     0.0000000000000000E+00     0.0000000000000000E+00 
    5.1818181818054743E-01     0.0000000000000000E+00     0.0000000000000000E+00 
    5.2272727272601394E-01     0.0000000000000000E+00     0.0000000000000000E+00 
    5.2727272727148045E-01     0.0000000000000000E+00     0.0000000000000000E+00 
[...]
CELL_DATA 13200 
SCALARS Pressure double 1 
LOOKUP_TABLE default 

    1.0588298956974953E+00 
    1.0539130813328599E+00 
    1.0502036446566776E+00 
    1.0479096104852503E+00 
    1.0439134923219668E+00 
    1.0403930546982811E+00 
    1.0389525882473614E+00 
    1.0375015233137284E+00 
    1.0362768084660854E+00 
    1.0357723248940407E+00 
    1.0354770487994882E+00 
    1.0350648741058532E+00 
    1.0347267838300180E+00 
    1.0344872923272057E+00 
    1.0344529794712860E+00 
    1.0344498413672703E+00 
    1.0338841373117056E+00 
    1.0330728356234455E+00 
    1.0326422757337705E+00 
    1.0321616962034099E+00 
    1.0316215120374495E+00 
    1.0309943013971905E+00 
    1.0305856485271558E+00 
    1.0303325130447720E+00 
    1.0299757876038917E+00 
    1.0296426676194719E+00 
    1.0294194440105648E+00 
    1.0291484945871618E+00 
    1.0288463873046578E+00 
    1.0285446293207254E+00 
    1.0283123946611898E+00 
    1.0281068486056439E+00 
    1.0279966239258460E+00 
    1.0278988829042284E+00 
    1.0277415188435726E+00 
    1.0276500476333503E+00 
    1.0276103192024300E+00 
    1.0274986348404884E+00 
    1.0272988104301752E+00 
    1.0271481879864395E+00 
    1.0270250733196065E+00 
    1.0268835487636652E+00 
    1.0267987422418077E+00 
    1.0267041640898882E+00 
    1.0266227590510117E+00 
    1.0265335497054100E+00 
    1.0264592069031717E+00 
    1.0264256945400199E+00 
    1.0263847107316151E+00 
    1.0263460172479761E+00 
    1.0263273462968692E+00 
    1.0263191515837384E+00 
    1.0263180419258853E+00 
    1.0263169239248642E+00 
    1.0263147968286870E+00 
    1.0263116810583746E+00 
    1.0263091061151992E+00 
    1.0262143624358480E+00 
    1.0261693598134740E+00 
    1.0261455760608482E+00 
    1.0577744199824577E+00 
    1.0537995734424750E+00 
    1.0501458550769189E+00 
    1.0478676507306623E+00 
    1.0438014477176922E+00 
    1.0403723347753626E+00 
    1.0389309889515261E+00 
    1.0373995524134307E+00 
    1.0362439150373848E+00 
    1.0357920414999851E+00 
    1.0354633769266279E+00 
    1.0350471312039509E+00 
    1.0347295882168237E+00 
    1.0344805099425873E+00 
    1.0344502733397949E+00 
    1.0344495828767648E+00 
    1.0338848995685583E+00 
    1.0330890148431564E+00 
    1.0326269467376530E+00 
    1.0321261608100090E+00 
    1.0315713250522514E+00 
    1.0309787159977091E+00 
    1.0306060022327053E+00 
    1.0303325953329243E+00 
    1.0299706514250668E+00 
    1.0296447717108577E+00 
    1.0294273060037300E+00 
    1.0291442532559945E+00 
    1.0288421712637581E+00 
    1.0285479641241744E+00 
    1.0283108506184633E+00 
    1.0281025939412716E+00 
    1.0279994680405196E+00 
    1.0279024190167516E+00 
    1.0277447831350506E+00 
    1.0276509891128522E+00 
    1.0276097728117743E+00 
    1.0275014554472133E+00 
    1.0273061434751023E+00 
    1.0271506587274761E+00 
    1.0270338574105933E+00 
    1.0268864335768484E+00 
    1.0267955870760694E+00 
    1.0267028927724617E+00 
    1.0266271665137570E+00 
    1.0265333849661331E+00 
    1.0264559704641050E+00 
    1.0264251968526363E+00 
    1.0263842469838953E+00 
    1.0263461553448494E+00 
    1.0263266204965729E+00 
    1.0263186279482632E+00 
    1.0263180403589240E+00 
    1.0263170016621823E+00 
    1.0263147252626308E+00 
    1.0263115210019134E+00 
    1.0262827355802013E+00 
    1.0262067951916058E+00 
    1.0261686855730181E+00 
    1.0261446150944937E+00 
    1.0570695838960966E+00 
    1.0536682883329775E+00 
    1.0500039419316036E+00 
    1.0477729018032573E+00 
    1.0436620236030691E+00 
    1.0403366710239523E+00 
    1.0388531944009021E+00 
    1.0373282792569651E+00 
    1.0362415259389672E+00 
    1.0358003860647669E+00 
    1.0354475835218302E+00 
    1.0350288837324879E+00 
    1.0347172964579587E+00 
    1.0344522579821596E+00 
    1.0344465017055056E+00 
    1.0344491424829996E+00 
    1.0338829344706257E+00 
    1.0331263505170549E+00 
    1.0326119152016191E+00 
    1.0320853084102666E+00 
    1.0315141674314681E+00 
    1.0309613537487627E+00 
    1.0306275178086926E+00 
    1.0303337905940844E+00 
    1.0299715174313586E+00 
    1.0296573120449128E+00 
    1.0294191824529915E+00 
    1.0291371257755488E+00 
    1.0288551209213213E+00 
    1.0285569824125680E+00 
    1.0283073181958913E+00 
    1.0281000039749455E+00 
    1.0280069784987693E+00 
    1.0279115595360997E+00 
    1.0277564405051991E+00 
    1.0276528732342871E+00 
    1.0276068091581698E+00 
    1.0275011623485513E+00 
    1.0273161498414458E+00 
    1.0271561234622890E+00 
    1.0270532817907601E+00 
    1.0268979475351077E+00 
    1.0267933145728532E+00 
    1.0267013977010420E+00 
    1.0266315042009369E+00 
    1.0265329197433850E+00 
    1.0264525368483917E+00 
    1.0264240832613820E+00 
    1.0263827215778945E+00 
    1.0263458540451487E+00 
    1.0263232578299128E+00 
    1.0263173585050829E+00 
    1.0263179816584378E+00 
    1.0263169519471544E+00 
    1.0263041174699006E+00 
    1.0262985995489959E+00 
    1.0262561406288220E+00 
    1.0262028719767295E+00 
    1.0261676976760987E+00 
    1.0261413101603851E+00 
    1.0564324645511503E+00 
    1.0535156669474461E+00 
    1.0493870971824826E+00 
    1.0469349807290773E+00 
    1.0433132834238583E+00 
    1.0402567573341235E+00 
    1.0387268646855836E+00 
    1.0372648835763052E+00 
    1.0362516010694096E+00 
    1.0357923831362781E+00 
    1.0354319977294180E+00 
    1.0350131636055528E+00 
    1.0346852938446851E+00 
    1.0344053695793816E+00 
    1.0344420322933827E+00 
    1.0344482655832501E+00 
    1.0338301193431112E+00 
    1.0331498111163837E+00 
    1.0326279232953626E+00 
    1.0320648876036167E+00 
    1.0314815191926097E+00 
    1.0309456366222878E+00 
    1.0306399536553505E+00 
    1.0303471415646670E+00 
    1.0299751549205662E+00 
    1.0296580216470683E+00 
    1.0294078189801845E+00 
    1.0291314826185183E+00 
    1.0288726451595522E+00 
    1.0285755391551776E+00 
    1.0283077754201306E+00 
    1.0281136695312088E+00 
    1.0280214350784267E+00 
    1.0279223702974420E+00 
    1.0277714087667524E+00 
    1.0276582739958242E+00 
    1.0276000743457809E+00 
    1.0274977386728412E+00 
    1.0273257173983668E+00 
    1.0271642348188641E+00 
    1.0270787658078540E+00 
    1.0269273168951545E+00 
    1.0267954166116355E+00 
    1.0267005774088784E+00 
    1.0266327700177629E+00 
    1.0265295171922113E+00 
    1.0264499172457866E+00 
    1.0264223318358594E+00 
    1.0263803600853219E+00 
    1.0263448734484433E+00 
    1.0263177676518456E+00 
    1.0263108918074466E+00 
    1.0263036816751379E+00 
    1.0263076221322427E+00 
    1.0262735648484607E+00 
    1.0262792425491289E+00 
    1.0262455742980638E+00 
    1.0261951726477858E+00 
    1.0261612698935407E+00 
    1.0261369544292855E+00 
    1.0560342390408568E+00 
    1.0530462355934826E+00 
    1.0486669027548081E+00 
    1.0460902820117857E+00 
    1.0429347517439420E+00 
    1.0400762577988723E+00 
    1.0385682844779152E+00 
    1.0371789751485023E+00 
    1.0362114561725413E+00 
    1.0357757430155545E+00 
    1.0354266981841667E+00 
    1.0349919009531903E+00 
    1.0346458499569944E+00 
    1.0343345804469539E+00 
    1.0344367684526534E+00 
    1.0343026036055327E+00 
    1.0337718657275443E+00 
    1.0331766417783668E+00 
    1.0326701205472284E+00 
    1.0320682145466180E+00 
    1.0314448454256702E+00 
    1.0309280117610644E+00 
    1.0306418622148297E+00 
    1.0303567062739816E+00 
    1.0299964093338814E+00 
    1.0296687208626323E+00 
    1.0293926770072015E+00 
    1.0291241139605078E+00 
    1.0288809442115281E+00 
    1.0285956912984324E+00 
    1.0283070539039334E+00 
    1.0281267983999420E+00 
    1.0280421155616994E+00 
    1.0279331029469427E+00 
    1.0277831918195681E+00 
    1.0276634444065509E+00 
    1.0275935217037568E+00 
    1.0274955990684460E+00 
    1.0273388046910670E+00 
    1.0271905820265430E+00 
    1.0271087989900494E+00 
    1.0269566986830780E+00 
    1.0268043287545427E+00 
    1.0267016539856171E+00 
    1.0266288425885945E+00 
    1.0265238446219414E+00 
    1.0264489101459264E+00 
    1.0264191415325929E+00 
    1.0263775751213045E+00 
    1.0263437346140238E+00 
    1.0263089746401561E+00 
    1.0262970111751848E+00 
    1.0262505587832531E+00 
    1.0262598627956530E+00 
    1.0262425317756765E+00 
    1.0262541289832683E+00 
    1.0262276872659477E+00 
    1.0261856582827464E+00 
    1.0261521386344610E+00 
    1.0261345420567729E+00 
    1.0558043125743664E+00 
    1.0527745064939784E+00 
    1.0486288994922643E+00 
    1.0455833623668882E+00 
    1.0422280418624874E+00 
    1.0397927445482669E+00 
    1.0383818663873638E+00 
    1.0370369335235661E+00 
    1.0361768943096108E+00 
    1.0357743977429754E+00 
    1.0354078255290364E+00 
    1.0349661854714678E+00 
    1.0346074060264805E+00 
    1.0342722941510221E+00 
    1.0342194980904247E+00 
    1.0340286285602254E+00 
    1.0337386290647688E+00 
    1.0331882585865819E+00 
    1.0327349005613107E+00 
    1.0320953994099431E+00 
    1.0314032912311766E+00 
    1.0309242217770644E+00 
    1.0306359474258420E+00 
    1.0303480900583355E+00 
    1.0300020840640796E+00 
    1.0296872692754755E+00 
    1.0293909842650930E+00 
    1.0291195666705502E+00 
    1.0288694501143334E+00 
    1.0286264471193705E+00 
    1.0283743847524420E+00 
    1.0281306107303116E+00 
    1.0280588221792237E+00 
    1.0279438871825626E+00 
    1.0277973364665123E+00 
    1.0276689795293679E+00 
    1.0275875585303469E+00 
    1.0274935959704112E+00 
    1.0273475656068036E+00 
    1.0272112710128283E+00 
    1.0271328599672720E+00 
    1.0269768652403417E+00 
    1.0268119297050988E+00 
    1.0267012682946040E+00 
    1.0266228909837276E+00 
    1.0265190790321150E+00 
    1.0264468708731307E+00 
    1.0264149820441040E+00 
    1.0263742112595582E+00 
    1.0263351779119791E+00 
    1.0262948292097132E+00 
    1.0262773644897518E+00 
    1.0262084962284197E+00 
    1.0261923807594309E+00 
    1.0262245662142517E+00 
    1.0262288274209956E+00 
    1.0262055776850958E+00 
    1.0261755878534349E+00 
    1.0261465943732111E+00 
    1.0261314714347964E+00 
    1.0556818927194014E+00 
    1.0527259145981334E+00 
    1.0484876580784088E+00 
    1.0449211330453752E+00 
    1.0416274246625334E+00 
    1.0396134476352943E+00 
    1.0381920506241327E+00 
    1.0369349680860200E+00 
    1.0361642090016914E+00 
    1.0357733552034443E+00 
    1.0353838808111009E+00 
    1.0349471177000249E+00 
    1.0345746812987622E+00 
    1.0342323665000441E+00 
    1.0340034641737759E+00 
    1.0338909292578662E+00 
    1.0337398449286561E+00 
    1.0331978154025570E+00 
    1.0327646144271154E+00 
    1.0321876673419397E+00 
    1.0314109518186336E+00 
    1.0309253102989557E+00 
    1.0306256705285819E+00 
    1.0303250606682859E+00 
    1.0299853753846933E+00 
    1.0297028577611025E+00 
    1.0293951415597122E+00 
    1.0291080386631046E+00 
    1.0288473318286930E+00 
    1.0286391478814823E+00 
    1.0284436975729481E+00 
    1.0281412890058439E+00 
    1.0280732314455208E+00 
    1.0279585195286158E+00 
    1.0278133900486466E+00 
    1.0276789651013039E+00 
    1.0275851332990973E+00 
    1.0274901715143498E+00 
    1.0273564172343210E+00 
    1.0272190448428957E+00 
    1.0271384078515378E+00 
    1.0269964255258026E+00 
    1.0268184581276096E+00 
    1.0266962341586061E+00 
    1.0266073020120956E+00 
    1.0265125634116685E+00 
    1.0264385937453924E+00 
    1.0264070956647731E+00 
    1.0263651993151994E+00 
    1.0263149677661398E+00 
    1.0262818453630846E+00 
    1.0262608134832618E+00 
    1.0262003318094619E+00 
    1.0261595829820347E+00 
    1.0262006954882186E+00 
    1.0262137719637361E+00 
    1.0261893895447520E+00 
    1.0261671102570751E+00 
    1.0261436713319809E+00 
    1.0261278546115349E+00 
    1.0555941636728219E+00 
    1.0526777217151104E+00 
    1.0484013971664754E+00 
    1.0440303733849778E+00 
    1.0412125812396567E+00 
    1.0394308624763162E+00 
    1.0380514869920348E+00 
    1.0369136241681598E+00 
    1.0361428131019841E+00 
    1.0357660319930286E+00 
    1.0353615781652776E+00 
    1.0349255134531437E+00 
    1.0345304980039902E+00 
    1.0341926399477954E+00 
    1.0340001738152846E+00 
    1.0338865248400189E+00 
    1.0337575060745603E+00 
    1.0332066572784531E+00 
    1.0327498122728118E+00 
    1.0322871420608373E+00 
    1.0315264697068294E+00 
    1.0309354418755778E+00 
    1.0305698693232888E+00 
    1.0302414660850141E+00 
    1.0299564045407872E+00 
    1.0297103663449367E+00 
    1.0294163842512347E+00 
    1.0291162627856143E+00 
    1.0288175399767896E+00 
    1.0286425228246108E+00 
    1.0284640004407581E+00 
    1.0281821906883255E+00 
    1.0280862279508569E+00 
    1.0279733949293068E+00 
    1.0278289085989010E+00 
    1.0276966117618282E+00 
    1.0275857421304526E+00 
    1.0274854489207030E+00 
    1.0273641697221030E+00 
    1.0272328356128704E+00 
    1.0271505650720947E+00 
    1.0270256048958357E+00 
    1.0268247391158705E+00 
    1.0266860532800461E+00 
    1.0265943345961139E+00 
    1.0264979083842731E+00 
    1.0264229043355910E+00 
    1.0263945311940765E+00 
    1.0263518011139701E+00 
    1.0262969672515796E+00 
    1.0262693967256025E+00 
    1.0262468238303772E+00 
    1.0261869771523546E+00 
    1.0261553042793439E+00 
    1.0261822842123862E+00 
    1.0262052399982511E+00 
    1.0261803276828056E+00 
    1.0261626244815296E+00 
    1.0261396407414547E+00 
    1.0261227605582177E+00 
    1.0534575532066124E+00 
    1.0519738978127344E+00 
    1.0473861912800506E+00 
    1.0424089333289752E+00 
    1.0406324540673579E+00 
    1.0392595084733183E+00 
    1.0380049146912576E+00 
    1.0368848754399569E+00 
    1.0361106609444450E+00 
    1.0357586288351170E+00 
    1.0353418571308732E+00 
    1.0348948272261238E+00 
    1.0344789773217695E+00 
    1.0341759657982283E+00 
    1.0339933490289754E+00 
    1.0338808571935485E+00 
    1.0337418357045878E+00 
    1.0331902656770144E+00 
    1.0327398273539696E+00 
    1.0323438050372078E+00 
    1.0316851427977438E+00 
    1.0309477550863049E+00 
    1.0304934046463050E+00 
    1.0301209579066026E+00 
    1.0299262278909269E+00 
    1.0297015451211824E+00 
    1.0294121117228863E+00 
    1.0291294349382525E+00 
    1.0287741953062954E+00 
    1.0286505291568404E+00 
    1.0284741679323557E+00 
    1.0282246877722045E+00 
    1.0281000576769257E+00 
    1.0279870041905790E+00 
    1.0278392942089842E+00 
    1.0277152674833081E+00 
    1.0275951312353484E+00 
    1.0274861940581794E+00 
    1.0273696817720357E+00 
    1.0272431225116581E+00 
    1.0271665385688948E+00 
    1.0270644714708250E+00 
    1.0268363900698800E+00 
    1.0266813598365034E+00 
    1.0265869295446264E+00 
    1.0264807054728724E+00 
    1.0264037159548589E+00 
    1.0263750952830606E+00 
    1.0263402675494948E+00 
    1.0262868270707439E+00 
    1.0262522196947883E+00 
    1.0262239897808549E+00 
    1.0261752740573054E+00 
    1.0261496853914311E+00 
    1.0261763693345285E+00 
    1.0261949448841186E+00 
    1.0261734704479595E+00 
    1.0261573959225405E+00 
    1.0261321655690674E+00 
    1.0261162307621621E+00 
    1.0510107391007275E+00 
    1.0501660790306275E+00 
    1.0456166937787239E+00 
    1.0413269666563609E+00 
    1.0401884473992791E+00 
    1.0391946966620933E+00 
    1.0379978832173442E+00 
    1.0368508324568646E+00 
    1.0360942830600273E+00 
    1.0357496055356321E+00 
    1.0352950640331198E+00 
    1.0348488071832982E+00 
    1.0344420088812711E+00 
    1.0341666555088813E+00 
    1.0339731541001262E+00 
    1.0338737930952309E+00 
    1.0337154529872230E+00 
    1.0331607688179190E+00 
    1.0327266360816878E+00 
    1.0323858907315620E+00 
    1.0318208550518397E+00 
    1.0309837596680544E+00 
    1.0304211538178027E+00 
    1.0300006211658177E+00 
    1.0298599956546628E+00 
    1.0296768875488025E+00 
    1.0293998479008415E+00 
    1.0291497680965447E+00 
    1.0287463866820390E+00 
    1.0286512325358788E+00 
    1.0284672287618379E+00 
    1.0282506146553105E+00 
    1.0281103330433110E+00 
    1.0279963434026731E+00 
    1.0278451859619984E+00 
    1.0277247319719451E+00 
    1.0276076691053166E+00 
    1.0274901940119028E+00 
    1.0273763223076509E+00 
    1.0272487940003538E+00 
    1.0271742610322860E+00 
    1.0270915776519915E+00 
    1.0268574664173624E+00 
    1.0266808120111901E+00 
    1.0265791507765336E+00 
    1.0264654723509326E+00 
    1.0263831265746293E+00 
    1.0263520266737742E+00 
    1.0263126650914252E+00 
    1.0262605420328470E+00 
    1.0262324044525164E+00 
    1.0261960915136756E+00 
    1.0261674402925167E+00 
    1.0261443114090489E+00 
    1.0261678558567515E+00 
    1.0261861962400509E+00 
    1.0261699580394441E+00 
    1.0261498898855468E+00 
    1.0261240695015401E+00 
    1.0261116465629241E+00 
    1.0496959690070606E+00 
    1.0482193382351781E+00 
    1.0428626613445835E+00 
    1.0409459364748919E+00 
    1.0400411554062217E+00 
    1.0391801256446631E+00 
    1.0379646044871136E+00 
    1.0368230515485060E+00 
    1.0360670731363237E+00 
    1.0357023344255714E+00 
    1.0352442815906615E+00 
    1.0348027379583387E+00 
    1.0344170645482649E+00 
    1.0341470031816218E+00 
    1.0339524105241658E+00 
    1.0338736024682837E+00 
    1.0337035904962253E+00 
    1.0331643184194701E+00 
    1.0327200830250913E+00 
    1.0323972314596239E+00 
    1.0318706173245678E+00 
    1.0310982762337606E+00 
    1.0303166005468394E+00 
    1.0299123537963775E+00 
    1.0297824609328723E+00 
    1.0296430940624339E+00 
    1.0293919096023409E+00 
    1.0291807809238740E+00 
    1.0287576397128251E+00 
    1.0286176862040917E+00 
    1.0284488004307930E+00 
    1.0282615082941635E+00 
    1.0281245123019178E+00 
    1.0280002995694761E+00 
    1.0278508163451776E+00 
    1.0277271956721286E+00 
    1.0276142927913599E+00 
    1.0274949093852743E+00 
    1.0273895603517382E+00 
    1.0272627439014339E+00 
    1.0271804485924843E+00 
    1.0270968397110802E+00 
    1.0268761937028736E+00 
    1.0266853710752941E+00 
    1.0265709385193444E+00 
    1.0264437261839161E+00 
    1.0263716878551803E+00 
    1.0263230983895888E+00 
    1.0262552896329025E+00 
    1.0261980494830893E+00 
    1.0262093738288973E+00 
    1.0261726082266747E+00 
    1.0261573355770930E+00 
    1.0261392153871782E+00 
    1.0261493261678380E+00 
    1.0261678807777601E+00 
    1.0261429143863756E+00 
    1.0261320191463175E+00 
    1.0261166259872549E+00 
    1.0261070649338662E+00 
    1.0478854667532507E+00 
    1.0465475706623080E+00 
    1.0407147140033919E+00 
    1.0407080149437340E+00 
    1.0399668545636862E+00 
    1.0391438281397267E+00 
    1.0379246928781523E+00 
    1.0367776462322460E+00 
    1.0360160399934499E+00 
    1.0356643582010532E+00 
    1.0351976486433039E+00 
    1.0347266991171218E+00 
    1.0343622658545930E+00 
    1.0341233713036440E+00 
    1.0339498832863379E+00 
    1.0338701754438584E+00 
    1.0337016039223954E+00 
    1.0331775882689875E+00 
    1.0327136018693881E+00 
    1.0323753208470328E+00 
    1.0318264050703116E+00 
    1.0311837346185939E+00 
    1.0302361865745651E+00 
    1.0298718756800656E+00 
    1.0297279152026046E+00 
    1.0296242193913712E+00 
    1.0294228237605740E+00 
    1.0292165574023355E+00 
    1.0287771591816945E+00 
    1.0285603576673079E+00 
    1.0284212126181056E+00 
    1.0282602181386757E+00 
    1.0281373451769207E+00 
    1.0280080552779933E+00 
    1.0278561675896460E+00 
    1.0277310828941790E+00 
    1.0276177363310528E+00 
    1.0274980021150593E+00 
    1.0274037538728857E+00 
    1.0272898203152825E+00 
    1.0271984201563398E+00 
    1.0271001664017276E+00 
    1.0268921170671848E+00 
    1.0267057149098766E+00 
    1.0265630700031878E+00 
    1.0264255500834574E+00 
    1.0263626138879041E+00 
    1.0262922616874754E+00 
    1.0262021391753273E+00 
    1.0261472778414273E+00 
    1.0261639018546977E+00 