# vtk DataFile Version 2.0
Pressure Field Data 
ASCII 
DATASET UNSTRUCTURED_GRID 

POINTS 2860 double 

    0.0000000000000000E+00     0.0000000000000000E+00     0.0000000000000000E+00 
    1.0000000000000000E+00     0.0000000000000000E+00     0.0000000000000000E+00 
    1.0000000000000000E+00     1.0000000000000000E+00     0.0000000000000000E+00 
    0.0000000000000000E+00     1.0000000000000000E+00     0.0000000000000000E+00 
    2.5000000000000000E-01     2.5000000000000000E-01     0.0000000000000000E+00 
    7.5000000000000000E-01     2.5000000000000000E-01     0.0000000000000000E+00 
    7.5000000000000000E-01     7.5000000000000000E-01     0.0000000000000000E+00 
    2.5000000000000000E-01     7.5000000000000000E-01     0.0000000000000000E+00 
    3.1249999999942091E-02     0.0000000000000000E+00     0.0000000000000000E+00 
    6.2499999999873469E-02     0.0000000000000000E+00     0.0000000000000000E+00 
    9.3749999999826514E-02     0.0000000000000000E+00     0.0000000000000000E+00 
    1.2499999999977961E-01     0.0000000000000000E+00     0.0000000000000000E+00 
    1.5624999999968961E-01     0.0000000000000000E+00     0.0000000000000000E+00 
    1.8749999999959971E-01     0.0000000000000000E+00     0.0000000000000000E+00 
    2.1874999999950970E-01     0.0000000000000000E+00     0.0000000000000000E+00 
    2.4999999999941969E-01     0.0000000000000000E+00     0.0000000000000000E+00 
    2.8124999999932920E-01     0.0000000000000000E+00     0.0000000000000000E+00 
    3.1249999999923850E-01     0.0000000000000000E+00     0.0000000000000000E+00 
    3.4374999999914790E-01     0.0000000000000000E+00     0.0000000000000000E+00 
    3.7499999999905720E-01     0.0000000000000000E+00     0.0000000000000000E+00 
    4.0624999999896660E-01     0.0000000000000000E+00     0.0000000000000000E+00 
    4.3749999999887590E-01     0.0000000000000000E+00     0.0000000000000000E+00 
    4.6874999999878530E-01     0.0000000000000000E+00     0.0000000000000000E+00 
    4.9999999999869471E-01     0.0000000000000000E+00     0.0000000000000000E+00 
    5.3124999999877620E-01     0.0000000000000000E+00     0.0000000000000000E+00 
    5.6249999999885780E-01     0.0000000000000000E+00     0.0000000000000000E+00 
    5.9374999999893940E-01     0.0000000000000000E+00     0.0000000000000000E+00 
    6.2499999999902101E-01     0.0000000000000000E+00     0.0000000000000000E+00 
    6.5624999999910261E-01     0.0000000000000000E+00     0.0000000000000000E+00 
    6.8749999999918421E-01     0.0000000000000000E+00     0.0000000000000000E+00 
    7.1874999999926570E-01     0.0000000000000000E+00     0.0000000000000000E+00 
    7.4999999999934730E-01     0.0000000000000000E+00     0.0000000000000000E+00 
    7.8124999999942890E-01     0.0000000000000000E+00     0.0000000000000000E+00 
    8.1249999999951039E-01     0.0000000000000000E+00     0.0000000000000000E+00 
    8.4374999999959199E-01     0.0000000000000000E+00     0.0000000000000000E+00 
    8.7499999999967359E-01     0.0000000000000000E+00     0.0000000000000000E+00 
    9.0624999999975520E-01     0.0000000000000000E+00     0.0000000000000000E+00 
    9.3749999999983680E-01     0.0000000000000000E+00     0.0000000000000000E+00 
    9.6874999999991840E-01     0.0000000000000000E+00     0.0000000000000000E+00 
    1.0000000000000000E+00     3.1249999999942091E-02     0.0000000000000000E+00 
    1.0000000000000000E+00     6.2499999999873469E-02     0.0000000000000000E+00 
    1.0000000000000000E+00     9.3749999999826514E-02     0.0000000000000000E+00 
    1.0000000000000000E+00     1.2499999999977961E-01     0.0000000000000000E+00 
    1.0000000000000000E+00     1.5624999999968961E-01     0.0000000000000000E+00 
    1.0000000000000000E+00     1.8749999999959971E-01     0.0000000000000000E+00 
    1.0000000000000000E+00     2.1874999999950970E-01     0.0000000000000000E+00 
    1.0000000000000000E+00     2.4999999999941969E-01     0.0000000000000000E+00 
    1.0000000000000000E+00     2.8124999999932920E-01     0.0000000000000000E+00 
    1.0000000000000000E+00     3.1249999999923850E-01     0.0000000000000000E+00 
    1.0000000000000000E+00     3.4374999999914790E-01     0.0000000000000000E+00 
    1.0000000000000000E+00     3.7499999999905720E-01     0.0000000000000000E+00 
    1.0000000000000000E+00     4.0624999999896660E-01     0.0000000000000000E+00 
    1.0000000000000000E+00     4.3749999999887590E-01     0.0000000000000000E+00 
    1.0000000000000000E+00     4.6874999999878530E-01     0.0000000000000000E+00 
    1.0000000000000000E+00     4.9999999999869471E-01     0.0000000000000000E+00 
    1.0000000000000000E+00     5.3124999999877620E-01     0.0000000000000000E+00 
    1.0000000000000000E+00     5.6249999999885780E-01     0.0000000000000000E+00 
    1.0000000000000000E+00     5.9374999999893940E-01     0.0000000000000000E+00 
    1.0000000000000000E+00     6.2499999999902101E-01     0.0000000000000000E+00 
    1.0000000000000000E+00     6.5624999999910261E-01     0.0000000000000000E+00 
    1.0000000000000000E+00     6.8749999999918421E-01     0.0000000000000000E+00 
    1.0000000000000000E+00     7.1874999999926570E-01     0.0000000000000000E+00 
    1.0000000000000000E+00     7.4999999999934730E-01     0.0000000000000000E+00 
    1.0000000000000000E+00     7.8124999999942890E-01     0.0000000000000000E+00 
    1.0000000000000000E+00     8.1249999999951039E-01     0.0000000000000000E+00 
    1.0000000000000000E+00     8.4374999999959199E-01     0.0000000000000000E+00 
    1.0000000000000000E+00     8.7499999999967359E-01     0.0000000000000000E+00 
    1.0000000000000000E+00     9.0624999999975520E-01     0.0000000000000000E+00 
    1.0000000000000000E+00     9.3749999999983680E-01     0.0000000000000000E+00 
    1.0000000000000000E+00     9.6874999999991840E-01     0.0000000000000000E+00 
    9.6875000000003686E-01     1.0000000000000000E+00     0.0000000000000000E+00 
    9.3750000000011691E-01     1.0000000000000000E+00     0.0000000000000000E+00 
    9.0625000000015765E-01     1.0000000000000000E+00     0.0000000000000000E+00 
    8.7500000000017863E-01     1.0000000000000000E+00     0.0000000000000000E+00 
    8.4375000000028044E-01     1.0000000000000000E+00     0.0000000000000000E+00 
    8.1250000000040856E-01     1.0000000000000000E+00     0.0000000000000000E+00 
    7.8125000000054956E-01     1.0000000000000000E+00     0.0000000000000000E+00 
    7.5000000000066480E-01     1.0000000000000000E+00     0.0000000000000000E+00 
    7.1875000000086831E-01     1.0000000000000000E+00     0.0000000000000000E+00 
    6.8750000000102829E-01     1.0000000000000000E+00     0.0000000000000000E+00 
    6.5625000000114431E-01     1.0000000000000000E+00     0.0000000000000000E+00 
    6.2500000000129829E-01     1.0000000000000000E+00     0.0000000000000000E+00 
    5.9375000000147926E-01     1.0000000000000000E+00     0.0000000000000000E+00 
    5.6250000000168354E-01     1.0000000000000000E+00     0.0000000000000000E+00 
    5.3125000000188671E-01     1.0000000000000000E+00     0.0000000000000000E+00 
    5.0000000000205835E-01     1.0000000000000000E+00     0.0000000000000000E+00 
    4.6875000000192979E-01     1.0000000000000000E+00     0.0000000000000000E+00 
    4.3750000000180111E-01     1.0000000000000000E+00     0.0000000000000000E+00 
    4.0625000000167238E-01     1.0000000000000000E+00     0.0000000000000000E+00 
    3.7500000000154382E-01     1.0000000000000000E+00     0.0000000000000000E+00 
    3.4375000000141509E-01     1.0000000000000000E+00     0.0000000000000000E+00 
    3.1250000000128642E-01     1.0000000000000000E+00     0.0000000000000000E+00 
    2.8125000000115769E-01     1.0000000000000000E+00     0.0000000000000000E+00 
    2.5000000000102918E-01     1.0000000000000000E+00     0.0000000000000000E+00 
    2.1875000000090050E-01     1.0000000000000000E+00     0.0000000000000000E+00 
    1.8750000000077180E-01     1.0000000000000000E+00     0.0000000000000000E+00 
    1.5625000000064329E-01     1.0000000000000000E+00     0.0000000000000000E+00 
    1.2500000000051459E-01     1.0000000000000000E+00     0.0000000000000000E+00 
    9.3750000000385914E-02     1.0000000000000000E+00     0.0000000000000000E+00 
    6.2500000000257239E-02     1.0000000000000000E+00     0.0000000000000000E+00 
    3.1250000000128557E-02     1.0000000000000000E+00     0.0000000000000000E+00 
    0.0000000000000000E+00     9.6875000000003686E-01     0.0000000000000000E+00 
    0.0000000000000000E+00     9.3750000000011691E-01     0.0000000000000000E+00 
    0.0000000000000000E+00     9.0625000000015765E-01     0.0000000000000000E+00 
    0.0000000000000000E+00     8.7500000000017863E-01     0.0000000000000000E+00 
    0.0000000000000000E+00     8.4375000000028044E-01     0.0000000000000000E+00 
    0.0000000000000000E+00     8.1250000000040856E-01     0.0000000000000000E+00 
    0.0000000000000000E+00     7.8125000000054956E-01     0.0000000000000000E+00 
    0.0000000000000000E+00     7.5000000000066480E-01     0.0000000000000000E+00 
    0.0000000000000000E+00     7.1875000000086831E-01     0.0000000000000000E+00 
    0.0000000000000000E+00     6.8750000000102829E-01     0.0000000000000000E+00 
    0.0000000000000000E+00     6.5625000000114431E-01     0.0000000000000000E+00 
    0.0000000000000000E+00     6.2500000000129829E-01     0.0000000000000000E+00 
    0.0000000000000000E+00     5.9375000000147926E-01     0.0000000000000000E+00 
    0.0000000000000000E+00     5.6250000000168354E-01     0.0000000000000000E+00 
    0.0000000000000000E+00     5.3125000000188671E-01     0.0000000000000000E+00 
    0.0000000000000000E+00     5.0000000000205835E-01     0.0000000000000000E+00 
    0.0000000000000000E+00     4.6875000000192979E-01     0.0000000000000000E+00 
    0.0000000000000000E+00     4.3750000000180111E-01     0.0000000000000000E+00 
    0.0000000000000000E+00     4.0625000000167238E-01     0.0000000000000000E+00 
[...]
CELL_DATA 2795 
SCALARS Pressure double 1 
LOOKUP_TABLE default 

    5.8063410228525063E+00 
    1.3348355017097695E+01 
    9.4238251678467542E+00 
    9.0262787577284556E+00 
    7.1556297227646075E+00 
    1.3230834384333493E+01 
    1.3912322903565453E+01 
    5.1793417267611286E+00 
    9.9722373024944755E+00 
    7.6157656487544516E+00 
    6.4872950859480918E+00 
    1.2991935225530193E+01 
    1.3258221068794954E+01 
    1.3201885266762647E+01 
    8.6936365178804209E+00 
    5.0922404835833994E+00 
    8.2939698294988276E+00 
    6.9121583287903867E+00 
    1.2654669702917078E+01 
    9.4146316028081465E+00 
    9.3084562654420822E+00 
    1.3141166718311661E+01 
    8.7752824755420242E+00 
    3.4038710667888644E-01 
    1.2979917273990939E+01 
    1.3232591072754023E+01 
    1.3942102965105635E+01 
    6.2354714254918155E+00 
    1.2917708913736639E+01 
    1.3937836284374132E+01 
    9.4658714857349189E+00 
    9.6432701532120308E+00 
    6.7387452144316509E+00 
    9.3856209661187844E+00 
    3.0010399606644009E+00 
    8.2991303204143048E+00 
    9.3756500321473268E+00 
    1.3975900007454142E+01 
    1.3890959032763794E+01 
    1.3003999567466892E+01 
    7.0881528873806925E+00 
    1.2956375824432417E+01 
    7.0886199208995038E-01 
    9.2616927857633513E+00 
    1.3712573028636836E+01 
    1.3556938713007467E+01 
    1.2981926337004449E+01 
    1.0300821094993168E+01 
    1.3049447239943969E+01 
    8.4887140239547652E+00 
    8.0808709895705277E+00 
    9.6098324941652518E+00 
    9.1534847642135002E+00 
    8.3426912737000336E+00 
    9.5345275109877985E+00 
    1.2459541182218693E+01 
    1.1243487834757062E+01 
    7.1947769586636063E+00 
    1.3144959367774899E+01 
    1.3073322562882204E+01 
    9.0300038171201873E+00 
    9.0606050515538161E+00 
    8.9341953810603485E+00 
    1.3845139716185628E+01 
    1.4083013389203673E+01 
    8.3035718992266467E+00 
    9.6077767090128248E+00 
    1.2897140439259106E+01 
    1.1041399909281196E+01 
    9.1003695307265442E+00 
    1.4093906903410405E+01 
    1.3083967182836425E+01 
    8.1859469497288746E+00 
    1.3650715669200968E+01 
    9.7714416704672189E+00 
    1.2841599485213738E+01 
    1.3985672583046767E+01 
    9.7574192680293415E+00 
    5.9196295709313587E+00 
    9.6269424280807119E+00 
    1.3899152126479422E+01 
    1.4123684718685888E+01 
    8.3150272124476281E+00 
    9.5364372321787680E+00 
    1.4164558764432032E+01 
    9.3791993555754800E+00 
    8.8559589154434448E+00 
    1.1427507048272625E+01 
    5.6443475307208821E+00 
    8.1025101478344990E+00 
    9.5359301928939129E+00 
    1.0108095445141618E+01 
    1.5585646957843688E+01 
    6.9514099335858646E+00 
    9.6159710389261779E+00 
    1.2961293256973942E+01 
    1.3212458383804027E+01 
    6.1104852259797013E+00 
    9.2529675961449609E+00 
    9.5663862552815537E+00 
    1.3231743491143767E+01 
    9.5700259978894842E+00 
    1.3167595387263662E+01 
    3.7079508130359127E+00 
    6.3062542509361297E+00 
    9.8408509195353311E+00 
    1.3356484142486874E+01 
    8.2657146709608504E+00 
    8.8226871326990217E+00 
    9.5566234014957949E+00 
    8.8246974242895231E+00 
    1.0875971128810020E+01 
    8.5756040180665796E+00 
    8.1934835332288323E+00 
    6.4291069118061888E+00 
    1.1168574651680233E+01 
    9.6428626641720907E+00 
    1.3761790038219475E+01 
    8.2702091961808755E+00 
    9.0103067330038957E+00 
    1.3073304529737321E+01 
    7.4947881201933804E+00 
    1.3495925805394856E+01 
    9.4571447601593039E+00 
    8.9423180195110952E+00 
    1.3214460981802572E+01 
    9.6406987872850802E+00 
    1.3994882943328145E+01 
    1.1438187007837545E+01 
    1.2319164295844192E+01 
    1.3958008483541047E+01 
    6.9657072791532286E+00 
    9.8611870370918826E+00 
    1.3216657960265708E+01 
    2.7801363797754517E+00 
    9.5134411187955816E+00 
    1.3926226896189949E+01 
    8.9708985535998202E+00 
    1.0373209822354818E+01 
    6.0580053635836482E+00 
    1.2959876102651704E+01 
    1.6068278081907696E+01 
    1.1874263576839901E+01 
    8.9685657802848517E+00 
    8.0083674731644248E+00 
    1.0216386822602813E+01 
    9.4743292040607212E+00 
    6.5565749851385027E+00 
    1.3953993365682889E+01 
    1.3307476363202190E+01 
    1.2962894709565326E+01 
    1.0109869065552767E+01 
    8.1577835956630480E+00 
    9.3073623036677358E+00 
    1.3676757701228178E+01 
    8.3960771544169503E+00 
    9.4128935545960513E+00 
    8.5517309713675420E+00 
    1.0926120233633570E+01 
    1.6056683546508189E+01 
    1.2954967969655931E+01 
    8.1120492726474733E+00 
    1.3396264187829237E+01 
    1.3317680454065357E+01 
    1.3393658441256987E+01 
    1.4355774194849992E+01 
    1.4880701123949512E+01 
    1.3554931409988985E+01 
    9.5990241016531712E+00 
    1.0252073411791313E+01 
    1.3391138610666790E+01 
    1.3772232503912806E+01 
    6.8459592224785100E+00 
    1.2981540382099325E+01 
    1.3640821614491742E+01 
    6.6646068455933545E+00 
    1.4273592759001271E+01 
    1.4259566538596527E+01 
    1.2719851399780953E+01 
    9.9229041920356771E+00 
    2.4403035331145908E+00 
    1.3926701501147054E+01 
    9.7829687146971036E+00 
    1.4042762365649313E+01 
    8.9054805879282402E+00 
    1.3770166755607308E+01 
    8.6743066929445822E-01 
    1.2336903170208513E+01 
    9.1039122927136127E+00 
    8.1201592038883241E+00 
    7.9105002255121564E+00 
    9.4274226300381319E+00 
    1.0551368065720673E+01 
    9.7830179292367507E+00 
    6.5254743136647635E+00 
    1.3767835952232932E+01 
    1.3240084938105593E+01 
    1.1160012970407950E+01 
    9.8343198006501513E+00 
    1.4212328470075526E+00 
    7.2914448257261792E+00 
    5.0315209447943108E+00 
    1.3948576654298204E+01 
    1.0708671670778582E+01 
    1.3293117441715211E+01 
    1.3302519305930490E+01 
    8.4700794407365834E+00 
    1.1206083913220500E+01 
    1.2958711213983106E+01 
    1.4242169676578760E+01 
    6.0358082108289244E+00 
    1.1695869127977854E+01 
    9.8170091795734091E+00 
    5.3684825307903665E+00 
    8.4631959950156670E+00 
    1.1696828652382758E+01 
    1.3266593430962935E+01 
    9.4824345759357662E+00 
    1.3372059666100174E+01 
    1.3148688361461200E+01 
    1.3100840275744490E+01 
    9.3140541318194163E+00 
    8.0642487677042407E+00 
    1.2970400439080727E+01 
    8.1803265529525326E+00 
    9.5742371001361501E+00 
    8.0169164544819065E+00 
    9.3589290353952919E+00 
    1.3310663991608836E+01 
    5.9279986037190833E+00 
    8.3772673780073976E+00 
    1.3865436797459147E+01 
    9.3274905797304015E+00 
    1.0598857193754025E+01 
    6.0831327283008845E+00 
    8.2410206449566594E+00 
    1.3127903350236590E+01 
    1.3425204921468389E+01 
    4.9528824890178278E+00 
    9.3308493737328284E+00 
    8.0545385206886611E+00 
    1.4652231155113425E+01 
    1.4130952659271397E+01 
    1.4906620312270906E+01 
    9.3511867360687511E+00 
    1.3285906855153060E+01 
    1.2918792956174496E+01 
    9.2282376951912681E+00 
    1.2963210572513585E+01 
    9.8354110811290933E+00 
    5.4377740345729642E+00 
    9.5629601129747481E+00 
    1.3853005339627071E+01 
    1.2960210108739693E+01 
    6.4535088843117769E+00 
    1.2988078276431864E+01 
    1.0546290385943131E+01 
    9.4948983164570695E+00 
    9.0455498972067101E+00 
    1.2835572924198940E+01 
    1.0049672359758011E+01 
    1.2975434704362481E+01 
    9.2032750848403513E+00 
    5.6363905743383000E+00 
    9.6437477710997790E+00 
    7.9195918346363712E+00 
    1.1875490812522216E+01 
    1.4041059883477809E+01 
    1.2968984066683817E+01 
    1.3919946792515681E+01 
    9.2776300664819331E+00 
    6.2826374412887045E+00 
    6.3729009115793254E+00 
    9.6835584921319899E+00 
    9.5507530331806301E+00 
    1.3485030909234585E+00 
    1.2507205152622635E+01 
    1.4381157466142945E+01 
    8.9174297275787424E+00 
    5.6688724349250306E+00 
    1.0885163469565340E+01 
    1.2986747210684227E+01 
    6.7352919082637142E+00 
    4.5557428901827945E+00 
    9.5239836396496322E+00 
    1.3076030246776641E+01 
    1.3676576758656287E+01 
    1.3571611739582822E+01 
    1.3429128015518065E+01 
    6.5690823884583498E+00 
    9.4879360006205538E+00 
    1.2526854132656151E+01 
    7.4757489407165014E+00 
    1.3245961544361347E+01 
    1.1421935747789805E+01 
    6.4715136239698063E+00 
    1.3089758444244628E+01 
    1.3948547490630521E+01 
    1.3092808135612650E+01 
    6.4836455846617689E+00 
    9.6036528083197350E+00 
    7.1313066815216413E+00 
    9.0586995025752142E+00 
    1.2978665570335368E+01 
    1.2967527041393609E+01 
    6.5216807829194670E+00 
    1.3807914382943611E+01 
    1.0132702905669488E+01 
    1.3002504114485756E+01 
    1.3777480063074441E+01 
    1.2988078102591901E+01 
    1.2105047592743359E+01 
    1.4703871875000340E+01 
    8.8783699303304395E+00 
    1.3890951459140187E+01 
    1.3032146848705587E+01 
    1.3959966849995753E+01 
    1.3801473323067345E+01 
    8.9734932710538384E+00 
    9.4163467165769923E+00 
    8.9081297154089931E+00 
    1.1643731916238114E+01 
    3.7190690989096971E+00 
    9.6136174663196865E+00 
    1.4827323268535917E+01 
    9.8366387653111911E+00 
    1.0015085989495182E+01 
    1.3934150014120190E+01 
    1.4157160834128458E+01 
    8.8225543967383953E+00 
    1.2992159295865005E+01 
    1.2963969349301181E+01 
    1.0003330629085196E+01 
    1.3758688479889370E+01 
    6.7993343591975730E+00 
    4.3077316294898340E+00 
    1.0270661055855705E+01 
    9.8506906253016346E+00 
    1.2969692729324372E+01 
    6.0936484676460863E+00 
    1.3491299773888747E+01 
    4.3853884251699986E+00 
    9.7850032996675065E+00 
    9.0186720409359431E+00 
    9.5783426505742923E+00 
    1.6107728475847939E+01 
    3.6145543430442366E+00 
    9.5309283103466349E+00 
    1.1357650580009246E+01 
    9.1833354861549452E+00 
    7.1835527475696210E+00 
    1.3600628680548922E+01 
    1.5671272928939013E+01 
    1.3740431288167287E+01 
    9.4727465426031703E+00 
    5.3404034625304249E+00 
    1.5528061408701234E+01 
    1.3228971526972453E+01 
    6.8835274334237724E+00 
    9.1078417658411066E+00 
    1.4340332309781576E+01 
    3.0731269199482405E+00 
    9.8984509057839905E+00 
    1.3707087923550953E+01 
    9.5923830449630945E+00 
    8.3499060266210634E+00 
    9.5703399391720154E+00 
    1.2735996588878699E+01 
    9.5712049024348076E+00 
    4.7547595302792454E+00 
    8.3813418620859215E-01 
    7.1255091144376230E+00 
    1.4549271004272292E+01 
    8.9075564861148138E+00 
    1.0895642021250289E+01 
    1.0375444720457837E+01 
    1.1942839676513286E+01 
    9.6064074262652994E+00 
    1.3142143346027853E+01 
    1.6121873656817129E+01 
    1.1339242223644163E+01 
    1.3864905996306389E+01 
    5.0542292307014469E-01 
    1.2969426387947200E+01 
    5.2617241319824357E+00 
    1.4992736224692267E+01 
    9.5444928231880279E+00 
    8.4781591608413294E+00 
    7.2752337885516125E+00 
    4.9890247903962202E+00 
    1.0716709213173745E+01 
    7.5493838455407323E+00 
    1.1775476817335473E+01 
    2.0399318288559742E+00 
    1.0577100466925282E+01 
    1.2906437635112120E+01 
    5.7801246004999927E+00 
    1.3435393128679848E+01 
    1.4800203043475005E+01 
    1.3289387437350584E+01 
    9.4133291092495170E+00 
    9.5732386447334790E+00 
    9.5371909172023717E+00 
    5.4117075933826921E+00 
    8.6551831572891285E+00 
    8.5070558381424632E+00 
    9.5263482051372854E+00 
    8.8430321315671918E+00 
    6.3810162300360351E-01 
    6.0422643219619570E+00 
    9.2184697926180412E+00 
    9.5019347975939237E+00 
    1.2099817484531613E+01 
    2.0229673930518817E+00 
    9.9650763379485916E+00 
    9.8553355046431399E+00 
    3.4753301273554564E+00 
    1.3165414468840495E+01 
    8.1994622860973294E+00 
    9.7129214093296401E+00 
    1.3225022703085646E+01 
    5.0100947125659197E+00 
    1.3276596360170185E+01 
    8.3089890283802248E+00 
    9.2913668706444907E-01 
    8.9666832740993989E+00 
    1.3819505700690849E+01 
    1.2969387167681020E+01 
    1.2987663474239410E+01 
    9.8953566650435789E+00 
    9.7893411684227249E+00 
    8.1799381158702023E+00 
    6.5612062669643700E+00 
    1.3328895636844814E+01 
    9.1059487875719984E+00 
    6.4007729931785571E+00 
    1.2982990669811514E+01 
    1.3637597831178482E+01 
    9.7145536333728550E+00 
    9.3732854870128115E+00 
    1.6002942306593226E+01 
    1.0004139591566501E+01 
    1.3347163364909191E+01 
    7.7651255909896424E+00 
    1.6150435874900918E+01 
    6.3355636693497086E+00 
    8.5782972745318720E+00 
    7.1059472038876734E+00 
    1.0221935690335687E+01 
    8.1397014798977541E+00 
    1.6134058413478147E+01 
    1.0049484697534075E+01 
    1.2677143724150428E+01 
    6.5181899130476708E+00 
    9.6042303695416926E+00 
    1.3197097145062157E+01 
    8.1695723538187046E+00 
    6.8209103565204758E+00 
    1.0558828495300459E+01 
    1.3418810099638705E+01 
    6.9953188854789676E+00 
    9.0379573125155837E+00 
    9.4003854215331533E+00 
    1.2946189336651122E+01 
    9.2099186647998028E+00 
    1.3391950687100922E+01 
    1.3987747231015378E+01 
    8.2053198238869385E+00 
    8.0374400556525938E+00 
    7.5880696483474157E+00 
    1.3080161368490916E+01 
    9.8670526668226302E+00 
    1.5710298672222317E+01 
    1.2315035996575661E+01 
    1.3157655600632591E+01 
    1.5403876735359436E+01 
    1.4807951216762858E+01 
    9.6530529098801310E+00 
    9.5115514341646978E+00 
    1.2750357649631770E+01 
    1.3005144490034988E+01 
    1.3494307468968520E+01 
    1.3248168592641290E+01 
    1.6022748222170112E+01 
    1.0003704016331543E+01 
    8.3021277419915727E+00 
    9.9971278364175404E+00 
    1.3904811657806702E+01 
    9.7560070130438472E+00 
    5.6397278966493127E+00 
    9.3976811305052390E+00 
    1.4307472735583916E+01 
    9.8895536012606140E+00 
    8.3119694961707378E+00 
    9.3419255224043010E+00 
    1.4415053571948741E+01 
    1.3010102855365956E+01 
    7.8767595175996519E+00 
    1.4547752812188275E+01 
    9.6855701657173121E+00 
    1.3491027116286208E+01 
    1.4427980219729633E+01 
    1.0123580833393294E+01 
    5.0135204568201264E+00 
    1.0528918423138029E+01 
    5.1889298070335830E+00 
    9.8059689858630801E+00 
    9.5922989584367411E+00 
    1.1083626245979127E+01 
    5.4880739556395213E+00 
    1.1765050407202583E+01 
    9.6168505373547859E+00 
    1.3238980323650622E+01 
    1.0094818001325113E+01 
    7.6821341418428855E+00 
    9.2230117312961362E+00 
    1.0081505838400107E+01 
    1.0102756420911048E+01 
    1.4030005881264465E+01 
    7.9236268676140718E+00 
    7.7854405663624684E+00 
    5.7756679555229340E+00 
    1.3517700285625226E+01 
    9.2617022337197223E+00 
    1.2814136306146143E+01 
    9.5614262942587551E+00 
    6.3258461760062401E+00 
    1.3036966674650088E+01 
    9.5354310541695533E+00 
    6.9098072535285953E+00 
    7.3305272929918486E+00 
    7.5964364565817890E+00 
    1.3267436881197119E+01 
    9.5282937392722307E+00 
    1.3875661414447075E+01 
    9.4935498175851407E+00 
    9.4314405838330977E+00 
    8.9582119190914167E+00 
    1.3115255182187690E+01 
    9.3495222304551433E+00 
    7.6359832633201385E+00 
    1.4795901365963358E+01 
    1.3191399663136558E+01 
    6.6409438256155600E+00 
    2.5518861522144771E+00 
    9.5178636425705712E+00 
    8.9653515232116270E+00 
    8.0306553473418703E+00 
    8.7685681416380294E+00 
    1.3161557112582082E+01 
    9.2342130361518002E+00 
    8.3558321556029611E+00 
    1.3025784338434502E+01 
    6.5807888211790848E+00 
    1.2712432045705800E+01 
    8.6652197926528043E+00 
    7.5658897961887046E+00 
    8.1097504847731781E+00 
    1.3572350514796414E+01 
    9.5818463779575644E+00 
    9.5906626967727480E+00 
    5.5702339739454425E+00 
    6.0297456970382166E+00 
    1.2082458491002896E+01 
    9.6013943437913714E+00 
    9.5574411922809439E+00 
    1.4533195721262544E+01 
    7.7882241772482761E+00 
    9.6146152258323170E+00 
    6.8070553015123627E+00 
    7.0224742099451012E+00 
    1.3108378180358189E+01 
    9.2415983458386677E+00 
    6.6596523102867726E+00 
    1.0116831911337563E+01 
    9.4769222042634382E+00 
    1.3111421209347032E+01 
    1.4623986320839826E+01 
    9.7913779129322953E-01 
    9.5226592836318904E+00 
    9.8490373400851166E+00 
    1.3172546372247043E+01 
    9.0377973401516041E+00 
    9.5551480293019608E+00 
    1.4079717499018420E+01 
    8.1440735707524325E+00 
    6.7200255105286990E+00 
    1.1612872861469340E+01 
    1.2982405161603188E+01 
    1.3958948644641797E+01 
    1.4219773393897709E+01 
    9.3685567907725353E+00 
    9.5144940960372963E+00 
    1.0783014954347264E+01 
    6.3066230171546875E+00 
    1.3103141902497873E+01 
    7.2500231341067174E+00 
    6.5710763034235704E+00 
    1.2021305401803613E+01 
    1.1306112144637734E+01 
    6.4429587678605378E+00 
    1.3016412237916944E+01 
    1.3945338715068091E+01 
    1.0018622844971203E+01 
    1.4723132128392566E+01 
    1.3047311150362056E+01 
    9.1063871807944423E+00 
    1.3694657305231678E+01 
    7.0271886954880971E+00 
    1.2999877831988620E+01 
    9.5216775582947992E+00 
    9.4833694178155437E+00 
    1.4698528261374236E+01 
    9.2934334029321519E+00 
    1.1747411826212026E+01 
    8.0947480632067723E+00 
    1.4058811962400151E+01 
    1.2912061148359905E+01 
    8.4524086953651132E+00 
    1.2959471627718200E+01 
    8.6770257121442764E+00 
    9.5661493386549648E+00 
    1.3906662165800498E+01 
    1.3242306184052490E+01 
    1.3948451466890790E+01 
    1.3175550347367706E+01 
    8.6607763739143628E+00 
    8.8722782341457069E+00 
    1.3954964321673829E+01 
    8.9928589242314576E+00 
    1.2848762032061492E+01 
    9.2842637948993119E+00 
    3.7501403656895085E+00 
    6.6415087026600359E+00 
    6.1455625741838205E+00 
    1.3910010144002595E+01 
    1.4629940399238528E+01 
    1.2976762825694976E+01 
    1.1109305818447556E+01 
    1.3248188581953379E+01 
    1.3023348229863329E+01 
    1.3577283070267269E+01 
    5.3769719168027450E+00 
    3.4961905224481162E+00 
    1.0911615315788625E+01 
    9.1938645719804715E+00 
    1.3162987535214981E+01 
    1.3160606842298842E+01 
    9.8686216913861884E+00 
    1.3195768226359583E+01 
    9.5089767862637888E+00 
    9.4317089277143733E+00 
    4.8502252026489749E+00 
    3.4825233553151382E+00 
    1.4412166977886084E+01 
    7.4619715151152564E+00 
    8.3961482583031923E+00 
    9.7644838278850745E+00 
    1.6004321041030380E+01 
    9.8582619472217043E+00 
    9.8353901181397294E+00 
    3.9626618544542578E+00 
    9.8591807027749283E+00 
    9.8725543522673043E+00 
    1.3464623686267586E+01 
    8.1143601819868145E+00 
    9.1531908971322515E+00 
    1.4575683731229937E+01 
    9.5307934515514834E+00 
    1.2991977811599126E+01 
    1.3237551879496085E+01 
    1.1839888209845805E+01 
    8.1069902645401068E+00 
    1.3174986642256890E+01 
    9.3285894596522354E+00 
    1.3180168812927834E+01 
    1.2933312500568015E+01 
    1.3928360309742295E+01 
    1.3173859675443413E+01 
    1.2379291993272290E+01 
    9.5198283404709638E+00 
    6.3932004895669783E+00 
    1.5878370021054382E+01 
    7.3995146165338754E+00 
    1.3862069919988691E+01 
    9.5172872465079230E+00 
    7.8279228368875309E+00 
    4.6856080559436224E+00 
    9.9064418984309093E+00 
    1.3162680911346587E+01 
    1.3158787180232316E+01 
    9.5463413075876353E+00 
    9.5115682515919246E+00 
    1.4778066100911849E+01 
    1.4164478582527714E+01 
    9.8758710504194145E+00 
    3.2533731613513321E+00 
    1.2344228186402153E+01 
    1.6131859439498712E+01 
    9.5230882297093125E+00 
    1.1468062748617758E+01 
    9.0350790576653761E+00 
    1.5736917719817459E+01 
    1.4240981182775842E+01 
    1.3983976506830496E+01 
    9.8963970755226800E+00 
    4.3681575988724424E+00 
    8.9936411536957888E+00 
    9.0601783282308883E+00 
    9.1027775347817421E+00 
    3.5409066582365911E+00 