# vtk DataFile Version 2.0
Pressure Field Data 
ASCII 
DATASET UNSTRUCTURED_GRID 

POINTS 2860 double 

    0.0000000000000000E+00     0.0000000000000000E+00     0.0000000000000000E+00 
    1.0000000000000000E+00     0.0000000000000000E+00     0.0000000000000000E+00 
    1.0000000000000000E+00     1.0000000000000000E+00     0.0000000000000000E+00 
    0.0000000000000000E+00     1.0000000000000000E+00     0.0000000000000000E+00 
    2.5000000000000000E-01     2.5000000000000000E-01     0.0000000000000000E+00 
    7.5000000000000000E-01     2.5000000000000000E-01     0.0000000000000000E+00 
    7.5000000000000000E-01     7.5000000000000000E-01     0.0000000000000000E+00 
    2.5000000000000000E-01     7.5000000000000000E-01     0.0000000000000000E+00 
    3.1249999999942091E-02     0.0000000000000000E+00     0.0000000000000000E+00 
    6.2499999999873469E-02     0.0000000000000000E+00     0.0000000000000000E+00 
    9.3749999999826514E-02     0.0000000000000000E+00     0.0000000000000000E+00 
    1.2499999999977961E-01     0.0000000000000000E+00     0.0000000000000000E+00 
    1.5624999999968961E-01     0.0000000000000000E+00     0.0000000000000000E+00 
    1.8749999999959971E-01     0.0000000000000000E+00     0.0000000000000000E+00 
    2.1874999999950970E-01     0.0000000000000000E+00     0.0000000000000000E+00 
    2.4999999999941969E-01     0.0000000000000000E+00     0.0000000000000000E+00 
    2.8124999999932920E-01     0.0000000000000000E+00     0.0000000000000000E+00 
    3.1249999999923850E-01     0.0000000000000000E+00     0.0000000000000000E+00 
    3.4374999999914790E-01     0.0000000000000000E+00     0.0000000000000000E+00 
    3.7499999999905720E-01     0.0000000000000000E+00     0.0000000000000000E+00 
    4.0624999999896660E-01     0.0000000000000000E+00     0.0000000000000000E+00 
    4.3749999999887590E-01     0.0000000000000000E+00     0.0000000000000000E+00 
    4.6874999999878530E-01     0.0000000000000000E+00     0.0000000000000000E+00 
    4.9999999999869471E-01     0.0000000000000000E+00     0.0000000000000000E+00 
    5.3124999999877620E-01     0.0000000000000000E+00     0.0000000000000000E+00 
    5.6249999999885780E-01     0.0000000000000000E+00     0.0000000000000000E+00 
    5.9374999999893940E-01     0.0000000000000000E+00     0.0000000000000000E+00 
    6.2499999999902101E-01     0.0000000000000000E+00     0.0000000000000000E+00 
    6.5624999999910261E-01     0.0000000000000000E+00     0.0000000000000000E+00 
    6.8749999999918421E-01     0.0000000000000000E+00     0.0000000000000000E+00 
    7.1874999999926570E-01     0.0000000000000000E+00     0.0000000000000000E+00 
    7.4999999999934730E-01     0.0000000000000000E+00     0.0000000000000000E+00 
    7.8124999999942890E-01     0.0000000000000000E+00     0.0000000000000000E+00 
    8.1249999999951039E-01     0.0000000000000000E+00     0.0000000000000000E+00 
    8.4374999999959199E-01     0.0000000000000000E+00     0.0000000000000000E+00 
    8.7499999999967359E-01     0.0000000000000000E+00     0.0000000000000000E+00 
    9.0624999999975520E-01     0.0000000000000000E+00     0.0000000000000000E+00 
    9.3749999999983680E-01     0.0000000000000000E+00     0.0000000000000000E+00 
    9.6874999999991840E-01     0.0000000000000000E+00     0.0000000000000000E+00 
    1.0000000000000000E+00     3.1249999999942091E-02     0.0000000000000000E+00 
    1.0000000000000000E+00     6.2499999999873469E-02     0.0000000000000000E+00 
    1.0000000000000000E+00     9.3749999999826514E-02     0.0000000000000000E+00 
    1.0000000000000000E+00     1.2499999999977961E-01     0.0000000000000000E+00 
    1.0000000000000000E+00     1.5624999999968961E-01     0.0000000000000000E+00 
    1.0000000000000000E+00     1.8749999999959971E-01     0.0000000000000000E+00 
    1.0000000000000000E+00     2.1874999999950970E-01     0.0000000000000000E+00 
    1.0000000000000000E+00     2.4999999999941969E-01     0.0000000000000000E+00 
    1.0000000000000000E+00     2.8124999999932920E-01     0.0000000000000000E+00 
    1.0000000000000000E+00     3.1249999999923850E-01     0.0000000000000000E+00 
    1.0000000000000000E+00     3.4374999999914790E-01     0.0000000000000000E+00 
    1.0000000000000000E+00     3.7499999999905720E-01     0.0000000000000000E+00 
    1.0000000000000000E+00     4.0624999999896660E-01     0.0000000000000000E+00 
    1.0000000000000000E+00     4.3749999999887590E-01     0.0000000000000000E+00 
    1.0000000000000000E+00     4.6874999999878530E-01     0.0000000000000000E+00 
    1.0000000000000000E+00     4.9999999999869471E-01     0.0000000000000000E+00 
    1.0000000000000000E+00     5.3124999999877620E-01     0.0000000000000000E+00 
    1.0000000000000000E+00     5.6249999999885780E-01     0.0000000000000000E+00 
    1.0000000000000000E+00     5.9374999999893940E-01     0.0000000000000000E+00 
    1.0000000000000000E+00     6.2499999999902101E-01     0.0000000000000000E+00 
    1.0000000000000000E+00     6.5624999999910261E-01     0.0000000000000000E+00 
    1.0000000000000000E+00     6.8749999999918421E-01     0.0000000000000000E+00 
    1.0000000000000000E+00     7.1874999999926570E-01     0.0000000000000000E+00 
    1.0000000000000000E+00     7.4999999999934730E-01     0.0000000000000000E+00 
    1.0000000000000000E+00     7.8124999999942890E-01     0.0000000000000000E+00 
    1.0000000000000000E+00     8.1249999999951039E-01     0.0000000000000000E+00 
    1.0000000000000000E+00     8.4374999999959199E-01     0.0000000000000000E+00 
    1.0000000000000000E+00     8.7499999999967359E-01     0.0000000000000000E+00 
    1.0000000000000000E+00     9.0624999999975520E-01     0.0000000000000000E+00 
    1.0000000000000000E+00     9.3749999999983680E-01     0.0000000000000000E+00 
    1.0000000000000000E+00     9.6874999999991840E-01     0.0000000000000000E+00 
    9.6875000000003686E-01     1.0000000000000000E+00     0.0000000000000000E+00 
    9.3750000000011691E-01     1.0000000000000000E+00     0.0000000000000000E+00 
    9.0625000000015765E-01     1.0000000000000000E+00     0.0000000000000000E+00 
    8.7500000000017863E-01     1.0000000000000000E+00     0.0000000000000000E+00 
    8.4375000000028044E-01     1.0000000000000000E+00     0.0000000000000000E+00 
    8.1250000000040856E-01     1.0000000000000000E+00     0.0000000000000000E+00 
    7.8125000000054956E-01     1.0000000000000000E+00     0.0000000000000000E+00 
    7.5000000000066480E-01     1.0000000000000000E+00     0.0000000000000000E+00 
    7.1875000000086831E-01     1.0000000000000000E+00     0.0000000000000000E+00 
    6.8750000000102829E-01     1.0000000000000000E+00     0.0000000000000000E+00 
    6.5625000000114431E-01     1.0000000000000000E+00     0.0000000000000000E+00 
    6.2500000000129829E-01     1.0000000000000000E+00     0.0000000000000000E+00 
    5.9375000000147926E-01     1.0000000000000000E+00     0.0000000000000000E+00 
    5.6250000000168354E-01     1.0000000000000000E+00     0.0000000000000000E+00 
    5.3125000000188671E-01     1.0000000000000000E+00     0.0000000000000000E+00 
    5.0000000000205835E-01     1.0000000000000000E+00     0.0000000000000000E+00 
    4.6875000000192979E-01     1.0000000000000000E+00     0.0000000000000000E+00 
    4.3750000000180111E-01     1.0000000000000000E+00     0.0000000000000000E+00 
    4.0625000000167238E-01     1.0000000000000000E+00     0.0000000000000000E+00 
    3.7500000000154382E-01     1.0000000000000000E+00     0.0000000000000000E+00 
    3.4375000000141509E-01     1.0000000000000000E+00     0.0000000000000000E+00 
    3.1250000000128642E-01     1.0000000000000000E+00     0.0000000000000000E+00 
    2.8125000000115769E-01     1.0000000000000000E+00     0.0000000000000000E+00 
    2.5000000000102918E-01     1.0000000000000000E+00     0.0000000000000000E+00 
    2.1875000000090050E-01     1.0000000000000000E+00     0.0000000000000000E+00 
    1.8750000000077180E-01     1.0000000000000000E+00     0.0000000000000000E+00 
    1.5625000000064329E-01     1.0000000000000000E+00     0.0000000000000000E+00 
    1.2500000000051459E-01     1.0000000000000000E+00     0.0000000000000000E+00 
    9.3750000000385914E-02     1.0000000000000000E+00     0.0000000000000000E+00 
    6.2500000000257239E-02     1.0000000000000000E+00     0.0000000000000000E+00 
    3.1250000000128557E-02     1.0000000000000000E+00     0.0000000000000000E+00 
    0.0000000000000000E+00     9.6875000000003686E-01     0.0000000000000000E+00 
    0.0000000000000000E+00     9.3750000000011691E-01     0.0000000000000000E+00 
    0.0000000000000000E+00     9.0625000000015765E-01     0.0000000000000000E+00 
    0.0000000000000000E+00     8.7500000000017863E-01     0.0000000000000000E+00 
    0.0000000000000000E+00     8.4375000000028044E-01     0.0000000000000000E+00 
    0.0000000000000000E+00     8.1250000000040856E-01     0.0000000000000000E+00 
    0.0000000000000000E+00     7.8125000000054956E-01     0.0000000000000000E+00 
    0.0000000000000000E+00     7.5000000000066480E-01     0.0000000000000000E+00 
    0.0000000000000000E+00     7.1875000000086831E-01     0.0000000000000000E+00 
    0.0000000000000000E+00     6.8750000000102829E-01     0.0000000000000000E+00 
    0.0000000000000000E+00     6.5625000000114431E-01     0.0000000000000000E+00 
    0.0000000000000000E+00     6.2500000000129829E-01     0.0000000000000000E+00 
    0.0000000000000000E+00     5.9375000000147926E-01     0.0000000000000000E+00 
    0.0000000000000000E+00     5.6250000000168354E-01     0.0000000000000000E+00 
    0.0000000000000000E+00     5.3125000000188671E-01     0.0000000000000000E+00 
    0.0000000000000000E+00     5.0000000000205835E-01     0.0000000000000000E+00 
    0.0000000000000000E+00     4.6875000000192979E-01     0.0000000000000000E+00 
    0.0000000000000000E+00     4.3750000000180111E-01     0.0000000000000000E+00 
    0.0000000000000000E+00     4.0625000000167238E-01     0.0000000000000000E+00 
[...]
CELL_DATA 2795 
SCALARS Pressure double 1 
LOOKUP_TABLE default 

    7.3678295974171704E+00 
    1.6660375694097407E+01 
    1.1675571100524619E+01 
    1.1336539248547490E+01 
    9.0387086901692708E+00 
    1.6504530097216062E+01 
    1.7322134945189365E+01 
    6.5865826466248043E+00 
    1.2229027111246369E+01 
    9.4063008560883539E+00 
    8.0238378546982787E+00 
    1.6211984948254901E+01 
    1.6563432678520034E+01 
    1.6469146608653841E+01 
    1.0765536314433341E+01 
    6.4771724494138407E+00 
    1.0439698209133534E+01 
    8.5432791241587260E+00 
    1.5793345537429303E+01 
    1.1657368005974099E+01 
    1.1553805461120984E+01 
    1.6393808558633761E+01 
    1.1030667338493240E+01 
    4.2967902641758732E-01 
    1.6198876312215980E+01 
    1.6523396121227179E+01 
    1.7356410642280682E+01 
    7.7352531924843806E+00 
    1.6120937418701153E+01 
    1.7346051267763350E+01 
    1.1809849819299037E+01 
    1.1861653745068949E+01 
    8.4123168025263571E+00 
    1.1638698776665672E+01 
    3.7842805630368268E+00 
    1.0444846143543549E+01 
    1.1624492413448845E+01 
    1.7389061186750585E+01 
    1.7296421459509382E+01 
    1.6226446353980318E+01 
    9.0143469875260198E+00 
    1.6193095776242401E+01 
    8.9270442641778591E-01 
    1.1608058550262321E+01 
    1.7097284972846833E+01 
    1.6861509698043069E+01 
    1.6199861672354402E+01 
    1.2673459895695705E+01 
    1.6264687425903745E+01 
    1.0678818173233884E+01 
    1.0178396967324602E+01 
    1.1825729346591290E+01 
    1.1496281625972911E+01 
    1.0505331000641524E+01 
    1.1883349662433282E+01 
    1.5550770296141939E+01 
    1.3710021251857547E+01 
    9.0869733722715313E+00 
    1.6400055028732659E+01 
    1.6309572088689070E+01 
    1.1305298860973775E+01 
    1.1233840006016106E+01 
    1.1225362898036321E+01 
    1.7238296172817773E+01 
    1.7523218680043822E+01 
    1.0454238368318720E+01 
    1.1824218066055060E+01 
    1.6015343613014185E+01 
    1.3698008939626979E+01 
    1.1287522354829887E+01 
    1.7529043878737852E+01 
    1.6347494104249119E+01 
    1.0306538810133551E+01 
    1.6987565666246631E+01 
    1.2134875708989332E+01 
    1.6038487186669684E+01 
    1.7401255966400335E+01 
    1.2232348127394634E+01 
    7.5057970036347141E+00 
    1.1842403264842591E+01 
    1.7306656475247870E+01 
    1.7558323789082554E+01 
    1.0468289161187855E+01 
    1.1768312150797723E+01 
    1.7610233718354518E+01 
    1.1623592284931419E+01 
    1.1129551475793223E+01 
    1.4197610526524924E+01 
    7.1802087930913707E+00 
    1.0204485093552961E+01 
    1.1765613970968637E+01 
    1.2387205762920292E+01 
    1.9174237019632869E+01 
    8.7869879524433294E+00 
    1.1832078457566940E+01 
    1.6174670213276848E+01 
    1.6506617481063742E+01 
    7.7548778712248989E+00 
    1.1484414614986573E+01 
    1.1799237387012267E+01 
    1.6531173592484603E+01 
    1.1790412116979528E+01 
    1.6450328109398512E+01 
    4.6993955836190748E+00 
    7.8021910589820767E+00 
    1.2049907057306759E+01 
    1.6668741275137894E+01 
    1.0405117552974493E+01 
    1.1053306158104119E+01 
    1.1769165211365042E+01 
    1.1090543611139184E+01 
    1.3295367257618103E+01 
    1.0760172840210114E+01 
    1.0316578969048804E+01 
    8.2375169391353520E+00 
    1.3994288091249896E+01 
    1.1866911809464622E+01 
    1.7140703908790982E+01 
    1.0203772939979583E+01 
    1.1313885851448493E+01 
    1.6336091045667615E+01 
    9.4838739744807281E+00 
    1.6838889202964697E+01 
    1.1696509779036706E+01 
    1.1235314610027983E+01 
    1.6509808206526724E+01 
    1.1854758506699067E+01 
    1.7416526127483841E+01 
    1.4228005953603073E+01 
    1.5366694517415654E+01 
    1.7374774889113329E+01 
    8.8043352552982022E+00 
    1.2072735891447630E+01 
    1.6508158841549484E+01 
    3.5074988877923223E+00 
    1.1860330023593836E+01 
    1.7337718886890293E+01 
    1.1266643237808177E+01 
    1.3004864778257396E+01 
    7.7257018410059795E+00 
    1.6171582033195964E+01 
    1.9687936850386805E+01 
    1.4778893740408208E+01 
    1.1267356942431812E+01 
    1.0089975263783034E+01 
    1.2570475251197678E+01 
    1.1713440439008394E+01 
    8.1111596489674636E+00 
    1.7370217190079618E+01 
    1.6535831157495814E+01 
    1.6176544752693708E+01 
    1.2388174216417493E+01 
    1.0278155215331557E+01 
    1.1550388920646723E+01 
    1.7024442819027218E+01 
    1.0565669090093355E+01 
    1.1798216402074052E+01 
    1.0755681929649294E+01 
    1.3691350271674539E+01 
    1.9675579787089493E+01 
    1.6167012618410642E+01 
    1.0293692866297501E+01 
    1.6728108311755960E+01 
    1.6623656344816872E+01 
    1.6712547000565280E+01 
    1.7825302706842432E+01 
    1.8409100048386605E+01 
    1.6854604633464930E+01 
    1.1815942774852520E+01 
    1.2820694304199810E+01 
    1.6669463705215982E+01 
    1.7154305803131727E+01 
    8.4694346514755932E+00 
    1.6199351910836782E+01 
    1.6983899840941991E+01 
    8.2405935461467603E+00 
    1.7744759923964459E+01 
    1.7714848876036339E+01 
    1.5872446855653561E+01 
    1.2148835032843062E+01 
    3.0824741398654627E+00 
    1.7338770626805065E+01 
    1.1989699233362421E+01 
    1.7469343454804630E+01 
    1.1186934087358479E+01 
    1.7147675179043965E+01 
    1.1038306617256286E+00 
    1.5373180852633842E+01 
    1.1282596200116993E+01 
    1.0225382043813326E+01 
    9.9691832452818723E+00 
    1.1664847917990668E+01 
    1.2878511627576771E+01 
    1.2279233871462690E+01 
    8.3171489420659288E+00 
    1.7147961519475892E+01 
    1.6533943586741501E+01 
    1.3809679899923335E+01 
    1.2042081663029435E+01 
    1.7817758533694268E+00 
    9.2058252170795072E+00 
    6.4093470019160153E+00 
    1.7356885733318340E+01 
    1.3076518567075869E+01 
    1.6563461699187304E+01 
    1.6608870279020024E+01 
    1.0653920845365358E+01 
    1.3657667536824315E+01 
    1.6170945441863971E+01 
    1.7696039874031076E+01 
    7.7105389172424950E+00 
    1.4638499811225419E+01 
    1.2261757604379271E+01 
    6.8308526665018148E+00 
    1.0646317379599767E+01 
    1.4309967641765267E+01 
    1.6565647333456116E+01 
    1.1716227655305040E+01 
    1.6688519480470351E+01 
    1.6427087641213120E+01 
    1.6369163788480972E+01 
    1.1555189107096091E+01 
    1.0145761827091681E+01 
    1.6185292651565248E+01 
    1.0301869438916810E+01 
    1.1798407841197067E+01 
    1.0099549403647147E+01 
    1.1748184485974731E+01 
    1.6619292300301545E+01 
    7.3410039585959446E+00 
    1.0540577014644795E+01 
    1.7264874026620426E+01 
    1.1564238096406147E+01 
    1.2970949024919474E+01 
    7.5309927390771048E+00 
    1.0373674290796851E+01 
    1.6402417126466691E+01 
    1.6750388644671272E+01 
    6.1491604281825438E+00 
    1.1575595395257270E+01 
    1.0166853054569243E+01 
    1.8158297759591211E+01 
    1.7567562017372556E+01 
    1.8439899441468892E+01 
    1.1595591643386888E+01 
    1.6588798188472779E+01 
    1.6118725726268789E+01 
    1.1452435853773359E+01 
    1.6177060464326566E+01 
    1.2043478334820504E+01 
    6.9097456015864935E+00 
    1.1935943175168720E+01 
    1.7246956555411550E+01 
    1.6173424716721819E+01 
    7.9894242159672721E+00 
    1.6207441379042535E+01 
    1.2905614735432570E+01 
    1.1837949033491110E+01 
    1.1347757785894185E+01 
    1.6019421747999733E+01 
    1.2400967430087546E+01 
    1.6191574143199258E+01 
    1.1534025890078059E+01 
    7.1302822135574706E+00 
    1.1876627290473195E+01 
    9.9830515240194870E+00 
    1.4798960272740361E+01 
    1.7470276485924575E+01 
    1.6183164887393069E+01 
    1.7330826598495182E+01 
    1.1506088802452460E+01 
    7.7757538673252746E+00 
    7.8847491253290229E+00 
    1.2040196776968882E+01 
    1.1770861936431267E+01 
    1.7154247957459836E+00 
    1.5600149889556379E+01 
    1.7858724080081060E+01 
    1.1203879583536265E+01 
    7.2190387969235692E+00 
    1.3624918420669553E+01 
    1.6205460545967739E+01 
    8.5254622211786426E+00 
    5.7927682048628482E+00 
    1.1754100242087560E+01 
    1.6287294904524199E+01 
    1.7041987231446289E+01 
    1.6905185825603375E+01 
    1.6753484639126036E+01 
    8.3904756431350940E+00 
    1.1832775632437032E+01 
    1.5666776899329292E+01 
    9.2328318339965527E+00 
    1.6548543938914307E+01 
    1.3910510160813155E+01 
    8.0027352329117392E+00 
    1.6316363719181009E+01 
    1.7373561044005399E+01 
    1.6347807507334110E+01 
    8.2079061225075645E+00 
    1.1820317659757574E+01 
    9.0096359265745694E+00 
    1.1163874067206415E+01 
    1.6195935071396846E+01 
    1.6182343105056006E+01 
    8.2550645822061508E+00 
    1.7194868892577613E+01 
    1.2402274654465863E+01 
    1.6216239779217943E+01 
    1.7164129877181914E+01 
    1.6203543074393657E+01 
    1.5052148871191678E+01 
    1.8220503943646392E+01 
    1.1147582416296833E+01 
    1.7296360745743840E+01 
    1.6246230084132360E+01 
    1.7377364999764346E+01 
    1.7187910674625297E+01 
    1.1262215063559797E+01 
    1.1664753869429065E+01 
    1.1193353764274940E+01 
    1.4447759384516754E+01 
    4.7196902456262153E+00 
    1.1969690084670914E+01 
    1.8354400647783187E+01 
    1.2046422514331976E+01 
    1.2259592609742853E+01 
    1.7347639366488515E+01 
    1.7599844014789756E+01 
    1.1051677867307591E+01 
    1.6212399850917375E+01 
    1.6177751231387543E+01 
    1.2245243620546196E+01 
    1.7138254162025159E+01 
    8.4037012552217476E+00 
    5.3681804853167199E+00 
    1.2568981422661826E+01 
    1.2060053718479349E+01 
    1.6183934040167930E+01 
    7.7283529691978741E+00 
    1.6814674830717639E+01 
    5.4608723841343583E+00 
    1.1994637463219764E+01 
    1.1282270580333568E+01 
    1.1797235119515390E+01 
    1.9728233029054692E+01 
    4.5742532745095374E+00 
    1.1879206342783919E+01 
    1.4231506289398196E+01 
    1.1395761906643937E+01 
    9.1981209348180197E+00 
    1.6949771752356661E+01 
    1.9265982160753769E+01 
    1.7112417272089175E+01 
    1.1812167484606690E+01 
    6.7928208736960629E+00 
    1.9110368892966022E+01 
    1.6523100661871343E+01 
    8.7145571672693904E+00 
    1.1438071657187573E+01 
    1.7807185174481763E+01 
    3.8945492212014865E+00 
    1.2118940694817736E+01 
    1.7086722769723078E+01 
    1.1812323420970545E+01 
    1.0299957444417824E+01 
    1.1922904557511128E+01 
    1.5849983018602835E+01 
    1.1794451835062707E+01 
    6.0480012607130096E+00 
    1.0787844614388471E+00 
    8.8141047798089431E+00 
    1.8050525853653099E+01 
    1.1192733045041198E+01 
    1.3276665370152724E+01 
    1.2729936477964229E+01 
    1.4648953633394489E+01 
    1.1825929228566643E+01 
    1.6419940000888115E+01 
    1.9743049580084207E+01 
    1.4109763584911232E+01 
    1.7265537649854213E+01 
    6.4015321678201864E-01 
    1.6184635077601090E+01 
    6.6718332384096293E+00 
    1.8533795421088438E+01 
    1.1894160292088262E+01 
    1.0501147262825066E+01 
    9.1867338987270379E+00 
    6.3445711901355262E+00 
    1.3232878575417386E+01 
    9.3501744150791311E+00 
    1.4678708437152236E+01 
    2.5956189187302603E+00 
    1.2947664124740831E+01 
    1.6105223280068195E+01 
    7.1650111637188525E+00 
    1.6697021043976246E+01 
    1.8315635154220317E+01 
    1.6528705387129325E+01 
    1.1743118100068473E+01 
    1.1791256510554295E+01 
    1.1886212555113795E+01 
    6.8785171514391390E+00 
    1.0883530574141412E+01 
    1.0701962099242207E+01 
    1.1874105104310889E+01 
    1.1113089688445095E+01 
    8.1423055475739903E-01 
    7.6383943237945893E+00 
    1.1569953293498745E+01 
    1.1846024145926974E+01 
    1.5081847419453243E+01 
    2.5564646281175025E+00 
    1.2199118080459813E+01 
    1.2067673210611463E+01 
    4.4069610237777255E+00 
    1.6377547360443565E+01 
    1.0323063566958874E+01 
    1.1924961962522598E+01 
    1.6520760016623495E+01 
    6.3732705492844550E+00 
    1.6499538461524775E+01 
    1.0458507114683103E+01 
    1.1636195717500200E+00 
    1.1264348849753903E+01 
    1.7212308579363651E+01 
    1.6184411895013106E+01 
    1.6205085109569879E+01 
    1.2262432216412293E+01 
    1.1997664176029385E+01 
    1.0298525417342800E+01 
    8.3284499111429096E+00 
    1.6647109965335964E+01 
    1.1432440873698884E+01 
    8.0844319427011904E+00 
    1.6200361765375270E+01 
    1.6975245832361651E+01 
    1.2067048638808366E+01 
    1.1612438493054766E+01 
    1.9616295544098783E+01 
    1.2246333337420539E+01 
    1.6663187607707929E+01 
    9.7998378182746482E+00 
    1.9771988629674045E+01 
    7.8390664519759685E+00 
    1.0761933189988554E+01 
    8.7798452060605108E+00 
    1.2512148707599863E+01 
    1.0062904690197012E+01 
    1.9754997153460778E+01 
    1.2301513483244252E+01 
    1.5806403552201241E+01 
    8.0616014577470576E+00 
    1.1820572720611839E+01 
    1.6484466459563077E+01 
    1.0104343774023679E+01 
    8.7369558696637011E+00 
    1.3244091609386304E+01 
    1.6731890032626254E+01 
    8.6442723249742279E+00 
    1.1306440414305225E+01 
    1.1648496806749094E+01 
    1.6156336885587439E+01 
    1.1422978907910377E+01 
    1.6709776188048000E+01 
    1.7409262054354752E+01 
    1.0331081025746940E+01 
    1.0129749546059383E+01 
    9.3694181526994775E+00 
    1.6315775074870707E+01 
    1.2097538771684871E+01 
    1.9307148824462857E+01 
    1.5109446405358444E+01 
    1.6438629597127395E+01 
    1.8976003709306145E+01 
    1.8323152808826848E+01 
    1.1867462502321612E+01 
    1.1857196130214897E+01 
    1.5901767172277491E+01 
    1.6228297892585388E+01 
    1.6843422187201355E+01 
    1.6546702299235747E+01 
    1.9639873869796908E+01 
    1.2245780963279200E+01 
    1.0448693030620682E+01 
    1.2238204783787866E+01 
    1.7313038286967871E+01 
    1.1962584617789464E+01 
    7.0033352355382181E+00 
    1.1725045126642295E+01 
    1.7772198485019548E+01 
    1.2107791417495223E+01 
    1.0461252324106768E+01 
    1.1589214212304901E+01 
    1.7893353701558404E+01 
    1.6258578815429267E+01 
    9.9784525920189573E+00 
    1.8041984869219274E+01 
    1.1895866214293628E+01 
    1.6827122831561784E+01 
    1.7908069372566807E+01 
    1.2577319421380908E+01 
    6.3804997037471418E+00 
    1.3110705945139731E+01 
    6.5996986869033325E+00 
    1.2012436913431996E+01 
    1.1816655542640198E+01 
    1.3834919291491314E+01 
    6.9840973409409406E+00 
    1.4700688430549645E+01 
    1.1833305687963046E+01 
    1.6535303674082190E+01 
    1.2668136650808096E+01 
    9.8108185170757167E+00 
    1.1445998259189539E+01 
    1.2434357892893122E+01 
    1.2364985444934323E+01 
    1.7458997198485317E+01 
    9.9842011566464208E+00 
    9.8147469621505508E+00 
    7.3578698145431289E+00 
    1.6867717885639863E+01 
    1.1494103180299515E+01 
    1.6016497376605624E+01 
    1.1785478515121685E+01 
    8.0539437392174573E+00 
    1.6291177518369800E+01 
    1.1762123434582744E+01 
    8.7650055758624852E+00 
    9.2684317426009208E+00 
    9.5879746942519581E+00 
    1.6570503515180590E+01 
    1.1876313448476859E+01 
    1.7278989852653790E+01 
    1.1722665265357641E+01 
    1.1662117866951393E+01 
    1.1215622644604066E+01 
    1.6387182424554936E+01 
    1.1576721206745169E+01 
    9.6314893376366726E+00 
    1.8311229366745568E+01 
    1.6480198380807856E+01 
    8.2102188087005636E+00 
    3.2231245495460845E+00 
    1.1864835379478933E+01 
    1.1116440603755681E+01 
    1.0115173864659226E+01 
    1.0992133924720758E+01 
    1.6418876925167538E+01 
    1.1537319291274555E+01 
    1.0508941770617866E+01 
    1.6253297624687633E+01 
    8.1395632909487716E+00 
    1.5858964173436235E+01 
    1.0725702130152772E+01 
    9.6397678313332644E+00 
    1.0212860238837875E+01 
    1.6921941148058913E+01 
    1.1799813084427806E+01 
    1.1808212227022874E+01 
    7.0758234110992984E+00 
    7.6465607888539218E+00 
    1.4976562821390527E+01 
    1.1818068241479024E+01 
    1.1908910132880212E+01 
    1.8027312848593205E+01 
    9.8199759696809821E+00 
    1.1830325150182459E+01 
    8.4197378585616338E+00 
    8.6917241071030631E+00 
    1.6375726551065434E+01 
    1.1450935117417442E+01 
    8.4266534652555602E+00 
    1.2389645039044376E+01 
    1.1719579420506625E+01 
    1.6380970776497055E+01 
    1.8128046372499870E+01 
    1.2186570468313851E+00 
    1.1870272400210109E+01 
    1.2058713661979118E+01 
    1.6456763427253716E+01 
    1.1345702616321866E+01 
    1.1772385712047035E+01 
    1.7520021405552693E+01 
    1.0255860618758479E+01 
    8.5029615909670824E+00 
    1.4169892658986498E+01 
    1.6200226779843646E+01 
    1.7375247823112943E+01 
    1.7668795585501858E+01 
    1.1695136005233149E+01 
    1.1860676636460278E+01 
    1.3232965218379393E+01 
    7.8079658062700021E+00 
    1.6348766336593911E+01 
    9.1548355352002790E+00 
    8.1253229227989650E+00 
    1.4781001534262391E+01 
    1.3931509369696666E+01 
    7.9709632388808185E+00 
    1.6240765720126134E+01 
    1.7360030418307336E+01 
    1.2263913930654676E+01 
    1.8238495841647005E+01 
    1.6278858529991929E+01 
    1.1408100009784743E+01 
    1.7064040695458640E+01 
    8.6854805027085469E+00 
    1.6221718279910473E+01 
    1.1868998511311172E+01 
    1.1827352243932360E+01 
    1.8214116068593711E+01 
    1.1535308119652090E+01 
    1.4531211979361039E+01 
    1.0196557077866709E+01 
    1.7490683267450631E+01 
    1.6113342171549235E+01 
    1.0632305337929527E+01 
    1.6171614298154676E+01 
    1.0751377533093502E+01 
    1.1779766315572942E+01 
    1.7314843504234911E+01 
    1.6543888949142488E+01 
    1.7363436029152389E+01 
    1.6460604435138748E+01 
    1.0889384997583504E+01 
    1.1132088485257354E+01 
    1.7371392374558486E+01 
    1.1275076054675806E+01 
    1.6023820686892503E+01 
    1.1519345453286100E+01 
    4.7463276503715086E+00 
    8.2108870850805999E+00 
    7.6066345304915064E+00 
    1.7319008513868138E+01 
    1.8135866147732621E+01 
    1.6192567105529605E+01 
    1.3543907654694372E+01 
    1.6521714620540127E+01 
    1.6250679588266607E+01 
    1.6921663028822991E+01 
    6.8380440679802312E+00 
    4.4194218852570524E+00 
    1.3291556221127987E+01 
    1.1522136327570976E+01 
    1.6422004734551727E+01 
    1.6419161793966492E+01 
    1.2080871860238176E+01 
    1.6461981779128248E+01 
    1.1854363717339480E+01 
    1.1772730562529370E+01 
    6.1688506525140010E+00 
    4.4073922441305902E+00 
    1.7889400527930388E+01 
    9.2274432122750323E+00 
    1.0565219326157937E+01 
    1.1974117794801600E+01 
    1.9619017656073908E+01 
    1.2068748529929660E+01 
    1.2213143438387988E+01 
    5.0214001344996015E+00 
    1.2068875733813295E+01 
    1.2083612590408729E+01 
    1.6749667028197358E+01 
    1.0220683637026490E+01 
    1.1324387687867594E+01 
    1.8073852819800919E+01 
    1.1879509184865052E+01 
    1.6210765701137845E+01 
    1.6469364425897311E+01 
    1.4458827946309897E+01 
    1.0042434476999334E+01 
    1.6460239286973579E+01 
    1.1658957779819161E+01 
    1.6392981653178726E+01 
    1.6140538624407480E+01 
    1.7340428074816291E+01 
    1.6457745163312079E+01 
    1.5401314442739983E+01 
    1.1866842835834069E+01 
    7.9090742883604062E+00 
    1.9485938649680403E+01 
    9.3398976040237063E+00 
    1.7257000943858891E+01 
    1.1864033417710418E+01 
    9.8722936904947929E+00 
    5.8962078494783103E+00 
    1.2122352986772999E+01 
    1.6444928076421043E+01 
    1.6440632199323591E+01 
    1.1759879544594641E+01 
    1.1857716221310934E+01 
    1.8296991996056164E+01 
    1.7606323350360636E+01 
    1.2089389394296436E+01 
    4.1087173883941208E+00 
    1.5261744897347867E+01 
    1.9751680157676702E+01 
    1.1870425666565033E+01 
    1.3985165743536978E+01 
    1.1345148671437991E+01 
    1.9333982066125269E+01 
    1.7695430414241276E+01 
    1.7411036395783920E+01 
    1.2112745819423351E+01 
    5.4728523573216892E+00 
    1.1297513483168675E+01 
    1.1371441419127583E+01 
    1.1413824244028719E+01 
    4.4813485314001760E+00 