# vtk DataFile Version 2.0
Pressure Field Data 
ASCII 
DATASET UNSTRUCTURED_GRID 

POINTS 2860 double 

    0.0000000000000000E+00     0.0000000000000000E+00     0.0000000000000000E+00 
    1.0000000000000000E+00     0.0000000000000000E+00     0.0000000000000000E+00 
    1.0000000000000000E+00     1.0000000000000000E+00     0.0000000000000000E+00 
    0.0000000000000000E+00     1.0000000000000000E+00     0.0000000000000000E+00 
    2.5000000000000000E-01     2.5000000000000000E-01     0.0000000000000000E+00 
    7.5000000000000000E-01     2.5000000000000000E-01     0.0000000000000000E+00 
    7.5000000000000000E-01     7.5000000000000000E-01     0.0000000000000000E+00 
    2.5000000000000000E-01     7.5000000000000000E-01     0.0000000000000000E+00 
    3.1249999999942091E-02     0.0000000000000000E+00     0.0000000000000000E+00 
    6.2499999999873469E-02     0.0000000000000000E+00     0.0000000000000000E+00 
    9.3749999999826514E-02     0.0000000000000000E+00     0.0000000000000000E+00 
    1.2499999999977961E-01     0.0000000000000000E+00     0.0000000000000000E+00 
    1.5624999999968961E-01     0.0000000000000000E+00     0.0000000000000000E+00 
    1.8749999999959971E-01     0.0000000000000000E+00     0.0000000000000000E+00 
    2.1874999999950970E-01     0.0000000000000000E+00     0.0000000000000000E+00 
    2.4999999999941969E-01     0.0000000000000000E+00     0.0000000000000000E+00 
    2.8124999999932920E-01     0.0000000000000000E+00     0.0000000000000000E+00 
    3.1249999999923850E-01     0.0000000000000000E+00     0.0000000000000000E+00 
    3.4374999999914790E-01     0.0000000000000000E+00     0.0000000000000000E+00 
    3.7499999999905720E-01     0.0000000000000000E+00     0.0000000000000000E+00 
    4.0624999999896660E-01     0.0000000000000000E+00     0.0000000000000000E+00 
    4.3749999999887590E-01     0.0000000000000000E+00     0.0000000000000000E+00 
    4.6874999999878530E-01     0.0000000000000000E+00     0.0000000000000000E+00 
    4.9999999999869471E-01     0.0000000000000000E+00     0.0000000000000000E+00 
    5.3124999999877620E-01     0.0000000000000000E+00     0.0000000000000000E+00 
    5.6249999999885780E-01     0.0000000000000000E+00     0.0000000000000000E+00 
    5.9374999999893940E-01     0.0000000000000000E+00     0.0000000000000000E+00 
    6.2499999999902101E-01     0.0000000000000000E+00     0.0000000000000000E+00 
    6.5624999999910261E-01     0.0000000000000000E+00     0.0000000000000000E+00 
    6.8749999999918421E-01     0.0000000000000000E+00     0.0000000000000000E+00 
    7.1874999999926570E-01     0.0000000000000000E+00     0.0000000000000000E+00 
    7.4999999999934730E-01     0.0000000000000000E+00     0.0000000000000000E+00 
    7.8124999999942890E-01     0.0000000000000000E+00     0.0000000000000000E+00 
    8.1249999999951039E-01     0.0000000000000000E+00     0.0000000000000000E+00 
    8.4374999999959199E-01     0.0000000000000000E+00     0.0000000000000000E+00 
    8.7499999999967359E-01     0.0000000000000000E+00     0.0000000000000000E+00 
    9.0624999999975520E-01     0.0000000000000000E+00     0.0000000000000000E+00 
    9.3749999999983680E-01     0.0000000000000000E+00     0.0000000000000000E+00 
    9.6874999999991840E-01     0.0000000000000000E+00     0.0000000000000000E+00 
    1.0000000000000000E+00     3.1249999999942091E-02     0.0000000000000000E+00 
    1.0000000000000000E+00     6.2499999999873469E-02     0.0000000000000000E+00 
    1.0000000000000000E+00     9.3749999999826514E-02     0.0000000000000000E+00 
    1.0000000000000000E+00     1.2499999999977961E-01     0.0000000000000000E+00 
    1.0000000000000000E+00     1.5624999999968961E-01     0.0000000000000000E+00 
    1.0000000000000000E+00     1.8749999999959971E-01     0.0000000000000000E+00 
    1.0000000000000000E+00     2.1874999999950970E-01     0.0000000000000000E+00 
    1.0000000000000000E+00     2.4999999999941969E-01     0.0000000000000000E+00 
    1.0000000000000000E+00     2.8124999999932920E-01     0.0000000000000000E+00 
    1.0000000000000000E+00     3.1249999999923850E-01     0.0000000000000000E+00 
    1.0000000000000000E+00     3.4374999999914790E-01     0.0000000000000000E+00 
    1.0000000000000000E+00     3.7499999999905720E-01     0.0000000000000000E+00 
    1.0000000000000000E+00     4.0624999999896660E-01     0.0000000000000000E+00 
    1.0000000000000000E+00     4.3749999999887590E-01     0.0000000000000000E+00 
    1.0000000000000000E+00     4.6874999999878530E-01     0.0000000000000000E+00 
    1.0000000000000000E+00     4.9999999999869471E-01     0.0000000000000000E+00 
    1.0000000000000000E+00     5.3124999999877620E-01     0.0000000000000000E+00 
    1.0000000000000000E+00     5.6249999999885780E-01     0.0000000000000000E+00 
    1.0000000000000000E+00     5.9374999999893940E-01     0.0000000000000000E+00 
    1.0000000000000000E+00     6.2499999999902101E-01     0.0000000000000000E+00 
    1.0000000000000000E+00     6.5624999999910261E-01     0.0000000000000000E+00 
    1.0000000000000000E+00     6.8749999999918421E-01     0.0000000000000000E+00 
    1.0000000000000000E+00     7.1874999999926570E-01     0.0000000000000000E+00 
    1.0000000000000000E+00     7.4999999999934730E-01     0.0000000000000000E+00 
    1.0000000000000000E+00     7.8124999999942890E-01     0.0000000000000000E+00 
    1.0000000000000000E+00     8.1249999999951039E-01     0.0000000000000000E+00 
    1.0000000000000000E+00     8.4374999999959199E-01     0.0000000000000000E+00 
    1.0000000000000000E+00     8.7499999999967359E-01     0.0000000000000000E+00 
    1.0000000000000000E+00     9.0624999999975520E-01     0.0000000000000000E+00 
    1.0000000000000000E+00     9.3749999999983680E-01     0.0000000000000000E+00 
    1.0000000000000000E+00     9.6874999999991840E-01     0.0000000000000000E+00 
    9.6875000000003686E-01     1.0000000000000000E+00     0.0000000000000000E+00 
    9.3750000000011691E-01     1.0000000000000000E+00     0.0000000000000000E+00 
    9.0625000000015765E-01     1.0000000000000000E+00     0.0000000000000000E+00 
    8.7500000000017863E-01     1.0000000000000000E+00     0.0000000000000000E+00 
    8.4375000000028044E-01     1.0000000000000000E+00     0.0000000000000000E+00 
    8.1250000000040856E-01     1.0000000000000000E+00     0.0000000000000000E+00 
    7.8125000000054956E-01     1.0000000000000000E+00     0.0000000000000000E+00 
    7.5000000000066480E-01     1.0000000000000000E+00     0.0000000000000000E+00 
    7.1875000000086831E-01     1.0000000000000000E+00     0.0000000000000000E+00 
    6.8750000000102829E-01     1.0000000000000000E+00     0.0000000000000000E+00 
    6.5625000000114431E-01     1.0000000000000000E+00     0.0000000000000000E+00 
    6.2500000000129829E-01     1.0000000000000000E+00     0.0000000000000000E+00 
    5.9375000000147926E-01     1.0000000000000000E+00     0.0000000000000000E+00 
    5.6250000000168354E-01     1.0000000000000000E+00     0.0000000000000000E+00 
    5.3125000000188671E-01     1.0000000000000000E+00     0.0000000000000000E+00 
    5.0000000000205835E-01     1.0000000000000000E+00     0.0000000000000000E+00 
    4.6875000000192979E-01     1.0000000000000000E+00     0.0000000000000000E+00 
    4.3750000000180111E-01     1.0000000000000000E+00     0.0000000000000000E+00 
    4.0625000000167238E-01     1.0000000000000000E+00     0.0000000000000000E+00 
    3.7500000000154382E-01     1.0000000000000000E+00     0.0000000000000000E+00 
    3.4375000000141509E-01     1.0000000000000000E+00     0.0000000000000000E+00 
    3.1250000000128642E-01     1.0000000000000000E+00     0.0000000000000000E+00 
    2.8125000000115769E-01     1.0000000000000000E+00     0.0000000000000000E+00 
    2.5000000000102918E-01     1.0000000000000000E+00     0.0000000000000000E+00 
    2.1875000000090050E-01     1.0000000000000000E+00     0.0000000000000000E+00 
    1.8750000000077180E-01     1.0000000000000000E+00     0.0000000000000000E+00 
    1.5625000000064329E-01     1.0000000000000000E+00     0.0000000000000000E+00 
    1.2500000000051459E-01     1.0000000000000000E+00     0.0000000000000000E+00 
    9.3750000000385914E-02     1.0000000000000000E+00     0.0000000000000000E+00 
    6.2500000000257239E-02     1.0000000000000000E+00     0.0000000000000000E+00 
    3.1250000000128557E-02     1.0000000000000000E+00     0.0000000000000000E+00 
    0.0000000000000000E+00     9.6875000000003686E-01     0.0000000000000000E+00 
    0.0000000000000000E+00     9.3750000000011691E-01     0.0000000000000000E+00 
    0.0000000000000000E+00     9.0625000000015765E-01     0.0000000000000000E+00 
    0.0000000000000000E+00     8.7500000000017863E-01     0.0000000000000000E+00 
    0.0000000000000000E+00     8.4375000000028044E-01     0.0000000000000000E+00 
    0.0000000000000000E+00     8.1250000000040856E-01     0.0000000000000000E+00 
    0.0000000000000000E+00     7.8125000000054956E-01     0.0000000000000000E+00 
    0.0000000000000000E+00     7.5000000000066480E-01     0.0000000000000000E+00 
    0.0000000000000000E+00     7.1875000000086831E-01     0.0000000000000000E+00 
    0.0000000000000000E+00     6.8750000000102829E-01     0.0000000000000000E+00 
    0.0000000000000000E+00     6.5625000000114431E-01     0.0000000000000000E+00 
    0.0000000000000000E+00     6.2500000000129829E-01     0.0000000000000000E+00 
    0.0000000000000000E+00     5.9375000000147926E-01     0.0000000000000000E+00 
    0.0000000000000000E+00     5.6250000000168354E-01     0.0000000000000000E+00 
    0.0000000000000000E+00     5.3125000000188671E-01     0.0000000000000000E+00 
    0.0000000000000000E+00     5.0000000000205835E-01     0.0000000000000000E+00 
    0.0000000000000000E+00     4.6875000000192979E-01     0.0000000000000000E+00 
    0.0000000000000000E+00     4.3750000000180111E-01     0.0000000000000000E+00 
    0.0000000000000000E+00     4.0625000000167238E-01     0.0000000000000000E+00 
[...]
CELL_DATA 2795 
SCALARS Pressure double 1 
LOOKUP_TABLE default 

    8.8797608690385239E+00 
    2.0191478970794314E+01 
    1.4131112112132978E+01 
    1.3814772581642476E+01 
    1.0977320241531567E+01 
    1.9908826495298342E+01 
    2.0961916734599860E+01 
    7.9244644437465590E+00 
    1.4720509797605454E+01 
    1.1151120839617654E+01 
    9.3822065949408060E+00 
    1.9519525536202337E+01 
    2.0073010364951369E+01 
    1.9860562028868426E+01 
    1.3000603249125948E+01 
    7.7881279750328565E+00 
    1.2725939011812791E+01 
    1.0038115053150429E+01 
    1.8898505495333399E+01 
    1.4106152758161445E+01 
    1.3997089085098455E+01 
    1.9757423255585902E+01 
    1.3453051603105157E+01 
    5.3681881425659106E-01 
    1.9500684822556298E+01 
    2.0024711283812408E+01 
    2.1006039079283827E+01 
    9.0446194955945067E+00 
    1.9376067989647545E+01 
    2.1013300339299978E+01 
    1.4357549674739809E+01 
    1.4317721650167115E+01 
    9.8493803168971414E+00 
    1.4092413346263497E+01 
    4.5592970325344506E+00 
    1.2734677271444648E+01 
    1.4074653297441703E+01 
    2.1065986776012160E+01 
    2.0930401026624864E+01 
    1.9539021906537275E+01 
    1.0832180156989370E+01 
    1.9596504795488350E+01 
    1.1120282168585611E+00 
    1.4111311962829586E+01 
    2.0741635806539445E+01 
    2.0342079486304801E+01 
    1.9503046921846707E+01 
    1.5159856305605516E+01 
    1.9532573074455122E+01 
    1.3017386047830028E+01 
    1.2407920175784655E+01 
    1.4277085531634938E+01 
    1.3994510803810369E+01 
    1.2789991125269708E+01 
    1.4443314719969727E+01 
    1.8571443151490669E+01 
    1.6438897864300259E+01 
    1.1036748793063975E+01 
    1.9770477083725957E+01 
    1.9639782476384966E+01 
    1.3759507087387014E+01 
    1.3574787732295249E+01 
    1.3687600078752642E+01 
    2.0881570329632151E+01 
    2.1250912041855308E+01 
    1.2737921625034568E+01 
    1.4274883369241737E+01 
    1.9155316762828718E+01 
    1.6249043792160776E+01 
    1.3665983195065600E+01 
    2.1214460454967256E+01 
    1.9770253691507094E+01 
    1.2569741338233271E+01 
    2.0473172254974742E+01 
    1.4740005251524037E+01 
    1.9335063403392862E+01 
    2.1086828077717495E+01 
    1.4804988055951421E+01 
    8.9753750749875731E+00 
    1.4295417268964240E+01 
    2.0942169772154081E+01 
    2.1271480312881071E+01 
    1.2767036606369720E+01 
    1.4220300777528626E+01 
    2.1328874179271267E+01 
    1.4070543215202488E+01 
    1.3572361598248046E+01 
    1.6832001168398417E+01 
    8.6113206700415468E+00 
    1.2443870464403435E+01 
    1.4215829009826702E+01 
    1.4888716722019227E+01 
    2.3124246353118156E+01 
    1.0658755421225978E+01 
    1.4283707290623786E+01 
    1.9469742796744747E+01 
    1.9986706224893869E+01 
    9.3529798633979482E+00 
    1.3912817613392209E+01 
    1.4254080260994796E+01 
    2.0028232422767420E+01 
    1.4237505514103518E+01 
    1.9889664104973125E+01 
    5.6381344748418192E+00 
    9.1159955868626756E+00 
    1.4529531584217329E+01 
    2.0202143552059756E+01 
    1.2688685567846722E+01 
    1.3451014223868238E+01 
    1.4207460246376138E+01 
    1.3527327052801352E+01 
    1.5981689508661427E+01 
    1.3096837054413117E+01 
    1.2578765131255302E+01 
    9.7785863522177774E+00 
    1.6892359217965964E+01 
    1.4324374281578645E+01 
    2.0769148038679351E+01 
    1.2184961537603261E+01 
    1.3787679124574703E+01 
    1.9780098737871207E+01 
    1.1482847430907841E+01 
    2.0417365074909920E+01 
    1.4146455394786768E+01 
    1.3699592819938401E+01 
    1.9994244561335652E+01 
    1.4309394802760798E+01 
    2.1091102859539976E+01 
    1.6865046571777533E+01 
    1.8302391990678533E+01 
    2.1029006260709522E+01 
    1.0680745548657514E+01 
    1.4552209335028099E+01 
    2.0001336308218711E+01 
    4.2071373289649374E+00 
    1.4416374182130564E+01 
    2.0982181879081335E+01 
    1.3732866308708585E+01 
    1.5703209500971862E+01 
    9.2160454649906089E+00 
    1.9478512239788834E+01 
    2.3692763246350658E+01 
    1.7532680736091365E+01 
    1.3736923942604045E+01 
    1.2295095651438910E+01 
    1.5254163324740762E+01 
    1.4164787821638079E+01 
    9.4878530602703375E+00 
    2.1030311878897333E+01 
    1.9940492407896304E+01 
    1.9473201224306766E+01 
    1.4884564609700325E+01 
    1.2519023951503797E+01 
    1.3990523843895778E+01 
    2.0503962593384358E+01 
    1.2887827295370535E+01 
    1.4315610978140532E+01 
    1.3119312224827356E+01 
    1.6606585721752143E+01 
    2.3679233948179274E+01 
    1.9455006845038636E+01 
    1.2345590545750492E+01 
    2.0282942500418784E+01 
    2.0146844060560362E+01 
    2.0255207779460171E+01 
    2.1593197012053434E+01 
    2.2269304073402697E+01 
    2.0305146501273367E+01 
    1.4265458725198108E+01 
    1.5456788350719473E+01 
    2.0059382764253076E+01 
    2.0758677207639664E+01 
    9.9442730743442791E+00 
    1.9499332438383416E+01 
    2.0440261079528543E+01 
    9.6570302688261211E+00 
    2.1519803037407897E+01 
    2.1460423571214122E+01 
    1.8990515700809535E+01 
    1.4633564026502581E+01 
    3.7125202124552641E+00 
    2.0990447961535430E+01 
    1.4459951261271659E+01 
    2.1172926716203737E+01 
    1.3638756988036029E+01 
    2.0689470884681505E+01 
    1.3904830289129375E+00 
    1.8292455286710677E+01 
    1.3633745418396156E+01 
    1.2470626427971208E+01 
    1.2147958447740132E+01 
    1.4110417819861425E+01 
    1.5492039005564703E+01 
    1.4881959449082604E+01 
    9.8835557164290151E+00 
    2.0766517476386632E+01 
    2.0035527604580668E+01 
    1.6402240215735617E+01 
    1.4519253229661036E+01 
    2.1354566960407597E+00 
    1.1188337837849325E+01 
    7.6913152855579048E+00 
    2.1029837222702824E+01 
    1.5852542284911971E+01 
    1.9947076314780396E+01 
    2.0128071116554480E+01 
    1.2990053590439432E+01 
    1.6538093678203147E+01 
    1.9452653747844685E+01 
    2.1440152542516461E+01 
    9.2122411307028447E+00 
    1.7639545261061187E+01 
    1.4826741877042169E+01 
    8.1932618238904436E+00 
    1.2986878932300611E+01 
    1.7280418231003214E+01 
    2.0074215603295443E+01 
    1.4164095588470435E+01 
    2.0226119376736630E+01 
    1.9900622394153810E+01 
    1.9830142785512304E+01 
    1.3992879631992318E+01 
    1.2346249478978518E+01 
    1.9486762763492351E+01 
    1.2555275462634540E+01 
    1.4249428232907787E+01 
    1.2313208738259076E+01 
    1.4269553721899543E+01 
    2.0141622900018326E+01 
    8.5975669334592020E+00 
    1.2859032296106761E+01 
    2.0907428836120616E+01 
    1.3998231986572589E+01 
    1.5720425385771325E+01 
    8.8169221148854717E+00 
    1.2653079309190835E+01 
    1.9868576371366292E+01 
    2.0301641600445052E+01 
    7.2269437188827563E+00 
    1.4018457539266020E+01 
    1.2354358864172925E+01 
    2.1982816931024072E+01 
    2.1284647091784983E+01 
    2.2308479142292040E+01 
    1.4039936180596401E+01 
    2.0102794014870895E+01 
    1.9354375055233511E+01 
    1.3869498225063078E+01 
    1.9471751111837154E+01 
    1.4519795979122017E+01 
    8.2653822268077306E+00 
    1.4479858339078557E+01 
    2.0898626191809957E+01 
    1.9465644633866180E+01 
    9.3409154068408196E+00 
    1.9512478464257185E+01 
    1.5527073467474787E+01 
    1.4389441040095397E+01 
    1.3823969762304134E+01 
    1.9221176209623444E+01 
    1.5049071948180551E+01 
    1.9493658415533822E+01 
    1.4033994495242871E+01 
    8.5012257551489547E+00 
    1.4337951059894483E+01 
    1.2156262724118182E+01 
    1.7566283737314478E+01 
    2.1153149709019218E+01 
    1.9487164104149020E+01 
    2.0973859247359382E+01 
    1.3926340149161549E+01 
    9.0972543392720020E+00 
    9.2207137452244918E+00 
    1.4627085383343902E+01 
    1.4214920163309312E+01 
    2.1282918572288403E+00 
    1.8597048158620591E+01 
    2.1640721985981884E+01 
    1.3661885290675009E+01 
    8.6640863254611631E+00 
    1.6399803438409943E+01 
    1.9505627208059323E+01 
    1.0318153227596328E+01 
    6.9685844513804716E+00 
    1.4203160585812112E+01 
    1.9625514074125800E+01 
    2.0651183025360435E+01 
    2.0338996155434845E+01 
    2.0304707074488377E+01 
    1.0023022996702153E+01 
    1.4384338821915463E+01 
    1.8930269803825002E+01 
    1.0929025998495346E+01 
    2.0052587777664911E+01 
    1.6838188527263931E+01 
    9.3566604675130307E+00 
    1.9605284105216114E+01 
    2.1076899928749729E+01 
    1.9720008572453310E+01 
    9.9209333747991160E+00 
    1.4270356640610022E+01 
    1.0943344070961485E+01 
    1.3425974777875457E+01 
    1.9496298011212463E+01 
    1.9478146354071356E+01 
    9.9891489985822197E+00 
    2.0752536440284835E+01 
    1.4940026352388422E+01 
    1.9540404360664219E+01 
    2.0808176009505754E+01 
    1.9515446956178689E+01 
    1.7874340985556064E+01 
    2.2062823052354979E+01 
    1.3586052250791028E+01 
    2.0930259805522354E+01 
    1.9567842159906206E+01 
    2.1034358804099352E+01 
    2.0744577288441928E+01 
    1.3722956863608330E+01 
    1.4117679639736123E+01 
    1.3650601514076786E+01 
    1.7137071412293171E+01 
    5.6640564443183878E+00 
    1.4545287551837923E+01 
    2.2213157662720910E+01 
    1.4525761626895356E+01 
    1.4773710037689213E+01 
    2.0997128433519745E+01 
    2.1297154223004625E+01 
    1.3447841606809677E+01 
    1.9518082863033545E+01 
    1.9475715508825232E+01 
    1.4756967284749177E+01 
    2.0677548053215549E+01 
    9.8843567384927606E+00 
    6.3082591876225891E+00 
    1.5134212507886675E+01 
    1.4540985103823738E+01 
    1.9468675539652605E+01 
    9.3314209382767483E+00 
    2.0239626379164363E+01 
    6.4482396516716944E+00 
    1.4467070599481096E+01 
    1.3724893590409600E+01 
    1.4244492535325447E+01 
    2.3735272690473533E+01 
    5.4975963329772304E+00 
    1.4438445481440080E+01 
    1.7219191984436659E+01 
    1.3798446775079329E+01 
    1.0921402434351528E+01 
    2.0485666510500192E+01 
    2.3224823708361818E+01 
    2.0665742649277803E+01 
    1.4358657729026831E+01 
    8.1643268087081751E+00 
    2.3057234912965512E+01 
    2.0019904807239953E+01 
    1.0314934058550401E+01 
    1.3927882492226319E+01 
    2.1570537158236011E+01 
    4.6812767520571157E+00 
    1.4609888771755598E+01 
    2.0722014182508683E+01 
    1.4263235778339542E+01 
    1.2309461659130246E+01 
    1.4489951432943919E+01 
    1.9002149854427682E+01 
    1.4244294038533711E+01 
    7.2608566380093045E+00 
    1.3742856990034045E+00 
    1.0420935280010294E+01 
    2.1869620888178947E+01 
    1.3649583391919165E+01 
    1.6094062056134753E+01 
    1.5444699652519869E+01 
    1.7645524324875399E+01 
    1.4278390563181102E+01 
    1.9886802098595485E+01 
    2.3751156793520249E+01 
    1.6723375601017256E+01 
    2.0891163149325433E+01 
    8.0564455565279947E-01 
    1.9479793574154009E+01 
    7.9681588601496047E+00 
    2.2414868595091942E+01 
    1.4456091685499601E+01 
    1.2607328384067657E+01 
    1.1167279547990777E+01 
    7.6361439022914510E+00 
    1.5755223013436142E+01 
    1.1101598607203400E+01 
    1.7417707782991947E+01 
    3.1306052824732520E+00 
    1.5577074485411835E+01 
    1.9338988975565300E+01 
    8.3729397869654729E+00 
    2.0114212832917282E+01 
    2.2136550780633723E+01 
    1.9943313316649977E+01 
    1.4276265760560891E+01 
    1.4236890561259878E+01 
    1.4446700752194102E+01 
    8.2815458869891856E+00 
    1.3274743847884036E+01 
    1.3054049799652022E+01 
    1.4432423935572047E+01 
    1.3555187891294104E+01 
    1.0372906611114416E+00 
    9.1135019461677178E+00 
    1.4068949455483857E+01 
    1.4399026696372804E+01 
    1.7918265612485563E+01 
    3.0725862898257321E+00 
    1.4703246319122941E+01 
    1.4550293594004540E+01 
    5.2894174747869966E+00 
    1.9743824666792641E+01 
    1.2581904065944547E+01 
    1.4388476945570906E+01 
    2.0017975805073856E+01 
    7.6613723285301747E+00 
    1.9886007563855948E+01 
    1.2755999190446193E+01 
    1.3977135226477277E+00 
    1.3732280366328524E+01 
    2.0813679670670272E+01 
    1.9483791648328250E+01 
    1.9513991878705916E+01 
    1.4891283782660492E+01 
    1.4470345357594566E+01 
    1.2562138023710835E+01 
    9.9051974913863567E+00 
    2.0184810007908403E+01 
    1.3920053609994973E+01 
    9.5794376630099691E+00 
    1.9505582549771219E+01 
    2.0501459693025328E+01 
    1.4657465397301145E+01 
    1.4053861570702104E+01 
    2.3612517465264691E+01 
    1.4758256872194213E+01 
    2.0197715869545739E+01 
    1.1915098175652652E+01 
    2.3780990842720893E+01 
    9.1681336464811825E+00 
    1.3097595080116934E+01 
    1.0373268956802180E+01 
    1.5068431438636209E+01 
    1.2082668666061368E+01 
    2.3763024903523931E+01 
    1.4822614299358030E+01 
    1.9004345891275861E+01 
    9.4251498434756460E+00 
    1.4271091911008721E+01 
    1.9972616983042776E+01 
    1.2140834834954948E+01 
    1.0347690426725210E+01 
    1.6023377784989734E+01 
    2.0194834908304792E+01 
    1.0171814788441278E+01 
    1.3755050455832279E+01 
    1.4099973468555648E+01 
    1.9439591748545585E+01 
    1.3820763356137807E+01 
    2.0252028120130841E+01 
    2.1074078801622026E+01 
    1.2594737230805977E+01 
    1.2338038193959996E+01 
    1.1106876270260996E+01 
    1.9653587487182538E+01 
    1.4576322350966045E+01 
    2.3270305593970882E+01 
    1.8097104649250259E+01 
    1.9911965343155412E+01 
    2.2906341536085954E+01 
    2.2144537801679036E+01 
    1.4324013806307843E+01 
    1.4412355147829732E+01 
    1.9010048819525618E+01 
    1.9539624811365819E+01 
    2.0431266155729272E+01 
    2.0050224479003447E+01 
    2.3640536318638109E+01 
    1.4757608784402112E+01 
    1.2748924423349219E+01 
    1.4726958337011810E+01 
    2.0951339263799532E+01 
    1.4430375497860108E+01 
    8.2305939476428751E+00 
    1.4254772259680871E+01 
    2.1533503091471008E+01 
    1.4596836338273969E+01 
    1.2759686922459943E+01 
    1.4035414480194277E+01 
    2.1675038652846581E+01 
    1.9694161080680466E+01 
    1.2050542434252625E+01 
    2.1846757156199800E+01 
    1.4355683569829258E+01 
    2.0394733427913000E+01 
    2.1689042923079896E+01 
    1.5203172630117365E+01 
    7.6780329525046023E+00 
    1.5796855219790675E+01 
    7.9371222365943943E+00 
    1.4486465692514095E+01 
    1.4269611441651506E+01 
    1.6625517660030269E+01 
    8.3979672565903680E+00 
    1.7670693114607353E+01 
    1.4285981309030623E+01 
    2.0035362973255882E+01 
    1.5377013597787405E+01 
    1.1654033769318966E+01 
    1.3865205534465336E+01 
    1.5090890729417783E+01 
    1.4896383223930776E+01 
    2.1168156271443717E+01 
    1.2171201797094849E+01 
    1.1956500023716892E+01 
    8.8290861018630071E+00 
    2.0457842093450950E+01 
    1.3921366090587030E+01 
    1.9351830394148617E+01 
    1.4234291481404918E+01 
    9.6596434031274789E+00 
    1.9713376409483800E+01 
    1.4209663921670250E+01 
    1.0568818025784017E+01 
    1.1233642585101999E+01 
    1.1651845427452097E+01 
    2.0081991984167406E+01 
    1.4435032919129922E+01 
    2.0907046837459106E+01 
    1.4167813858508651E+01 
    1.4101805409664729E+01 
    1.3648212199742112E+01 
    1.9841664164633201E+01 
    1.4003294634420499E+01 
    1.1719575806306407E+01 
    2.2133890565570660E+01 
    1.9962013729940821E+01 
    9.6204812269334070E+00 
    3.8645482531086115E+00 
    1.4421565433360875E+01 
    1.3443197973733263E+01 
    1.2334862184997496E+01 
    1.3379646910323475E+01 
    1.9790599106525484E+01 
    1.4032373668575303E+01 
    1.2804790066421896E+01 
    1.9574408445620172E+01 
    9.5231301436944484E+00 
    1.8955813066821051E+01 
    1.2895797423615004E+01 
    1.1536493738006667E+01 
    1.2457558870086123E+01 
    2.0509350555615296E+01 
    1.4246962752629686E+01 
    1.4256834626785380E+01 
    8.5275817357878054E+00 
    9.2340165524232862E+00 
    1.7985577331843629E+01 
    1.4268042612837917E+01 
    1.4473276865465616E+01 
    2.1833745427669392E+01 
    1.1953894086579018E+01 
    1.4281878942010964E+01 
    9.8939911888529792E+00 
    1.0249771713599669E+01 
    1.9784877456573600E+01 
    1.3847043114661698E+01 
    1.0205857871721252E+01 
    1.4888042754874922E+01 
    1.4173426011593561E+01 
    1.9808604363600534E+01 
    2.1949901440678957E+01 
    1.4743160341491970E+00 
    1.4427957549004550E+01 
    1.4539596604385956E+01 
    1.9933440405130774E+01 
    1.3823944044255162E+01 
    1.4214526736003300E+01 
    2.1247754906350011E+01 
    1.2505347105545665E+01 
    1.0298223839733717E+01 
    1.6989799629488786E+01 
    1.9504356760584113E+01 
    2.1027891490674413E+01 
    2.1404097535682435E+01 
    1.4221529149704761E+01 
    1.4416532667221098E+01 
    1.5821064408846938E+01 
    9.1321410340178524E+00 
    1.9702570835573177E+01 
    1.1124532522588400E+01 
    9.5075233388198193E+00 
    1.7651070230479672E+01 
    1.6587511457569757E+01 
    9.3178680140879404E+00 
    1.9558249835842997E+01 
    2.1010184389660523E+01 
    1.4778753273609489E+01 
    2.2078432392776250E+01 
    1.9607655565498472E+01 
    1.3890049801117186E+01 
    2.0588253561284315E+01 
    1.0267034746327953E+01 
    1.9529614955659472E+01 
    1.4426428275562456E+01 
    1.4378000817651470E+01 
    2.2054693011270448E+01 
    1.3974888619158346E+01 
    1.7267055430140733E+01 
    1.2425840505522419E+01 
    2.1175296322935612E+01 
    1.9358486516808345E+01 
    1.2963846596181384E+01 
    1.9474542895654473E+01 
    1.2984491057998129E+01 
    1.4220635933685532E+01 
    2.0953550573025780E+01 
    2.0047842481761478E+01 
    2.1013963801953384E+01 
    1.9937109706717749E+01 
    1.3286523961452762E+01 
    1.3561308922878466E+01 
    2.1025326325263059E+01 
    1.3732122421892855E+01 
    1.9190861716003173E+01 
    1.3948585873563959E+01 
    5.7136287841882192E+00 
    9.6166414242158620E+00 
    8.8987415607466165E+00 
    2.0959006641020316E+01 
    2.1960925624474921E+01 
    1.9497206558861826E+01 
    1.6269219672244180E+01 
    1.9913558543015277E+01 
    1.9570043182877271E+01 
    2.0449563572607051E+01 
    8.2241705036971311E+00 
    5.3211895967776339E+00 
    1.5971858627249668E+01 
    1.4021947215387595E+01 
    1.9800499878782311E+01 
    1.9796596145291616E+01 
    1.4562132784914937E+01 
    1.9853480810926790E+01 
    1.4409049243655154E+01 
    1.4307666836807151E+01 
    7.4156154490048278E+00 
    5.2910129004399202E+00 
    2.1669096825177537E+01 
    1.0979634533866681E+01 
    1.2886758051665973E+01 
    1.4443852005665258E+01 
    2.3616883916369815E+01 
    1.4551119065875705E+01 
    1.4807133735902271E+01 
    6.0163294432632179E+00 
    1.4550948087148655E+01 
    1.4567609877217405E+01 
    2.0158151417279445E+01 
    1.2465953161466992E+01 
    1.3667928735353305E+01 
    2.1886244006587891E+01 
    1.4438784283625623E+01 
    1.9519875004728885E+01 
    1.9837813943904703E+01 
    1.7354403495046387E+01 
    1.2043806570229844E+01 
    1.9934486438345466E+01 
    1.4183119800531024E+01 
    1.9753658864278894E+01 
    1.9412417669043201E+01 
    2.0985962457919062E+01 
    1.9937246644302739E+01 
    1.8328276742019380E+01 
    1.4423867010810772E+01 
    9.2474175857762511E+00 
    2.3471933359583044E+01 
    1.1362882460703108E+01 
    2.0905694545443893E+01 
    1.4420574630659086E+01 
    1.2032405840773501E+01 
    6.9770824196092347E+00 
    1.4611129028167907E+01 
    1.9917044946585126E+01 
    1.9899733368238447E+01 
    1.4197324985446075E+01 
    1.4413187844265927E+01 
    2.2138687565554694E+01 
    2.1328221567152926E+01 
    1.4574999964455021E+01 
    4.9522873915496177E+00 
    1.8200024304381255E+01 
    2.3758175638831531E+01 
    1.4428070354775025E+01 
    1.6788771648405355E+01 
    1.3823622067407412E+01 
    2.3303733647195806E+01 
    2.1434737346642805E+01 
    2.1118384983565456E+01 
    1.4601834841686390E+01 
    6.5093242253829366E+00 
    1.3770968155786116E+01 
    1.3852752960736392E+01 
    1.3900850184007622E+01 
    5.4067819333863572E+00 