# vtk DataFile Version 2.0
Pressure Field Data 
ASCII 
DATASET UNSTRUCTURED_GRID 

POINTS 2860 double 

    0.0000000000000000E+00     0.0000000000000000E+00     0.0000000000000000E+00 
    1.0000000000000000E+00     0.0000000000000000E+00     0.0000000000000000E+00 
    1.0000000000000000E+00     1.0000000000000000E+00     0.0000000000000000E+00 
    0.0000000000000000E+00     1.0000000000000000E+00     0.0000000000000000E+00 
    2.5000000000000000E-01     2.5000000000000000E-01     0.0000000000000000E+00 
    7.5000000000000000E-01     2.5000000000000000E-01     0.0000000000000000E+00 
    7.5000000000000000E-01     7.5000000000000000E-01     0.0000000000000000E+00 
    2.5000000000000000E-01     7.5000000000000000E-01     0.0000000000000000E+00 
    3.1249999999942091E-02     0.0000000000000000E+00     0.0000000000000000E+00 
    6.2499999999873469E-02     0.0000000000000000E+00     0.0000000000000000E+00 
    9.3749999999826514E-02     0.0000000000000000E+00     0.0000000000000000E+00 
    1.2499999999977961E-01     0.0000000000000000E+00     0.0000000000000000E+00 
    1.5624999999968961E-01     0.0000000000000000E+00     0.0000000000000000E+00 
    1.8749999999959971E-01     0.0000000000000000E+00     0.0000000000000000E+00 
    2.1874999999950970E-01     0.0000000000000000E+00     0.0000000000000000E+00 
    2.4999999999941969E-01     0.0000000000000000E+00     0.0000000000000000E+00 
    2.8124999999932920E-01     0.0000000000000000E+00     0.0000000000000000E+00 
    3.1249999999923850E-01     0.0000000000000000E+00     0.0000000000000000E+00 
    3.4374999999914790E-01     0.0000000000000000E+00     0.0000000000000000E+00 
    3.7499999999905720E-01     0.0000000000000000E+00     0.0000000000000000E+00 
    4.0624999999896660E-01     0.0000000000000000E+00     0.0000000000000000E+00 
    4.3749999999887590E-01     0.0000000000000000E+00     0.0000000000000000E+00 
    4.6874999999878530E-01     0.0000000000000000E+00     0.0000000000000000E+00 
    4.9999999999869471E-01     0.0000000000000000E+00     0.0000000000000000E+00 
    5.3124999999877620E-01     0.0000000000000000E+00     0.0000000000000000E+00 
    5.6249999999885780E-01     0.0000000000000000E+00     0.0000000000000000E+00 
    5.9374999999893940E-01     0.0000000000000000E+00     0.0000000000000000E+00 
    6.2499999999902101E-01     0.0000000000000000E+00     0.0000000000000000E+00 
    6.5624999999910261E-01     0.0000000000000000E+00     0.0000000000000000E+00 
    6.8749999999918421E-01     0.0000000000000000E+00     0.0000000000000000E+00 
    7.1874999999926570E-01     0.0000000000000000E+00     0.0000000000000000E+00 
    7.4999999999934730E-01     0.0000000000000000E+00     0.0000000000000000E+00 
    7.8124999999942890E-01     0.0000000000000000E+00     0.0000000000000000E+00 
    8.1249999999951039E-01     0.0000000000000000E+00     0.0000000000000000E+00 
    8.4374999999959199E-01     0.0000000000000000E+00     0.0000000000000000E+00 
    8.7499999999967359E-01     0.0000000000000000E+00     0.0000000000000000E+00 
    9.0624999999975520E-01     0.0000000000000000E+00     0.0000000000000000E+00 
    9.3749999999983680E-01     0.0000000000000000E+00     0.0000000000000000E+00 
    9.6874999999991840E-01     0.0000000000000000E+00     0.0000000000000000E+00 
    1.0000000000000000E+00     3.1249999999942091E-02     0.0000000000000000E+00 
    1.0000000000000000E+00     6.2499999999873469E-02     0.0000000000000000E+00 
    1.0000000000000000E+00     9.3749999999826514E-02     0.0000000000000000E+00 
    1.0000000000000000E+00     1.2499999999977961E-01     0.0000000000000000E+00 
    1.0000000000000000E+00     1.5624999999968961E-01     0.0000000000000000E+00 
    1.0000000000000000E+00     1.8749999999959971E-01     0.0000000000000000E+00 
    1.0000000000000000E+00     2.1874999999950970E-01     0.0000000000000000E+00 
    1.0000000000000000E+00     2.4999999999941969E-01     0.0000000000000000E+00 
    1.0000000000000000E+00     2.8124999999932920E-01     0.0000000000000000E+00 
    1.0000000000000000E+00     3.1249999999923850E-01     0.0000000000000000E+00 
    1.0000000000000000E+00     3.4374999999914790E-01     0.0000000000000000E+00 
    1.0000000000000000E+00     3.7499999999905720E-01     0.0000000000000000E+00 
    1.0000000000000000E+00     4.0624999999896660E-01     0.0000000000000000E+00 
    1.0000000000000000E+00     4.3749999999887590E-01     0.0000000000000000E+00 
    1.0000000000000000E+00     4.6874999999878530E-01     0.0000000000000000E+00 
    1.0000000000000000E+00     4.9999999999869471E-01     0.0000000000000000E+00 
    1.0000000000000000E+00     5.3124999999877620E-01     0.0000000000000000E+00 
    1.0000000000000000E+00     5.6249999999885780E-01     0.0000000000000000E+00 
    1.0000000000000000E+00     5.9374999999893940E-01     0.0000000000000000E+00 
    1.0000000000000000E+00     6.2499999999902101E-01     0.0000000000000000E+00 
    1.0000000000000000E+00     6.5624999999910261E-01     0.0000000000000000E+00 
    1.0000000000000000E+00     6.8749999999918421E-01     0.0000000000000000E+00 
    1.0000000000000000E+00     7.1874999999926570E-01     0.0000000000000000E+00 
    1.0000000000000000E+00     7.4999999999934730E-01     0.0000000000000000E+00 
    1.0000000000000000E+00     7.8124999999942890E-01     0.0000000000000000E+00 
    1.0000000000000000E+00     8.1249999999951039E-01     0.0000000000000000E+00 
    1.0000000000000000E+00     8.4374999999959199E-01     0.0000000000000000E+00 
    1.0000000000000000E+00     8.7499999999967359E-01     0.0000000000000000E+00 
    1.0000000000000000E+00     9.0624999999975520E-01     0.0000000000000000E+00 
    1.0000000000000000E+00     9.3749999999983680E-01     0.0000000000000000E+00 
    1.0000000000000000E+00     9.6874999999991840E-01     0.0000000000000000E+00 
    9.6875000000003686E-01     1.0000000000000000E+00     0.0000000000000000E+00 
    9.3750000000011691E-01     1.0000000000000000E+00     0.0000000000000000E+00 
    9.0625000000015765E-01     1.0000000000000000E+00     0.0000000000000000E+00 
    8.7500000000017863E-01     1.0000000000000000E+00     0.0000000000000000E+00 
    8.4375000000028044E-01     1.0000000000000000E+00     0.0000000000000000E+00 
    8.1250000000040856E-01     1.0000000000000000E+00     0.0000000000000000E+00 
    7.8125000000054956E-01     1.0000000000000000E+00     0.0000000000000000E+00 
    7.5000000000066480E-01     1.0000000000000000E+00     0.0000000000000000E+00 
    7.1875000000086831E-01     1.0000000000000000E+00     0.0000000000000000E+00 
    6.8750000000102829E-01     1.0000000000000000E+00     0.0000000000000000E+00 
    6.5625000000114431E-01     1.0000000000000000E+00     0.0000000000000000E+00 
    6.2500000000129829E-01     1.0000000000000000E+00     0.0000000000000000E+00 
    5.9375000000147926E-01     1.0000000000000000E+00     0.0000000000000000E+00 
    5.6250000000168354E-01     1.0000000000000000E+00     0.0000000000000000E+00 
    5.3125000000188671E-01     1.0000000000000000E+00     0.0000000000000000E+00 
    5.0000000000205835E-01     1.0000000000000000E+00     0.0000000000000000E+00 
    4.6875000000192979E-01     1.0000000000000000E+00     0.0000000000000000E+00 
    4.3750000000180111E-01     1.0000000000000000E+00     0.0000000000000000E+00 
    4.0625000000167238E-01     1.0000000000000000E+00     0.0000000000000000E+00 
    3.7500000000154382E-01     1.0000000000000000E+00     0.0000000000000000E+00 
    3.4375000000141509E-01     1.0000000000000000E+00     0.0000000000000000E+00 
    3.1250000000128642E-01     1.0000000000000000E+00     0.0000000000000000E+00 
    2.8125000000115769E-01     1.0000000000000000E+00     0.0000000000000000E+00 
    2.5000000000102918E-01     1.0000000000000000E+00     0.0000000000000000E+00 
    2.1875000000090050E-01     1.0000000000000000E+00     0.0000000000000000E+00 
    1.8750000000077180E-01     1.0000000000000000E+00     0.0000000000000000E+00 
    1.5625000000064329E-01     1.0000000000000000E+00     0.0000000000000000E+00 
    1.2500000000051459E-01     1.0000000000000000E+00     0.0000000000000000E+00 
    9.3750000000385914E-02     1.0000000000000000E+00     0.0000000000000000E+00 
    6.2500000000257239E-02     1.0000000000000000E+00     0.0000000000000000E+00 
    3.1250000000128557E-02     1.0000000000000000E+00     0.0000000000000000E+00 
    0.0000000000000000E+00     9.6875000000003686E-01     0.0000000000000000E+00 
    0.0000000000000000E+00     9.3750000000011691E-01     0.0000000000000000E+00 
    0.0000000000000000E+00     9.0625000000015765E-01     0.0000000000000000E+00 
    0.0000000000000000E+00     8.7500000000017863E-01     0.0000000000000000E+00 
    0.0000000000000000E+00     8.4375000000028044E-01     0.0000000000000000E+00 
    0.0000000000000000E+00     8.1250000000040856E-01     0.0000000000000000E+00 
    0.0000000000000000E+00     7.8125000000054956E-01     0.0000000000000000E+00 
    0.0000000000000000E+00     7.5000000000066480E-01     0.0000000000000000E+00 
    0.0000000000000000E+00     7.1875000000086831E-01     0.0000000000000000E+00 
    0.0000000000000000E+00     6.8750000000102829E-01     0.0000000000000000E+00 
    0.0000000000000000E+00     6.5625000000114431E-01     0.0000000000000000E+00 
    0.0000000000000000E+00     6.2500000000129829E-01     0.0000000000000000E+00 
    0.0000000000000000E+00     5.9375000000147926E-01     0.0000000000000000E+00 
    0.0000000000000000E+00     5.6250000000168354E-01     0.0000000000000000E+00 
    0.0000000000000000E+00     5.3125000000188671E-01     0.0000000000000000E+00 
    0.0000000000000000E+00     5.0000000000205835E-01     0.0000000000000000E+00 
    0.0000000000000000E+00     4.6875000000192979E-01     0.0000000000000000E+00 
    0.0000000000000000E+00     4.3750000000180111E-01     0.0000000000000000E+00 
    0.0000000000000000E+00     4.0625000000167238E-01     0.0000000000000000E+00 
[...]
CELL_DATA 2795 
SCALARS Pressure double 1 
LOOKUP_TABLE default 

    6.6333330924485834E+00 
    1.5067704792114975E+01 
    1.0611622531450845E+01 
    1.0228175619127194E+01 
    8.1412187051398011E+00 
    1.4928738016622669E+01 
    1.5682059223245698E+01 
    5.9310697898025344E+00 
    1.1164490594325185E+01 
    8.5811245213439609E+00 
    7.3298962920151274E+00 
    1.4661215802396562E+01 
    1.4974695315584796E+01 
    1.4896496502003892E+01 
    9.8022232760873589E+00 
    5.8343631520186516E+00 
    9.4098593698423620E+00 
    7.8008668895923412E+00 
    1.4280434704276146E+01 
    1.0598406402392641E+01 
    1.0493712296150779E+01 
    1.4828337213943540E+01 
    9.9490770591166164E+00 
    3.8956969437762079E-01 
    1.4661857804855144E+01 
    1.4941066659267921E+01 
    1.5714044176463020E+01 
    7.0516080855511438E+00 
    1.4578060439219445E+01 
    1.5706970863988198E+01 
    1.0675919622600432E+01 
    1.0811330014867936E+01 
    7.6306456678156005E+00 
    1.0574387734586649E+01 
    3.4317622691418403E+00 
    9.4156212530529579E+00 
    1.0562404437538211E+01 
    1.5747591066914282E+01 
    1.5658232768632137E+01 
    1.4674526125032134E+01 
    8.0939597095565752E+00 
    1.4637275892348358E+01 
    8.1007639537899656E-01 
    1.0484103298664506E+01 
    1.5469515566127033E+01 
    1.5284730104781573E+01 
    1.4650094056902475E+01 
    1.1556013645867955E+01 
    1.4720933210081796E+01 
    9.6251056219217190E+00 
    9.1734017776171015E+00 
    1.0777041930908689E+01 
    1.0372429532650095E+01 
    9.4650844994128960E+00 
    1.0745455076063610E+01 
    1.4060137670534901E+01 
    1.2576433335894142E+01 
    8.1849654801112912E+00 
    1.4833039555302323E+01 
    1.4752012216276411E+01 
    1.0209050456152049E+01 
    1.0211603623746266E+01 
    1.0126341964289340E+01 
    1.5606499755734506E+01 
    1.5868587465451885E+01 
    9.4210060468832904E+00 
    1.0775937488648964E+01 
    1.4532121518201802E+01 
    1.2423287107250344E+01 
    1.0260384729304056E+01 
    1.5876676042438444E+01 
    1.4779964533948805E+01 
    9.2902773428735710E+00 
    1.5393025777478243E+01 
    1.0981436307003589E+01 
    1.4508587283565557E+01 
    1.5758526219081110E+01 
    1.1047509850865522E+01 
    6.8350554221789253E+00 
    1.0794223342420839E+01 
    1.5667654134841387E+01 
    1.5906423162703527E+01 
    9.4367231012307826E+00 
    1.0714035012404000E+01 
    1.5952985527471299E+01 
    1.0563827581711427E+01 
    1.0039122651177141E+01 
    1.2869304199863640E+01 
    6.4932993947707134E+00 
    9.1972029185248552E+00 
    1.0712886521453260E+01 
    1.1331993225789844E+01 
    1.7447822078354925E+01 
    7.9135390588433721E+00 
    1.0783886832344196E+01 
    1.4627026874550845E+01 
    1.4924015697656305E+01 
    6.9787232579502199E+00 
    1.0432114463044543E+01 
    1.0743880043770679E+01 
    1.4945361589011279E+01 
    1.0741672812421630E+01 
    1.4874089634055874E+01 
    4.2464678893442285E+00 
    7.1276421441007107E+00 
    1.1005556433095672E+01 
    1.5075901671150605E+01 
    9.3793369868158223E+00 
    9.9794278173430939E+00 
    1.0723870940113784E+01 
    1.0003836520976181E+01 
    1.2145298369100868E+01 
    9.7103567225766643E+00 
    9.2988383807784096E+00 
    7.3943276760644121E+00 
    1.2636728920377120E+01 
    1.0814091943445879E+01 
    1.5515700858791657E+01 
    9.3039985575995132E+00 
    1.0208240654166930E+01 
    1.4767647417801538E+01 
    8.5319749294650720E+00 
    1.5231244103802803E+01 
    1.0639196847072704E+01 
    1.0135333362761223E+01 
    1.4926196445072378E+01 
    1.0806571932266403E+01 
    1.5770803742461320E+01 
    1.2884185435619003E+01 
    1.3897107986186924E+01 
    1.5731238650683007E+01 
    7.9294274899934178E+00 
    1.1033076296845838E+01 
    1.4925683289701064E+01 
    3.1792481611634535E+00 
    1.0723775069301373E+01 
    1.5696665888009855E+01 
    1.0164869932489385E+01 
    1.1742792530265824E+01 
    6.9762367334686708E+00 
    1.4624844956033041E+01 
    1.7946351001219092E+01 
    1.3384144416971468E+01 
    1.0164537324417280E+01 
    9.0928125617354709E+00 
    1.1390862511071781E+01 
    1.0656057047317482E+01 
    7.4071968544827627E+00 
    1.5727032960639846E+01 
    1.4984992627497332E+01 
    1.4628767464870714E+01 
    1.1346261168875390E+01 
    9.2603125861385003E+00 
    1.0491559809798309E+01 
    1.5422459516207425E+01 
    9.5251438386114078E+00 
    1.0656923589577017E+01 
    9.6990960377781974E+00 
    1.2362307184810437E+01 
    1.7934361615605543E+01 
    1.4620005395860799E+01 
    9.2440208251338518E+00 
    1.5126314703382004E+01 
    1.5033911852534914E+01 
    1.5116488854605558E+01 
    1.6156526817499934E+01 
    1.6711820315062784E+01 
    1.5281861677885122E+01 
    1.0767686851266838E+01 
    1.1595464998505962E+01 
    1.5103562522544928E+01 
    1.5528398118407260E+01 
    7.7296401975483278E+00 
    1.4649720705510443E+01 
    1.5383442638834032E+01 
    7.5272996898844609E+00 
    1.6075185840224840E+01 
    1.6052962111084167E+01 
    1.4353477834282682E+01 
    1.1111383878072571E+01 
    2.7990173273264047E+00 
    1.5697601038567928E+01 
    1.0941589763999437E+01 
    1.5821289806370062E+01 
    1.0092001810525364E+01 
    1.5527758470146024E+01 
    9.9676809248705556E-01 
    1.3914047077634747E+01 
    1.0257252094714291E+01 
    9.2166362753462980E+00 
    8.9833690113223081E+00 
    1.0608583760895701E+01 
    1.1773436217020876E+01 
    1.1081011731879729E+01 
    7.5240274262364268E+00 
    1.5522598078781257E+01 
    1.4950206899473562E+01 
    1.2555444165729043E+01 
    1.0998846877399254E+01 
    1.6225091405181939E+00 
    8.2924901610954240E+00 
    5.7797185800309272E+00 
    1.5717698559264083E+01 
    1.1882190843939455E+01 
    1.4996927348628796E+01 
    1.5019068477690887E+01 
    9.6069997376791321E+00 
    1.2488213144360991E+01 
    1.4624008083837104E+01 
    1.6034826922587207E+01 
    6.9275539358275715E+00 
    1.3226671378890417E+01 
    1.1096637157846404E+01 
    6.1704911207859494E+00 
    9.5999325434463927E+00 
    1.3131480565959800E+01 
    1.4979390676529782E+01 
    1.0661851348522115E+01 
    1.5093692004513453E+01 
    1.4850963244926101E+01 
    1.4797860228896598E+01 
    1.0497345192309552E+01 
    9.1486663241765758E+00 
    1.4636876268282933E+01 
    9.2842789541809783E+00 
    1.0747396735977309E+01 
    9.1017851586016789E+00 
    1.0602645629411285E+01 
    1.5028403925854780E+01 
    6.7050899777065309E+00 
    9.5038614220812665E+00 
    1.5629964752326536E+01 
    1.0508592327420777E+01 
    1.1779629077159710E+01 
    6.8792473344826295E+00 
    9.3516877380587022E+00 
    1.4828202631760407E+01 
    1.5151302057120327E+01 
    5.6134912812175806E+00 
    1.0515811007348718E+01 
    9.1514832773405743E+00 
    1.6471851984286474E+01 
    1.5914692052474232E+01 
    1.6740237331304179E+01 
    1.0535903107917425E+01 
    1.5000676434075658E+01 
    1.4578223789544021E+01 
    1.0403896739515595E+01 
    1.4629201465832626E+01 
    1.0998846170932602E+01 
    6.2648655463598635E+00 
    1.0800780851902903E+01 
    1.5614688239552949E+01 
    1.4625866285642864E+01 
    7.2928306570279275E+00 
    1.4657036129440717E+01 
    1.1790003587423765E+01 
    1.0703327696484065E+01 
    1.0241519247898927E+01 
    1.4485524380967925E+01 
    1.1232756103785322E+01 
    1.4642589211516542E+01 
    1.0415118589396675E+01 
    6.5021472360701784E+00 
    1.0818868122655335E+01 
    8.9947487000228339E+00 
    1.3388698793847016E+01 
    1.5820864160624572E+01 
    1.4635075787951871E+01 
    1.5690135776452362E+01 
    1.0454873107696777E+01 
    7.1029524116705876E+00 
    7.2029635093659259E+00 
    1.0891932551345644E+01 
    1.0722499906252553E+01 
    1.5501811098903011E+00 
    1.4110591425550398E+01 
    1.6186054312731553E+01 
    1.0106897669338393E+01 
    6.5092186866470403E+00 
    1.2314464607809905E+01 
    1.4655490903139098E+01 
    7.6753241714396019E+00 
    5.2193128216178239E+00 
    1.0701474405817823E+01 
    1.4735721576767883E+01 
    1.5423478164480965E+01 
    1.5308014689998307E+01 
    1.5154751193910256E+01 
    7.5254315565155405E+00 
    1.0697784223137798E+01 
    1.4157761467475678E+01 
    8.4249050178835141E+00 
    1.4961143044169811E+01 
    1.2754024882460712E+01 
    7.3111978710766898E+00 
    1.4766961639158783E+01 
    1.5726414833852866E+01 
    1.4789394978540983E+01 
    7.3908915607821504E+00 
    1.0772106630735498E+01 
    8.1144742686451803E+00 
    1.0174626316746496E+01 
    1.4646511585801267E+01 
    1.4634043708195517E+01 
    7.4335886623603802E+00 
    1.5568879215579077E+01 
    1.1329830328887242E+01 
    1.4667223244983560E+01 
    1.5535340031271669E+01 
    1.4654343388263182E+01 
    1.3643848530544167E+01 
    1.6528935097482531E+01 
    1.0057886614626590E+01 
    1.5658193630789484E+01 
    1.4695081803123500E+01 
    1.5733561159705873E+01 
    1.5561687826953250E+01 
    1.0162845599094132E+01 
    1.0602715167103534E+01 
    1.0097106822729245E+01 
    1.3114277067615044E+01 
    4.2613321318755384E+00 
    1.0826502382596040E+01 
    1.6657751723938130E+01 
    1.1001354175763181E+01 
    1.1199044237891094E+01 
    1.5705747519145321E+01 
    1.5943817941555718E+01 
    9.9783574549907943E+00 
    1.4661624257065567E+01 
    1.4629906713168433E+01 
    1.1185940213033653E+01 
    1.5514997915182455E+01 
    7.6783256812305654E+00 
    4.8934005272257322E+00 
    1.1482843839606847E+01 
    1.1016686878365800E+01 
    1.4636195532782697E+01 
    6.9572359798090977E+00 
    1.5220285217256492E+01 
    4.9805643716845651E+00 
    1.0948756253859402E+01 
    1.0190615843658779E+01 
    1.0748886516402585E+01 
    1.7986206546911049E+01 
    4.1365156479028666E+00 
    1.0741605783606753E+01 
    1.2849203477086720E+01 
    1.0353882051885124E+01 
    8.2404525690491184E+00 
    1.5338235588957440E+01 
    1.7536588391938086E+01 
    1.5494578032113781E+01 
    1.0679520677820321E+01 
    6.1296539781979051E+00 
    1.7386878124761431E+01 
    1.4939357062945891E+01 
    7.9254611195952496E+00 
    1.0320494201380605E+01 
    1.6139708036322659E+01 
    3.5211260414650036E+00 
    1.1069484667018896E+01 
    1.5461318418293327E+01 
    1.0762659580419799E+01 
    9.3915302634578843E+00 
    1.0782551084402748E+01 
    1.4380534581901191E+01 
    1.0744199628732757E+01 
    5.4505821951633733E+00 
    9.7023437208408592E-01 
    8.0463679135954234E+00 
    1.6366425901264247E+01 
    1.0096579912007936E+01 
    1.2086675994164073E+01 
    1.1542054103099687E+01 
    1.3429554918807161E+01 
    1.0775970385144918E+01 
    1.4844260244695386E+01 
    1.8000697355255870E+01 
    1.2772383783711183E+01 
    1.5629632055910376E+01 
    5.7940224573928500E-01 
    1.4636175708784545E+01 
    6.0639920612777694E+00 
    1.6830351452747649E+01 
    1.0755622417509974E+01 
    9.5559986503860337E+00 
    8.2747049151191927E+00 
    5.7132919090485599E+00 
    1.2042182245124961E+01 
    8.5208867721905808E+00 
    1.3276295043994104E+01 
    2.3495765264237729E+00 
    1.1826866297190024E+01 
    1.4564804873033163E+01 
    6.5419940649982840E+00 
    1.5141937678695189E+01 
    1.6624586013254387E+01 
    1.4971525201487420E+01 
    1.0615730769594990E+01 
    1.0743406949133638E+01 
    1.0748156461092970E+01 
    6.1931486837970819E+00 
    9.8149816113608015E+00 
    9.6494315667911721E+00 
    1.0736835749427694E+01 
    1.0023798835312842E+01 
    7.3444810294336882E-01 
    6.9833182876758384E+00 
    1.0443036864861870E+01 
    1.0710815873424600E+01 
    1.3645129768585853E+01 
    2.3168583810807406E+00 
    1.1143451928190618E+01 
    1.1021773360437894E+01 
    3.9817142486323731E+00 
    1.4825539583133772E+01 
    9.3060710215746809E+00 
    1.0877902633111621E+01 
    1.4936336191308268E+01 
    5.7400477297487553E+00 
    1.4953276878773515E+01 
    9.4279470271923831E+00 
    1.0613344981855668E+00 
    1.0162008608987300E+01 
    1.5581412850794409E+01 
    1.4635980509477676E+01 
    1.4655112291907187E+01 
    1.1101375218613759E+01 
    1.0951041232686443E+01 
    9.2833915787923083E+00 
    7.5761460320721383E+00 
    1.5051732725726840E+01 
    1.0316855959001774E+01 
    7.3747514014873143E+00 
    1.4650724518788255E+01 
    1.5378005324191561E+01 
    1.0916578782515932E+01 
    1.0555387766685676E+01 
    1.7877719364403166E+01 
    1.1186870683285933E+01 
    1.5068693398079354E+01 
    8.8256087106065220E+00 
    1.8029439260076867E+01 
    7.1610377860627343E+00 
    9.7123933294342457E+00 
    8.0189446389800523E+00 
    1.1429807122833202E+01 
    9.1770651987532812E+00 
    1.8012746028627795E+01 
    1.1237385586363768E+01 
    1.4320572140458200E+01 
    7.3646177529654473E+00 
    1.0772041795172168E+01 
    1.4903970513088399E+01 
    9.2137168206969395E+00 
    7.8473001988125812E+00 
    1.1953287349034632E+01 
    1.5137723289118654E+01 
    7.8923683855142741E+00 
    1.0212435698949651E+01 
    1.0586730190641950E+01 
    1.4610205500357678E+01 
    1.0379853129568964E+01 
    1.5114199634073803E+01 
    1.5763486396049005E+01 
    9.3118258518500330E+00 
    9.1264856829913672E+00 
    8.5487697362165598E+00 
    1.4758780101371807E+01 
    1.1035023077546057E+01 
    1.7576701297396273E+01 
    1.3800731236725630E+01 
    1.4861362273859759E+01 
    1.7257472556198440E+01 
    1.6632210826402154E+01 
    1.0818205285929366E+01 
    1.0721137909688501E+01 
    1.4385871962098312E+01 
    1.4676175534729941E+01 
    1.5233015809516482E+01 
    1.4960832815374907E+01 
    1.7899521134469762E+01 
    1.1186379486164055E+01 
    9.4200462009242543E+00 
    1.1179615247669469E+01 
    1.5673590945037160E+01 
    1.0914082123257469E+01 
    6.3909643493388737E+00 
    1.0599002800861836E+01 
    1.6105736507621781E+01 
    1.1059494830857886E+01 
    9.4311110694083986E+00 
    1.0528046937662307E+01 
    1.6220335558136885E+01 
    1.4696788368681240E+01 
    8.9678103670564937E+00 
    1.6361280967922529E+01 
    1.0847004318292285E+01 
    1.5222739551906752E+01 
    1.6234215105756611E+01 
    1.1409187951927983E+01 
    5.7470092289084631E+00 
    1.1885471920866207E+01 
    5.9507224454787933E+00 
    1.0965974327515566E+01 
    1.0765003832612596E+01 
    1.2526448474430030E+01 
    6.2913325126886050E+00 
    1.3298787162027311E+01 
    1.0784119670555713E+01 
    1.4950500963137973E+01 
    1.1431423490966989E+01 
    8.7965510439075025E+00 
    1.0398493527510579E+01 
    1.1262963811583212E+01 
    1.1296148170262212E+01 
    1.5809759891035778E+01 
    8.9973655625205495E+00 
    8.8435933250206364E+00 
    6.6164272536201860E+00 
    1.5256696538038055E+01 
    1.0440994047359538E+01 
    1.4478525029558817E+01 
    1.0735303386511202E+01 
    7.2347276952207249E+00 
    1.4727270072892303E+01 
    1.0711133743456069E+01 
    7.8811361105698809E+00 
    8.3433121304997790E+00 
    8.6361082890622676E+00 
    1.4982423551607772E+01 
    1.0738891428678645E+01 
    1.5641935498937752E+01 
    1.0670474521133029E+01 
    1.0609169744038349E+01 
    1.0127989444397969E+01 
    1.4814455232991229E+01 
    1.0525801854743984E+01 
    8.6776273595003506E+00 
    1.6620249531373442E+01 
    1.4899245498925815E+01 
    7.5012221524737628E+00 
    2.9204711715900040E+00 
    1.0728111679321739E+01 
    1.0108934000112518E+01 
    9.1166314005845877E+00 
    9.9223964145775305E+00 
    1.4851225671220117E+01 
    1.0424932842245315E+01 
    9.4768396790060407E+00 
    1.4699117962419246E+01 
    7.4351910412442317E+00 
    1.4344071065307149E+01 
    9.7608531950849411E+00 
    8.6451184999847701E+00 
    9.2052964090125506E+00 
    1.5311037261264380E+01 
    1.0751716015271741E+01 
    1.0759882166757420E+01 
    6.3704434029056864E+00 
    6.8844950699451770E+00 
    1.3636119693076962E+01 
    1.0769693516225054E+01 
    1.0769267533915494E+01 
    1.6346643700023066E+01 
    8.8478142624013643E+00 
    1.0781982383589323E+01 
    7.6889839292932027E+00 
    7.9310767513905658E+00 
    1.4807568038611556E+01 
    1.0409495245849495E+01 
    7.5882416940461868E+00 
    1.1348828084386659E+01 
    1.0660085785602195E+01 
    1.4810696212153653E+01 
    1.6442562212174906E+01 
    1.1128965981992225E+00 
    1.0733169058071873E+01 
    1.1014672191236025E+01 
    1.4877974986747470E+01 
    1.0237780081643731E+01 
    1.0725184223486746E+01 
    1.5865379148193476E+01 
    9.2437827643198691E+00 
    7.6565175227380653E+00 
    1.2974008189549627E+01 
    1.4650471635212320E+01 
    1.5731889195199379E+01 
    1.6009945614697525E+01 
    1.0570267601104641E+01 
    1.0724336746745086E+01 
    1.2106331202487189E+01 
    7.1295489971265757E+00 
    1.4786154831812228E+01 
    8.2462581634007694E+00 
    7.4234466441634650E+00 
    1.3499304713754212E+01 
    1.2713320357551591E+01 
    7.2807935922924010E+00 
    1.4687865755644577E+01 
    1.5717467714015914E+01 
    1.1202990283335410E+01 
    1.6547530066548276E+01 
    1.4722957057680899E+01 
    1.0300142722701803E+01 
    1.5444807441296383E+01 
    7.9347728955850583E+00 
    1.4670249630185086E+01 
    1.0732032229452415E+01 
    1.0692795986465949E+01 
    1.6523051984662516E+01 
    1.0477119135033075E+01 
    1.3222085195358366E+01 
    9.1891607925099112E+00 
    1.5839961566592365E+01 
    1.4571480449150837E+01 
    9.5846242243504935E+00 
    1.4624616658128561E+01 
    9.7876502859138270E+00 
    1.0733782242168234E+01 
    1.5675361783372889E+01 
    1.4956859347289367E+01 
    1.5720719939434662E+01 
    1.4881453899830138E+01 
    9.8208552336397457E+00 
    1.0046026086349547E+01 
    1.5728031237541561E+01 
    1.0177445394581875E+01 
    1.4496887884920843E+01 
    1.0464720624036447E+01 
    4.2910462090339907E+00 
    7.5000607248256088E+00 
    6.9485325035851444E+00 
    1.5679168381788614E+01 
    1.6449477561140501E+01 
    1.4643623590661424E+01 
    1.2379002841204576E+01 
    1.4948285418617886E+01 
    1.4696615589406976E+01 
    1.5312380695575103E+01 
    6.1572643664383842E+00 
    3.9991530615984918E+00 
    1.2157950881315685E+01 
    1.0402767773658764E+01 
    1.4853131596497951E+01 
    1.4850488633391686E+01 
    1.1042861432237130E+01 
    1.4889768477780189E+01 
    1.0718477393509799E+01 
    1.0644923526435475E+01 
    5.5565718424577044E+00 
    3.9863022841313729E+00 
    1.6216901092682935E+01 
    8.4223896704717198E+00 
    9.5253627597726958E+00 
    1.0927458997492458E+01 
    1.7879812512979502E+01 
    1.1024664919521802E+01 
    1.1069246998928282E+01 
    4.5389614759726600E+00 
    1.1026377216764146E+01 
    1.1042314233916551E+01 
    1.5181941673483879E+01 
    9.2119124441599283E+00 
    1.0302249861297261E+01 
    1.6391224858929395E+01 
    1.0741746351980188E+01 
    1.4660273597331232E+01 
    1.4923689344284830E+01 
    1.3201039594584277E+01 
    9.1493666062697976E+00 
    1.4881070623722415E+01 
    1.0534127096026642E+01 
    1.4844510836726467E+01 
    1.4595768089846151E+01 
    1.5699123808637481E+01 
    1.4879018740981529E+01 
    1.3955888738319533E+01 
    1.0730042592334300E+01 
    7.2251134835921729E+00 
    1.7750221603800721E+01 
    8.4132887102327718E+00 
    1.5624348215227498E+01 
    1.0727407663102785E+01 
    8.8941363503690365E+00 
    5.3430094307412270E+00 
    1.1082962148247310E+01 
    1.4867145919696981E+01 
    1.4863441542015437E+01 
    1.0714409610732126E+01 
    1.0721481590245737E+01 
    1.6604354090573636E+01 
    1.5950977042751312E+01 
    1.1044254082834106E+01 
    3.7200030567217905E+00 
    1.3887172874994418E+01 
    1.8009960501330077E+01 
    1.0733407716870166E+01 
    1.2779155932962320E+01 
    1.0236602015779834E+01 
    1.7603348388121269E+01 
    1.6033985126461854E+01 
    1.5762844545973099E+01 
    1.1067205817487974E+01 
    4.9767744940948866E+00 
    1.0192173685260085E+01 
    1.0261887740776849E+01 
    1.0302821916288918E+01 
    4.0528642050617840E+00 