# vtk DataFile Version 2.0
Pressure Field Data 
ASCII 
DATASET UNSTRUCTURED_GRID 

POINTS 2860 double 

    0.0000000000000000E+00     0.0000000000000000E+00     0.0000000000000000E+00 
    1.0000000000000000E+00     0.0000000000000000E+00     0.0000000000000000E+00 
    1.0000000000000000E+00     1.0000000000000000E+00     0.0000000000000000E+00 
    0.0000000000000000E+00     1.0000000000000000E+00     0.0000000000000000E+00 
    2.5000000000000000E-01     2.5000000000000000E-01     0.0000000000000000E+00 
    7.5000000000000000E-01     2.5000000000000000E-01     0.0000000000000000E+00 
    7.5000000000000000E-01     7.5000000000000000E-01     0.0000000000000000E+00 
    2.5000000000000000E-01     7.5000000000000000E-01     0.0000000000000000E+00 
    3.1249999999942091E-02     0.0000000000000000E+00     0.0000000000000000E+00 
    6.2499999999873469E-02     0.0000000000000000E+00     0.0000000000000000E+00 
    9.3749999999826514E-02     0.0000000000000000E+00     0.0000000000000000E+00 
    1.2499999999977961E-01     0.0000000000000000E+00     0.0000000000000000E+00 
    1.5624999999968961E-01     0.0000000000000000E+00     0.0000000000000000E+00 
    1.8749999999959971E-01     0.0000000000000000E+00     0.0000000000000000E+00 
    2.1874999999950970E-01     0.0000000000000000E+00     0.0000000000000000E+00 
    2.4999999999941969E-01     0.0000000000000000E+00     0.0000000000000000E+00 
    2.8124999999932920E-01     0.0000000000000000E+00     0.0000000000000000E+00 
    3.1249999999923850E-01     0.0000000000000000E+00     0.0000000000000000E+00 
    3.4374999999914790E-01     0.0000000000000000E+00     0.0000000000000000E+00 
    3.7499999999905720E-01     0.0000000000000000E+00     0.0000000000000000E+00 
    4.0624999999896660E-01     0.0000000000000000E+00     0.0000000000000000E+00 
    4.3749999999887590E-01     0.0000000000000000E+00     0.0000000000000000E+00 
    4.6874999999878530E-01     0.0000000000000000E+00     0.0000000000000000E+00 
    4.9999999999869471E-01     0.0000000000000000E+00     0.0000000000000000E+00 
    5.3124999999877620E-01     0.0000000000000000E+00     0.0000000000000000E+00 
    5.6249999999885780E-01     0.0000000000000000E+00     0.0000000000000000E+00 
    5.9374999999893940E-01     0.0000000000000000E+00     0.0000000000000000E+00 
    6.2499999999902101E-01     0.0000000000000000E+00     0.0000000000000000E+00 
    6.5624999999910261E-01     0.0000000000000000E+00     0.0000000000000000E+00 
    6.8749999999918421E-01     0.0000000000000000E+00     0.0000000000000000E+00 
    7.1874999999926570E-01     0.0000000000000000E+00     0.0000000000000000E+00 
    7.4999999999934730E-01     0.0000000000000000E+00     0.0000000000000000E+00 
    7.8124999999942890E-01     0.0000000000000000E+00     0.0000000000000000E+00 
    8.1249999999951039E-01     0.0000000000000000E+00     0.0000000000000000E+00 
    8.4374999999959199E-01     0.0000000000000000E+00     0.0000000000000000E+00 
    8.7499999999967359E-01     0.0000000000000000E+00     0.0000000000000000E+00 
    9.0624999999975520E-01     0.0000000000000000E+00     0.0000000000000000E+00 
    9.3749999999983680E-01     0.0000000000000000E+00     0.0000000000000000E+00 
    9.6874999999991840E-01     0.0000000000000000E+00     0.0000000000000000E+00 
    1.0000000000000000E+00     3.1249999999942091E-02     0.0000000000000000E+00 
    1.0000000000000000E+00     6.2499999999873469E-02     0.0000000000000000E+00 
    1.0000000000000000E+00     9.3749999999826514E-02     0.0000000000000000E+00 
    1.0000000000000000E+00     1.2499999999977961E-01     0.0000000000000000E+00 
    1.0000000000000000E+00     1.5624999999968961E-01     0.0000000000000000E+00 
    1.0000000000000000E+00     1.8749999999959971E-01     0.0000000000000000E+00 
    1.0000000000000000E+00     2.1874999999950970E-01     0.0000000000000000E+00 
    1.0000000000000000E+00     2.4999999999941969E-01     0.0000000000000000E+00 
    1.0000000000000000E+00     2.8124999999932920E-01     0.0000000000000000E+00 
    1.0000000000000000E+00     3.1249999999923850E-01     0.0000000000000000E+00 
    1.0000000000000000E+00     3.4374999999914790E-01     0.0000000000000000E+00 
    1.0000000000000000E+00     3.7499999999905720E-01     0.0000000000000000E+00 
    1.0000000000000000E+00     4.0624999999896660E-01     0.0000000000000000E+00 
    1.0000000000000000E+00     4.3749999999887590E-01     0.0000000000000000E+00 
    1.0000000000000000E+00     4.6874999999878530E-01     0.0000000000000000E+00 
    1.0000000000000000E+00     4.9999999999869471E-01     0.0000000000000000E+00 
    1.0000000000000000E+00     5.3124999999877620E-01     0.0000000000000000E+00 
    1.0000000000000000E+00     5.6249999999885780E-01     0.0000000000000000E+00 
    1.0000000000000000E+00     5.9374999999893940E-01     0.0000000000000000E+00 
    1.0000000000000000E+00     6.2499999999902101E-01     0.0000000000000000E+00 
    1.0000000000000000E+00     6.5624999999910261E-01     0.0000000000000000E+00 
    1.0000000000000000E+00     6.8749999999918421E-01     0.0000000000000000E+00 
    1.0000000000000000E+00     7.1874999999926570E-01     0.0000000000000000E+00 
    1.0000000000000000E+00     7.4999999999934730E-01     0.0000000000000000E+00 
    1.0000000000000000E+00     7.8124999999942890E-01     0.0000000000000000E+00 
    1.0000000000000000E+00     8.1249999999951039E-01     0.0000000000000000E+00 
    1.0000000000000000E+00     8.4374999999959199E-01     0.0000000000000000E+00 
    1.0000000000000000E+00     8.7499999999967359E-01     0.0000000000000000E+00 
    1.0000000000000000E+00     9.0624999999975520E-01     0.0000000000000000E+00 
    1.0000000000000000E+00     9.3749999999983680E-01     0.0000000000000000E+00 
    1.0000000000000000E+00     9.6874999999991840E-01     0.0000000000000000E+00 
    9.6875000000003686E-01     1.0000000000000000E+00     0.0000000000000000E+00 
    9.3750000000011691E-01     1.0000000000000000E+00     0.0000000000000000E+00 
    9.0625000000015765E-01     1.0000000000000000E+00     0.0000000000000000E+00 
    8.7500000000017863E-01     1.0000000000000000E+00     0.0000000000000000E+00 
    8.4375000000028044E-01     1.0000000000000000E+00     0.0000000000000000E+00 
    8.1250000000040856E-01     1.0000000000000000E+00     0.0000000000000000E+00 
    7.8125000000054956E-01     1.0000000000000000E+00     0.0000000000000000E+00 
    7.5000000000066480E-01     1.0000000000000000E+00     0.0000000000000000E+00 
    7.1875000000086831E-01     1.0000000000000000E+00     0.0000000000000000E+00 
    6.8750000000102829E-01     1.0000000000000000E+00     0.0000000000000000E+00 
    6.5625000000114431E-01     1.0000000000000000E+00     0.0000000000000000E+00 
    6.2500000000129829E-01     1.0000000000000000E+00     0.0000000000000000E+00 
    5.9375000000147926E-01     1.0000000000000000E+00     0.0000000000000000E+00 
    5.6250000000168354E-01     1.0000000000000000E+00     0.0000000000000000E+00 
    5.3125000000188671E-01     1.0000000000000000E+00     0.0000000000000000E+00 
    5.0000000000205835E-01     1.0000000000000000E+00     0.0000000000000000E+00 
    4.6875000000192979E-01     1.0000000000000000E+00     0.0000000000000000E+00 
    4.3750000000180111E-01     1.0000000000000000E+00     0.0000000000000000E+00 
    4.0625000000167238E-01     1.0000000000000000E+00     0.0000000000000000E+00 
    3.7500000000154382E-01     1.0000000000000000E+00     0.0000000000000000E+00 
    3.4375000000141509E-01     1.0000000000000000E+00     0.0000000000000000E+00 
    3.1250000000128642E-01     1.0000000000000000E+00     0.0000000000000000E+00 
    2.8125000000115769E-01     1.0000000000000000E+00     0.0000000000000000E+00 
    2.5000000000102918E-01     1.0000000000000000E+00     0.0000000000000000E+00 
    2.1875000000090050E-01     1.0000000000000000E+00     0.0000000000000000E+00 
    1.8750000000077180E-01     1.0000000000000000E+00     0.0000000000000000E+00 
    1.5625000000064329E-01     1.0000000000000000E+00     0.0000000000000000E+00 
    1.2500000000051459E-01     1.0000000000000000E+00     0.0000000000000000E+00 
    9.3750000000385914E-02     1.0000000000000000E+00     0.0000000000000000E+00 
    6.2500000000257239E-02     1.0000000000000000E+00     0.0000000000000000E+00 
    3.1250000000128557E-02     1.0000000000000000E+00     0.0000000000000000E+00 
    0.0000000000000000E+00     9.6875000000003686E-01     0.0000000000000000E+00 
    0.0000000000000000E+00     9.3750000000011691E-01     0.0000000000000000E+00 
    0.0000000000000000E+00     9.0625000000015765E-01     0.0000000000000000E+00 
    0.0000000000000000E+00     8.7500000000017863E-01     0.0000000000000000E+00 
    0.0000000000000000E+00     8.4375000000028044E-01     0.0000000000000000E+00 
    0.0000000000000000E+00     8.1250000000040856E-01     0.0000000000000000E+00 
    0.0000000000000000E+00     7.8125000000054956E-01     0.0000000000000000E+00 
    0.0000000000000000E+00     7.5000000000066480E-01     0.0000000000000000E+00 
    0.0000000000000000E+00     7.1875000000086831E-01     0.0000000000000000E+00 
    0.0000000000000000E+00     6.8750000000102829E-01     0.0000000000000000E+00 
    0.0000000000000000E+00     6.5625000000114431E-01     0.0000000000000000E+00 
    0.0000000000000000E+00     6.2500000000129829E-01     0.0000000000000000E+00 
    0.0000000000000000E+00     5.9375000000147926E-01     0.0000000000000000E+00 
    0.0000000000000000E+00     5.6250000000168354E-01     0.0000000000000000E+00 
    0.0000000000000000E+00     5.3125000000188671E-01     0.0000000000000000E+00 
    0.0000000000000000E+00     5.0000000000205835E-01     0.0000000000000000E+00 
    0.0000000000000000E+00     4.6875000000192979E-01     0.0000000000000000E+00 
    0.0000000000000000E+00     4.3750000000180111E-01     0.0000000000000000E+00 
    0.0000000000000000E+00     4.0625000000167238E-01     0.0000000000000000E+00 
[...]
CELL_DATA 2795 
SCALARS Pressure double 1 
LOOKUP_TABLE default 

    5.3059833744300828E+00 
    1.2162277532508487E+01 
    8.6473342129032833E+00 
    8.2472442730192750E+00 
    6.5395235292396272E+00 
    1.2060349372931787E+01 
    1.2685993905822507E+01 
    4.7338938749488468E+00 
    9.1346946980611516E+00 
    6.9967229149631800E+00 
    5.9817464921162546E+00 
    1.1844054686825741E+01 
    1.2074005556542456E+01 
    1.2033897570261983E+01 
    7.9753827755154312E+00 
    4.6542080320378352E+00 
    7.5800684907613967E+00 
    6.3664711246813424E+00 
    1.1540410490719609E+01 
    8.6446843937098237E+00 
    8.5308495862440612E+00 
    1.1978682660244134E+01 
    8.0175952570907487E+00 
    3.1228818827881355E-01 
    1.1815919926950823E+01 
    1.2054986870138988E+01 
    1.2714163814298901E+01 
    5.7481090881983761E+00 
    1.1777096066728719E+01 
    1.2712810349695523E+01 
    8.7105035088765241E+00 
    8.8769858576789513E+00 
    6.1969998199902960E+00 
    8.6081033954868769E+00 
    2.7500195385428841E+00 
    7.5846024070628442E+00 
    8.6005490824516855E+00 
    1.2748973784134648E+01 
    1.2666637891250989E+01 
    1.1854871683736240E+01 
    6.4780121384585874E+00 
    1.1799812864459870E+01 
    6.5093190687639357E-01 
    8.4608444210258131E+00 
    1.2497410690363312E+01 
    1.2353046389458839E+01 
    1.1835080274622399E+01 
    9.4498974263189428E+00 
    1.1895618300333902E+01 
    7.7591388651713480E+00 
    7.3848747771074166E+00 
    8.8445048535002773E+00 
    8.3603843452409929E+00 
    7.6251772007994685E+00 
    8.7864686573425974E+00 
    1.1364700425087543E+01 
    1.0295855781119853E+01 
    6.5753636152445720E+00 
    1.1982101946251785E+01 
    1.1917326945430357E+01 
    8.2858278116368727E+00 
    8.3050486703538464E+00 
    8.1626051025888380E+00 
    1.2626128625704514E+01 
    1.2845671136435106E+01 
    7.5890057295953568E+00 
    8.8431231211028738E+00 
    1.1759946804064660E+01 
    1.0103475252456297E+01 
    8.3418685998573334E+00 
    1.2857651179691400E+01 
    1.1914932300320078E+01 
    7.4809421853660591E+00 
    1.2438935204490580E+01 
    9.0317999334400962E+00 
    1.1692013399498656E+01 
    1.2758045196959536E+01 
    8.9024053602549404E+00 
    5.4063193596580792E+00 
    8.8601265193262098E+00 
    1.2673783015828228E+01 
    1.2888369997862462E+01 
    7.5977928450360617E+00 
    8.7733879740756358E+00 
    1.2924401179922093E+01 
    8.6067529830696774E+00 
    8.0911481794875773E+00 
    1.0446053613550825E+01 
    5.1537615244738069E+00 
    7.4047855423910685E+00 
    8.7748348823467506E+00 
    9.2538822815505615E+00 
    1.4289179393911997E+01 
    6.3525137875453419E+00 
    8.8504467891585001E+00 
    1.1816670689555130E+01 
    1.2031479813692247E+01 
    5.5840600909927414E+00 
    8.4795223554037680E+00 
    8.8036580615639330E+00 
    1.2049642506531573E+01 
    8.8095831171633510E+00 
    1.1990000145109025E+01 
    3.3949157340991678E+00 
    5.8138882641259926E+00 
    9.0468737306063929E+00 
    1.2170394696017830E+01 
    7.5535967085316758E+00 
    8.0941930813372753E+00 
    8.7945620629289376E+00 
    8.0631189682571875E+00 
    1.0033846274794078E+01 
    7.8589468972871073E+00 
    7.4877245851278111E+00 
    5.8727939553717645E+00 
    1.0177408694170563E+01 
    8.8783688782356851E+00 
    1.2548768698895922E+01 
    7.5956503177055534E+00 
    8.2361117479301029E+00 
    1.1906370667157544E+01 
    6.8494978608427823E+00 
    1.2297483527676507E+01 
    8.6902944029786493E+00 
    8.1702057914038502E+00 
    1.2033659043409761E+01 
    8.8718469382470371E+00 
    1.2764203623272955E+01 
    1.0454947574028315E+01 
    1.1240039953792399E+01 
    1.2729083373054964E+01 
    6.3657714197181967E+00 
    9.0613995550405786E+00 
    1.2038443448816938E+01 
    2.5493822648656028E+00 
    8.7629229203175569E+00 
    1.2699452917378251E+01 
    8.1997250588126143E+00 
    9.4573391761316294E+00 
    5.5319649694437443E+00 
    1.1816460413332976E+01 
    1.4760058706959853E+01 
    1.0843448559486326E+01 
    8.1942649000777585E+00 
    7.3186597947573828E+00 
    9.4029471433908753E+00 
    8.7076146201815465E+00 
    6.0461980723061481E+00 
    1.2725406593578162E+01 
    1.2123981148287152E+01 
    1.1818175324706386E+01 
    9.2725757767626540E+00 
    7.4554305376633341E+00 
    8.5306315274111082E+00 
    1.2462892157545774E+01 
    7.6722419491617968E+00 
    8.5941064091283934E+00 
    7.8141807045503269E+00 
    9.9627258616315277E+00 
    1.4748770099096587E+01 
    1.1810795563891723E+01 
    7.4217858781244139E+00 
    1.2201682582387098E+01 
    1.2134046860691150E+01 
    1.2204902926319042E+01 
    1.3106595927326161E+01 
    1.3608244978063079E+01 
    1.2349306462269654E+01 
    8.8354738185694952E+00 
    9.3460096338557115E+00 
    1.2200401692885240E+01 
    1.2556855699898612E+01 
    6.3084765794435409E+00 
    1.1834644439833619E+01 
    1.2429668272117123E+01 
    6.1457272516720973E+00 
    1.3023926996142507E+01 
    1.3016051362547044E+01 
    1.1599175149626893E+01 
    9.1153712534288847E+00 
    2.2340489773972534E+00 
    1.2699761189429536E+01 
    8.9924827721595300E+00 
    1.2810778255974617E+01 
    8.1403036392010417E+00 
    1.2551102157649582E+01 
    7.9356020772001423E-01 
    1.1256509483568880E+01 
    8.3413274090185894E+00 
    7.4210449472790110E+00 
    7.2293338981460105E+00 
    8.6604055095858570E+00 
    9.7143529356902132E+00 
    8.9264694257565811E+00 
    5.9620861737910849E+00 
    1.2553840311214147E+01 
    1.2061122117185230E+01 
    1.0209362182145496E+01 
    9.0388806009155420E+00 
    1.3068769018340101E+00 
    6.6638534707674824E+00 
    4.5998037716307723E+00 
    1.2723783024765339E+01 
    9.7946552197669057E+00 
    1.2113525480452259E+01 
    1.2118537676957430E+01 
    7.7435808261598273E+00 
    1.0214871498528149E+01 
    1.1814015980334617E+01 
    1.2999239879694938E+01 
    5.5128611985145737E+00 
    1.0653129290532872E+01 
    8.9575201755997202E+00 
    4.9038899062736521E+00 
    7.7337392404171679E+00 
    1.0647001092170020E+01 
    1.2085537508687226E+01 
    8.7191735856952963E+00 
    1.2184203531489510E+01 
    1.1975730409846260E+01 
    1.1932025664230991E+01 
    8.5388581798687024E+00 
    7.3790377631092046E+00 
    1.1825162365281846E+01 
    7.4759578514404614E+00 
    8.8128183327740821E+00 
    7.3266074065871560E+00 
    8.5447437443955074E+00 
    1.2125748371690543E+01 
    5.4644342694523242E+00 
    7.6554882639303967E+00 
    1.2643756785090112E+01 
    8.5553620018794145E+00 
    9.6927925857121746E+00 
    5.6082856518227127E+00 
    7.5312275235246506E+00 
    1.1956447310993031E+01 
    1.2233890936570706E+01 
    4.5608828255622038E+00 
    8.5551483408817361E+00 
    7.3615952163406595E+00 
    1.3388534917630967E+01 
    1.2894895639873679E+01 
    1.3632295728732453E+01 
    8.5771467210372645E+00 
    1.2103311736975078E+01 
    1.1778027784385264E+01 
    8.4577372473633154E+00 
    1.1818306719417251E+01 
    9.0380626246695019E+00 
    4.9692441818158199E+00 
    8.7363938496922611E+00 
    1.2633983667394061E+01 
    1.1815562205810366E+01 
    5.9507134656226652E+00 
    1.1840570231767002E+01 
    9.7137699051646287E+00 
    8.7461020355612948E+00 
    8.2770547477740113E+00 
    1.1703057974191585E+01 
    9.2354380245432175E+00 
    1.1829444458895111E+01 
    8.4125328264174968E+00 
    5.1576779023970714E+00 
    8.8755398060136486E+00 
    7.2375080884595757E+00 
    1.0843866210304352E+01 
    1.2807267941083305E+01 
    1.1824443878614584E+01 
    1.2693332770770208E+01 
    8.5052798853845424E+00 
    5.7931408138524683E+00 
    5.8767187889765111E+00 
    8.9366389792969034E+00 
    8.7909504933428408E+00 
    1.2324488541765160E+00 
    1.1408538316249848E+01 
    1.3128814290039109E+01 
    8.1483759650402980E+00 
    5.1770369887776768E+00 
    9.9172928375211189E+00 
    1.1839289971951382E+01 
    6.1550307140058536E+00 
    4.1654964126798575E+00 
    8.7631465415561181E+00 
    1.1922170712590988E+01 
    1.2469026084647320E+01 
    1.2366561269671022E+01 
    1.2238208536321853E+01 
    6.0021629971984005E+00 
    8.7352762832614790E+00 
    1.1408749438482998E+01 
    6.8756014521793629E+00 
    1.2062698057993265E+01 
    1.0405272826695581E+01 
    5.9668051672392215E+00 
    1.1931857513915931E+01 
    1.2717189559722717E+01 
    1.1919870595054103E+01 
    5.9248059052183191E+00 
    8.8393978036567624E+00 
    6.5169848491454401E+00 
    8.3259532093324715E+00 
    1.1832105343998956E+01 
    1.1822131463552006E+01 
    5.9597760489959262E+00 
    1.2586353566883881E+01 
    9.3150882217703366E+00 
    1.1858624193639470E+01 
    1.2561523651648963E+01 
    1.1843300790125868E+01 
    1.1050099382698779E+01 
    1.3436043412641453E+01 
    8.1213942116487843E+00 
    1.2666656030163956E+01 
    1.1881274718631637E+01 
    1.2730801176914468E+01 
    1.2580521435633418E+01 
    8.2093491679832464E+00 
    8.6422719951499936E+00 
    8.1390977634149451E+00 
    1.0638837404032261E+01 
    3.4041517781100339E+00 
    8.8712244758159340E+00 
    1.3555421735573164E+01 
    9.0433819382469558E+00 
    9.2075984564388236E+00 
    1.2706516319736751E+01 
    1.2917897244404211E+01 
    8.0954038178886130E+00 
    1.1844207373416355E+01 
    1.1819235609718406E+01 
    9.1968613856553496E+00 
    1.2541027925745782E+01 
    6.2691895172697869E+00 
    3.9622899831041551E+00 
    9.4452259747062790E+00 
    9.0555296192454584E+00 
    1.1823874846579191E+01 
    5.5687211359427105E+00 
    1.2294370178309689E+01 
    4.0341908483049229E+00 
    8.9980381590701484E+00 
    8.2840282929509765E+00 
    8.8171750761629060E+00 
    1.4799274974152972E+01 
    3.3106183189657501E+00 
    8.7820338902462876E+00 
    1.0350445792625232E+01 
    8.4175229584291760E+00 
    6.5678492391083045E+00 
    1.2399362447676149E+01 
    1.4372379197847923E+01 
    1.2524792705751947E+01 
    8.7245495072551318E+00 
    4.8784423091338960E+00 
    1.4234600194781573E+01 
    1.2049690590255715E+01 
    6.3044785987836010E+00 
    8.3196175713714915E+00 
    1.3092202811325601E+01 
    2.8149794836128597E+00 
    9.1001406184922100E+00 
    1.2494013399555010E+01 
    8.8299997598188273E+00 
    7.6728168113376425E+00 
    8.8264901336318875E+00 
    1.1589956142984640E+01 
    8.8106018727542512E+00 
    4.3469724609182903E+00 
    7.6366599987495598E-01 
    6.5699780181846164E+00 
    1.3287516709398433E+01 
    8.1384340087008642E+00 
    9.9566289651513671E+00 
    9.5412397810513596E+00 
    1.0867661444837610E+01 
    8.8429278618469489E+00 
    1.1969164464870735E+01 
    1.4813157117375379E+01 
    1.0366166021479433E+01 
    1.2642565318492613E+01 
    4.6319411842597530E-01 
    1.1823779855243650E+01 
    4.8173093726110041E+00 
    1.3715377100107229E+01 
    8.7962922940120674E+00 
    7.7779833993791510E+00 
    6.6488050067676516E+00 
    4.5602639206327549E+00 
    9.8170087136947792E+00 
    6.9468936982394860E+00 
    1.0753796805055334E+01 
    1.8637701478951301E+00 
    9.7387187581661916E+00 
    1.1766892195935398E+01 
    5.3256980784759866E+00 
    1.2239106417345706E+01 
    1.3532131085685210E+01 
    1.2109757580799645E+01 
    8.6666130677776252E+00 
    8.8123323163742153E+00 
    8.7889553704579519E+00 
    4.9458877199003339E+00 
    7.9081191881107742E+00 
    7.7731895563235547E+00 
    8.7772832345735790E+00 
    8.0809303195397497E+00 
    5.8334632046194945E-01 
    5.5235655715067677E+00 
    8.4192359681190716E+00 
    8.7530905402800059E+00 
    1.1044181682547082E+01 
    1.8556442861473477E+00 
    9.1615585969047082E+00 
    9.0604352806277859E+00 
    3.1821506548384710E+00 
    1.1998867484627047E+01 
    7.4941347028305865E+00 
    8.9356473598962900E+00 
    1.2044963121275485E+01 
    4.5795905000729915E+00 
    1.2095741974727231E+01 
    7.5929115923864936E+00 
    8.5568239201187524E-01 
    8.1932262269951988E+00 
    1.2599376289694524E+01 
    1.1823981314759074E+01 
    1.1841377987929874E+01 
    9.1514935165878626E+00 
    9.0012023283764968E+00 
    7.4755808007018443E+00 
    5.9969581206082854E+00 
    1.2139994081840211E+01 
    8.3186910347972418E+00 
    5.8623875847805813E+00 
    1.1836269826420825E+01 
    1.2429521523599028E+01 
    8.9524729369221969E+00 
    8.6031372995090063E+00 
    1.4697351147958992E+01 
    9.1975328002236925E+00 
    1.2159332578602127E+01 
    7.0962567116793753E+00 
    1.4841611264616125E+01 
    5.8419073468557867E+00 
    7.8627931281285148E+00 
    6.5457770949047092E+00 
    9.3970101632248806E+00 
    7.4800731702993328E+00 
    1.4825473718380996E+01 
    9.2391017282694445E+00 
    1.1539433188531520E+01 
    6.0116543599931651E+00 
    8.8396872564305866E+00 
    1.2020583068513703E+01 
    7.5029234346076068E+00 
    6.2338666343759206E+00 
    9.6272450398437979E+00 
    1.2232027528542703E+01 
    6.4421959704342973E+00 
    8.3011829911911690E+00 
    8.6264635016833093E+00 
    1.1802909931412970E+01 
    8.4411073410581849E+00 
    1.2203672569417215E+01 
    1.2756950151086716E+01 
    7.4986913341719719E+00 
    7.3452919997033925E+00 
    6.9790626636873778E+00 
    1.1922768554132775E+01 
    9.0538998548890266E+00 
    1.4410643681450924E+01 
    1.1252103385013818E+01 
    1.1983485247963410E+01 
    1.4114358332179746E+01 
    1.3540047127700845E+01 
    8.8836534265353642E+00 
    8.7624713505172007E+00 
    1.1626694873061595E+01 
    1.1855885707647612E+01 
    1.2293193652478589E+01 
    1.2067112606272996E+01 
    1.4715509042861266E+01 
    9.1971453957250713E+00 
    7.5869653729613153E+00 
    9.1615085774320413E+00 
    1.2679294390291945E+01 
    8.9704008160864177E+00 
    5.1945307251610640E+00 
    8.6512399500225268E+00 
    1.3060226644967479E+01 
    9.0919282749981054E+00 
    7.5957957834148306E+00 
    8.5657595076832784E+00 
    1.3162390676759548E+01 
    1.1849415691505513E+01 
    7.2007948603855425E+00 
    1.3288667183160520E+01 
    8.9101353948024045E+00 
    1.2295353684002604E+01 
    1.3174425514089679E+01 
    9.2383093108354437E+00 
    4.5817104518813840E+00 
    9.5961709035394804E+00 
    4.7411407802213228E+00 
    9.0145313620318657E+00 
    8.8303547258028683E+00 
    1.0094983213402770E+01 
    5.0138113595015188E+00 
    1.0713357345834083E+01 
    8.8512120855625707E+00 
    1.2058812496982112E+01 
    9.2098634601729383E+00 
    7.0298464037391710E+00 
    8.4524670977787384E+00 
    9.2773174890368590E+00 
    9.2892893067023010E+00 
    1.2797130903035947E+01 
    7.2416150270944835E+00 
    7.1152348344573619E+00 
    5.2768676542521149E+00 
    1.2316424527862871E+01 
    8.4879122406098215E+00 
    1.1669316766725339E+01 
    8.8015234111205132E+00 
    5.7803887600303367E+00 
    1.1872851625839003E+01 
    8.7755160189631347E+00 
    6.3145488967755155E+00 
    6.6990049290176223E+00 
    6.9420213018201267E+00 
    1.2084599687492615E+01 
    8.7792923505830522E+00 
    1.2652047773827155E+01 
    8.7319262585454407E+00 
    8.6677975645118437E+00 
    8.2217740657562857E+00 
    1.1944451666043731E+01 
    8.5829374203350053E+00 
    6.9784569249063653E+00 
    1.3527942844896703E+01 
    1.2013948228161519E+01 
    6.1249237107076038E+00 
    2.3399280743862789E+00 
    8.7681430960437794E+00 
    8.2214194739135529E+00 
    7.3394196522796094E+00 
    8.0399441647043481E+00 
    1.1997098026077618E+01 
    8.4897532309877022E+00 
    7.6420021480752593E+00 
    1.1874401769051577E+01 
    6.0684242449624248E+00 
    1.1592550000714271E+01 
    7.9371749946020529E+00 
    6.9181540394077610E+00 
    7.4113880073676777E+00 
    1.2371246260366091E+01 
    8.8201226626798555E+00 
    8.8279198083025392E+00 
    5.0906138848343545E+00 
    5.5103262462178648E+00 
    1.0996102652589363E+01 
    8.8374064533715426E+00 
    8.8133824425670362E+00 
    1.3274258319361625E+01 
    7.1174716029764316E+00 
    8.8489466617281618E+00 
    6.2771644701080200E+00 
    6.4702434882886370E+00 
    1.1936056258603706E+01 
    8.4725707699973398E+00 
    6.0859733141607970E+00 
    9.2729353245049246E+00 
    8.7075355073581342E+00 
    1.1939717583957162E+01 
    1.3361119289719294E+01 
    9.0231508923332715E-01 
    8.7732052406566403E+00 
    9.0542094495626504E+00 
    1.1997000512755077E+01 
    8.2620153774087246E+00 
    8.7950037374462511E+00 
    1.2842309182833446E+01 
    7.4426061100364196E+00 
    6.1411435334232154E+00 
    1.0636399565208821E+01 
    1.1835565880961864E+01 
    1.2730243449781938E+01 
    1.2978720705457112E+01 
    8.6188962797982853E+00 
    8.7652566096629929E+00 
    9.8767826991365482E+00 
    5.8154380769591976E+00 
    1.1944316923267737E+01 
    6.6259604877784257E+00 
    6.0607464755783020E+00 
    1.0985745290976570E+01 
    1.0340264450666236E+01 
    5.9420385396370445E+00 
    1.1865972173474690E+01 
    1.2717255922404437E+01 
    9.2108319309069593E+00 
    1.3455824708495189E+01 
    1.1893635657477887E+01 
    8.3463757671559762E+00 
    1.2482652009726309E+01 
    6.4770088840554729E+00 
    1.1851128529794838E+01 
    8.7722630788732925E+00 
    8.7312615319652789E+00 
    1.3431109834913709E+01 
    8.5166753231395251E+00 
    1.0733233602556934E+01 
    7.3976325325788368E+00 
    1.2823914950979205E+01 
    1.1771969143520197E+01 
    7.7255887808115649E+00 
    1.1815802088251994E+01 
    7.9579241112554575E+00 
    8.8039821613265463E+00 
    1.2681235975256737E+01 
    1.2059608676871445E+01 
    1.2720263727493538E+01 
    1.1999606638156218E+01 
    7.9137179836043332E+00 
    8.1232160246720930E+00 
    1.2726169274721977E+01 
    8.2373884610736798E+00 
    1.1715190803926127E+01 
    8.5098538134693769E+00 
    3.4348414281893183E+00 
    6.1218597060980748E+00 
    5.6656099617260116E+00 
    1.2684215012005311E+01 
    1.3366342466692094E+01 
    1.1831105336727159E+01 
    1.0217870325468283E+01 
    1.2075040402303998E+01 
    1.1872266241431939E+01 
    1.2377951966207425E+01 
    4.9138373844817211E+00 
    3.2033913965402570E+00 
    1.0026183980355526E+01 
    8.4109736558557557E+00 
    1.1998546100174609E+01 
    1.1996382703922029E+01 
    9.0690913206173462E+00 
    1.2028264742534695E+01 
    8.7597551427655294E+00 
    8.6312767491848650E+00 
    4.4340458567712862E+00 
    3.1899318818021802E+00 
    1.3159918786247031E+01 
    6.8713631215279740E+00 
    7.6723330003263470E+00 
    8.9798162704941173E+00 
    1.4698140651092746E+01 
    9.0623897105042950E+00 
    8.9936627624530399E+00 
    3.6309604292152442E+00 
    9.0628871836803189E+00 
    9.0747233203731916E+00 
    1.2266624379579456E+01 
    7.4147814852581950E+00 
    8.3908788051187013E+00 
    1.3315131434000932E+01 
    8.7827241548204036E+00 
    1.1844442800931052E+01 
    1.2060789569137571E+01 
    1.0864199517125359E+01 
    7.4540905053319353E+00 
    1.1998852527148745E+01 
    8.5687203352250307E+00 
    1.2010122270171724E+01 
    1.1791232640774744E+01 
    1.2701327883998527E+01 
    1.1998604602858199E+01 
    1.1295531017727189E+01 
    8.7704874771713506E+00 
    5.8949218482258141E+00 
    1.4574903461342123E+01 
    6.7624365852560322E+00 
    1.2642422417801724E+01 
    8.7678075677074414E+00 
    7.1524164646206980E+00 
    4.3050428547309396E+00 
    9.1046093717513799E+00 
    1.1987844244290027E+01 
    1.1983540044532988E+01 
    8.7858778885218261E+00 
    8.7617995454143518E+00 
    1.3509086968200121E+01 
    1.2926146726457613E+01 
    9.0791104760929446E+00 
    2.9820936091417276E+00 
    1.1269629448268031E+01 
    1.4823742944562380E+01 
    8.7739577111111746E+00 
    1.0533009992642077E+01 
    8.2569513688691973E+00 
    1.4437616511832653E+01 
    1.2997541543345156E+01 
    1.2751833105800827E+01 
    9.0988514707042167E+00 
    4.0116951371343852E+00 
    8.2174776510545744E+00 
    8.2831658206758743E+00 
    8.3322412585280521E+00 
    3.2437143908530039E+00 