# vtk DataFile Version 2.0
Pressure Field Data 
ASCII 
DATASET UNSTRUCTURED_GRID 

POINTS 2860 double 

    0.0000000000000000E+00     0.0000000000000000E+00     0.0000000000000000E+00 
    1.0000000000000000E+00     0.0000000000000000E+00     0.0000000000000000E+00 
    1.0000000000000000E+00     1.0000000000000000E+00     0.0000000000000000E+00 
    0.0000000000000000E+00     1.0000000000000000E+00     0.0000000000000000E+00 
    2.5000000000000000E-01     2.5000000000000000E-01     0.0000000000000000E+00 
    7.5000000000000000E-01     2.5000000000000000E-01     0.0000000000000000E+00 
    7.5000000000000000E-01     7.5000000000000000E-01     0.0000000000000000E+00 
    2.5000000000000000E-01     7.5000000000000000E-01     0.0000000000000000E+00 
    3.1249999999942091E-02     0.0000000000000000E+00     0.0000000000000000E+00 
    6.2499999999873469E-02     0.0000000000000000E+00     0.0000000000000000E+00 
    9.3749999999826514E-02     0.0000000000000000E+00     0.0000000000000000E+00 
    1.2499999999977961E-01     0.0000000000000000E+00     0.0000000000000000E+00 
    1.5624999999968961E-01     0.0000000000000000E+00     0.0000000000000000E+00 
    1.8749999999959971E-01     0.0000000000000000E+00     0.0000000000000000E+00 
    2.1874999999950970E-01     0.0000000000000000E+00     0.0000000000000000E+00 
    2.4999999999941969E-01     0.0000000000000000E+00     0.0000000000000000E+00 
    2.8124999999932920E-01     0.0000000000000000E+00     0.0000000000000000E+00 
    3.1249999999923850E-01     0.0000000000000000E+00     0.0000000000000000E+00 
    3.4374999999914790E-01     0.0000000000000000E+00     0.0000000000000000E+00 
    3.7499999999905720E-01     0.0000000000000000E+00     0.0000000000000000E+00 
    4.0624999999896660E-01     0.0000000000000000E+00     0.0000000000000000E+00 
    4.3749999999887590E-01     0.0000000000000000E+00     0.0000000000000000E+00 
    4.6874999999878530E-01     0.0000000000000000E+00     0.0000000000000000E+00 
    4.9999999999869471E-01     0.0000000000000000E+00     0.0000000000000000E+00 
    5.3124999999877620E-01     0.0000000000000000E+00     0.0000000000000000E+00 
    5.6249999999885780E-01     0.0000000000000000E+00     0.0000000000000000E+00 
    5.9374999999893940E-01     0.0000000000000000E+00     0.0000000000000000E+00 
    6.2499999999902101E-01     0.0000000000000000E+00     0.0000000000000000E+00 
    6.5624999999910261E-01     0.0000000000000000E+00     0.0000000000000000E+00 
    6.8749999999918421E-01     0.0000000000000000E+00     0.0000000000000000E+00 
    7.1874999999926570E-01     0.0000000000000000E+00     0.0000000000000000E+00 
    7.4999999999934730E-01     0.0000000000000000E+00     0.0000000000000000E+00 
    7.8124999999942890E-01     0.0000000000000000E+00     0.0000000000000000E+00 
    8.1249999999951039E-01     0.0000000000000000E+00     0.0000000000000000E+00 
    8.4374999999959199E-01     0.0000000000000000E+00     0.0000000000000000E+00 
    8.7499999999967359E-01     0.0000000000000000E+00     0.0000000000000000E+00 
    9.0624999999975520E-01     0.0000000000000000E+00     0.0000000000000000E+00 
    9.3749999999983680E-01     0.0000000000000000E+00     0.0000000000000000E+00 
    9.6874999999991840E-01     0.0000000000000000E+00     0.0000000000000000E+00 
    1.0000000000000000E+00     3.1249999999942091E-02     0.0000000000000000E+00 
    1.0000000000000000E+00     6.2499999999873469E-02     0.0000000000000000E+00 
    1.0000000000000000E+00     9.3749999999826514E-02     0.0000000000000000E+00 
    1.0000000000000000E+00     1.2499999999977961E-01     0.0000000000000000E+00 
    1.0000000000000000E+00     1.5624999999968961E-01     0.0000000000000000E+00 
    1.0000000000000000E+00     1.8749999999959971E-01     0.0000000000000000E+00 
    1.0000000000000000E+00     2.1874999999950970E-01     0.0000000000000000E+00 
    1.0000000000000000E+00     2.4999999999941969E-01     0.0000000000000000E+00 
    1.0000000000000000E+00     2.8124999999932920E-01     0.0000000000000000E+00 
    1.0000000000000000E+00     3.1249999999923850E-01     0.0000000000000000E+00 
    1.0000000000000000E+00     3.4374999999914790E-01     0.0000000000000000E+00 
    1.0000000000000000E+00     3.7499999999905720E-01     0.0000000000000000E+00 
    1.0000000000000000E+00     4.0624999999896660E-01     0.0000000000000000E+00 
    1.0000000000000000E+00     4.3749999999887590E-01     0.0000000000000000E+00 
    1.0000000000000000E+00     4.6874999999878530E-01     0.0000000000000000E+00 
    1.0000000000000000E+00     4.9999999999869471E-01     0.0000000000000000E+00 
    1.0000000000000000E+00     5.3124999999877620E-01     0.0000000000000000E+00 
    1.0000000000000000E+00     5.6249999999885780E-01     0.0000000000000000E+00 
    1.0000000000000000E+00     5.9374999999893940E-01     0.0000000000000000E+00 
    1.0000000000000000E+00     6.2499999999902101E-01     0.0000000000000000E+00 
    1.0000000000000000E+00     6.5624999999910261E-01     0.0000000000000000E+00 
    1.0000000000000000E+00     6.8749999999918421E-01     0.0000000000000000E+00 
    1.0000000000000000E+00     7.1874999999926570E-01     0.0000000000000000E+00 
    1.0000000000000000E+00     7.4999999999934730E-01     0.0000000000000000E+00 
    1.0000000000000000E+00     7.8124999999942890E-01     0.0000000000000000E+00 
    1.0000000000000000E+00     8.1249999999951039E-01     0.0000000000000000E+00 
    1.0000000000000000E+00     8.4374999999959199E-01     0.0000000000000000E+00 
    1.0000000000000000E+00     8.7499999999967359E-01     0.0000000000000000E+00 
    1.0000000000000000E+00     9.0624999999975520E-01     0.0000000000000000E+00 
    1.0000000000000000E+00     9.3749999999983680E-01     0.0000000000000000E+00 
    1.0000000000000000E+00     9.6874999999991840E-01     0.0000000000000000E+00 
    9.6875000000003686E-01     1.0000000000000000E+00     0.0000000000000000E+00 
    9.3750000000011691E-01     1.0000000000000000E+00     0.0000000000000000E+00 
    9.0625000000015765E-01     1.0000000000000000E+00     0.0000000000000000E+00 
    8.7500000000017863E-01     1.0000000000000000E+00     0.0000000000000000E+00 
    8.4375000000028044E-01     1.0000000000000000E+00     0.0000000000000000E+00 
    8.1250000000040856E-01     1.0000000000000000E+00     0.0000000000000000E+00 
    7.8125000000054956E-01     1.0000000000000000E+00     0.0000000000000000E+00 
    7.5000000000066480E-01     1.0000000000000000E+00     0.0000000000000000E+00 
    7.1875000000086831E-01     1.0000000000000000E+00     0.0000000000000000E+00 
    6.8750000000102829E-01     1.0000000000000000E+00     0.0000000000000000E+00 
    6.5625000000114431E-01     1.0000000000000000E+00     0.0000000000000000E+00 
    6.2500000000129829E-01     1.0000000000000000E+00     0.0000000000000000E+00 
    5.9375000000147926E-01     1.0000000000000000E+00     0.0000000000000000E+00 
    5.6250000000168354E-01     1.0000000000000000E+00     0.0000000000000000E+00 
    5.3125000000188671E-01     1.0000000000000000E+00     0.0000000000000000E+00 
    5.0000000000205835E-01     1.0000000000000000E+00     0.0000000000000000E+00 
    4.6875000000192979E-01     1.0000000000000000E+00     0.0000000000000000E+00 
    4.3750000000180111E-01     1.0000000000000000E+00     0.0000000000000000E+00 
    4.0625000000167238E-01     1.0000000000000000E+00     0.0000000000000000E+00 
    3.7500000000154382E-01     1.0000000000000000E+00     0.0000000000000000E+00 
    3.4375000000141509E-01     1.0000000000000000E+00     0.0000000000000000E+00 
    3.1250000000128642E-01     1.0000000000000000E+00     0.0000000000000000E+00 
    2.8125000000115769E-01     1.0000000000000000E+00     0.0000000000000000E+00 
    2.5000000000102918E-01     1.0000000000000000E+00     0.0000000000000000E+00 
    2.1875000000090050E-01     1.0000000000000000E+00     0.0000000000000000E+00 
    1.8750000000077180E-01     1.0000000000000000E+00     0.0000000000000000E+00 
    1.5625000000064329E-01     1.0000000000000000E+00     0.0000000000000000E+00 
    1.2500000000051459E-01     1.0000000000000000E+00     0.0000000000000000E+00 
    9.3750000000385914E-02     1.0000000000000000E+00     0.0000000000000000E+00 
    6.2500000000257239E-02     1.0000000000000000E+00     0.0000000000000000E+00 
    3.1250000000128557E-02     1.0000000000000000E+00     0.0000000000000000E+00 
    0.0000000000000000E+00     9.6875000000003686E-01     0.0000000000000000E+00 
    0.0000000000000000E+00     9.3750000000011691E-01     0.0000000000000000E+00 
    0.0000000000000000E+00     9.0625000000015765E-01     0.0000000000000000E+00 
    0.0000000000000000E+00     8.7500000000017863E-01     0.0000000000000000E+00 
    0.0000000000000000E+00     8.4375000000028044E-01     0.0000000000000000E+00 
    0.0000000000000000E+00     8.1250000000040856E-01     0.0000000000000000E+00 
    0.0000000000000000E+00     7.8125000000054956E-01     0.0000000000000000E+00 
    0.0000000000000000E+00     7.5000000000066480E-01     0.0000000000000000E+00 
    0.0000000000000000E+00     7.1875000000086831E-01     0.0000000000000000E+00 
    0.0000000000000000E+00     6.8750000000102829E-01     0.0000000000000000E+00 
    0.0000000000000000E+00     6.5625000000114431E-01     0.0000000000000000E+00 
    0.0000000000000000E+00     6.2500000000129829E-01     0.0000000000000000E+00 
    0.0000000000000000E+00     5.9375000000147926E-01     0.0000000000000000E+00 
    0.0000000000000000E+00     5.6250000000168354E-01     0.0000000000000000E+00 
    0.0000000000000000E+00     5.3125000000188671E-01     0.0000000000000000E+00 
    0.0000000000000000E+00     5.0000000000205835E-01     0.0000000000000000E+00 
    0.0000000000000000E+00     4.6875000000192979E-01     0.0000000000000000E+00 
    0.0000000000000000E+00     4.3750000000180111E-01     0.0000000000000000E+00 
    0.0000000000000000E+00     4.0625000000167238E-01     0.0000000000000000E+00 
[...]
CELL_DATA 2795 
SCALARS Pressure double 1 
LOOKUP_TABLE default 

    8.5566778311856861E+00 
    1.9171209696539638E+01 
    1.3425597188612263E+01 
    1.3103439345979298E+01 
    1.0483718681463881E+01 
    1.8956193799847139E+01 
    1.9903642389734774E+01 
    7.6487273888849563E+00 
    1.3983285877560236E+01 
    1.0819968380965502E+01 
    9.2405073221909877E+00 
    1.8612728094598278E+01 
    1.9067003887689182E+01 
    1.8914018696596781E+01 
    1.2414138013126593E+01 
    7.5200295525742282E+00 
    1.2090465754261325E+01 
    9.8348653913547359E+00 
    1.8069078357404589E+01 
    1.3404256132647481E+01 
    1.3298291251133202E+01 
    1.8823339190595274E+01 
    1.2762434109463088E+01 
    5.1452841587126019E-01 
    1.8542242969885056E+01 
    1.9016620772613386E+01 
    1.9943036414279195E+01 
    8.8993626617849841E+00 
    1.8499956405910922E+01 
    1.9936593972085515E+01 
    1.3624153194043473E+01 
    1.3610432914988825E+01 
    9.5917077064543150E+00 
    1.3388147234344896E+01 
    4.4110744317306665E+00 
    1.2095156686695768E+01 
    1.3372246177851210E+01 
    1.9984855632558272E+01 
    1.9874449650662868E+01 
    1.8629633188012413E+01 
    1.0367722708684310E+01 
    1.8631674144508327E+01 
    1.0659296923221273E+00 
    1.3390336586999702E+01 
    1.9674521208632111E+01 
    1.9339148267945468E+01 
    1.8598502531243561E+01 
    1.4401536050465721E+01 
    1.8636001011307464E+01 
    1.2370030126529722E+01 
    1.1791813522824992E+01 
    1.3572991017410947E+01 
    1.3275132922225449E+01 
    1.2170609567749510E+01 
    1.3706069467249050E+01 
    1.7734400579024047E+01 
    1.5618932852704878E+01 
    1.0538299567153304E+01 
    1.8833711927063650E+01 
    1.8721492187738523E+01 
    1.3060614359520578E+01 
    1.2930062937020931E+01 
    1.2981523871984288E+01 
    1.9814972907784288E+01 
    2.0148218865844850E+01 
    1.2109779079326460E+01 
    1.3571182147426022E+01 
    1.8258872186437319E+01 
    1.5422296807862461E+01 
    1.3001503323307780E+01 
    2.0135627195347652E+01 
    1.8796340931906126E+01 
    1.1941163640385014E+01 
    1.9467933246520687E+01 
    1.3987193962037491E+01 
    1.8387239222807846E+01 
    2.0001489653136190E+01 
    1.4056924876734232E+01 
    8.6462424307942118E+00 
    1.3590453786148824E+01 
    1.9885893534748131E+01 
    2.0174786965338914E+01 
    1.2126040838364228E+01 
    1.3515943687263313E+01 
    2.0232267655687238E+01 
    1.3369757921544723E+01 
    1.2873874781666268E+01 
    1.5971758536007922E+01 
    8.3065278297734988E+00 
    1.1824543820883003E+01 
    1.3512545954885427E+01 
    1.4141877265063238E+01 
    2.1928877617826213E+01 
    1.0194397973884927E+01 
    1.3579489629127648E+01 
    1.8569364559640352E+01 
    1.8994934885236869E+01 
    8.9896463178459758E+00 
    1.3221711845991038E+01 
    1.3547620179541530E+01 
    1.9028344683956181E+01 
    1.3535781266016144E+01 
    1.8915877923828702E+01 
    5.4749413248521384E+00 
    8.9730823441787351E+00 
    1.3810597488066678E+01 
    1.9180103381127086E+01 
    1.2051561517570953E+01 
    1.2774583354418526E+01 
    1.3510339252466967E+01 
    1.2830365041369657E+01 
    1.5189750781415574E+01 
    1.2443947950169253E+01 
    1.1949938453355751E+01 
    9.3824009640319872E+00 
    1.6065117255424617E+01 
    1.3615672742551263E+01 
    1.9707710308318592E+01 
    1.1728161835420888E+01 
    1.3078137615477543E+01 
    1.8800690476228198E+01 
    1.0972321254885193E+01 
    1.9377655459993079E+01 
    1.3443736416417043E+01 
    1.2993031721824435E+01 
    1.9000972132806986E+01 
    1.3603552958006610E+01 
    2.0014496301046840E+01 
    1.5998636018313693E+01 
    1.7464024559870872E+01 
    1.9963890676369598E+01 
    1.0212842764025449E+01 
    1.3831454288377500E+01 
    1.9000352951237200E+01 
    4.0923118549830768E+00 
    1.3680424490318599E+01 
    1.9921538692722741E+01 
    1.3026131044960762E+01 
    1.4920526068869378E+01 
    8.8646197742368606E+00 
    1.8567793470962904E+01 
    2.2473276069111829E+01 
    1.6648955190776167E+01 
    1.3028493326552223E+01 
    1.1688901267858387E+01 
    1.4474284284140767E+01 
    1.3461207579761238E+01 
    9.3522366320797978E+00 
    1.9961231936021782E+01 
    1.8978578961453810E+01 
    1.8571810578369263E+01 
    1.4141570288761805E+01 
    1.1906232900161982E+01 
    1.3293457920615470E+01 
    1.9508052671639575E+01 
    1.2236106149420246E+01 
    1.3588925404526773E+01 
    1.2451360003493946E+01 
    1.5772226706808135E+01 
    2.2460237674995714E+01 
    1.8558965440143336E+01 
    1.1801954356106080E+01 
    1.9256639096521642E+01 
    1.9129547374447984E+01 
    1.9229390678968144E+01 
    2.0473538525550211E+01 
    2.1110828392872577E+01 
    1.9313715949675007E+01 
    1.3562378130421662E+01 
    1.4683728287409297E+01 
    1.9097974946304966E+01 
    1.9711510212951687E+01 
    9.7690235011153419E+00 
    1.8596673122400190E+01 
    1.9456104360842495E+01 
    9.5063264600714774E+00 
    2.0397507548469502E+01 
    2.0350124590969042E+01 
    1.8164284792236334E+01 
    1.3907583032043842E+01 
    3.6442987548763530E+00 
    1.9925401437663947E+01 
    1.3744692609093681E+01 
    2.0080023003072665E+01 
    1.2937428263566868E+01 
    1.9670167138477666E+01 
    1.3279943113060755E+00 
    1.7420877377416968E+01 
    1.2983183309032283E+01 
    1.1849162443905849E+01 
    1.1552560792339898E+01 
    1.3410119782686117E+01 
    1.4723429922993528E+01 
    1.4129425154887862E+01 
    9.4832987045843371E+00 
    1.9710975545665722E+01 
    1.9028936580459160E+01 
    1.5571135506653482E+01 
    1.3800662894111118E+01 
    2.0817347675880704E+00 
    1.0676273989267100E+01 
    7.4374630412977147E+00 
    1.9949894492128518E+01 
    1.5040922202526728E+01 
    1.8996668898726512E+01 
    1.9114499144857444E+01 
    1.2334188715582679E+01 
    1.5689496755496659E+01 
    1.8560192660186065E+01 
    2.0330409639444806E+01 
    8.8652509429596016E+00 
    1.6784045270846281E+01 
    1.4082302673127526E+01 
    7.9067587538873596E+00 
    1.2327719152285963E+01 
    1.6391053875514110E+01 
    1.9064939218974704E+01 
    1.3462346743788014E+01 
    1.9203137861206727E+01 
    1.8907972442453001E+01 
    1.8841938253558965E+01 
    1.3297173082122001E+01 
    1.1747292362746940E+01 
    1.8582354494906212E+01 
    1.1932015263455872E+01 
    1.3545489158064948E+01 
    1.1703899232515688E+01 
    1.3540719887513792E+01 
    1.9126994108019691E+01 
    8.4447860974937399E+00 
    1.2208325255963224E+01 
    1.9843615270815011E+01 
    1.3304339414960717E+01 
    1.4917295011571811E+01 
    8.6793379593494251E+00 
    1.2017989739335937E+01 
    1.8879545152225511E+01 
    1.9272510365441935E+01 
    7.0637024271241549E+00 
    1.3320014391475825E+01 
    1.1776514651381508E+01 
    2.0839446662410385E+01 
    2.0186220890243550E+01 
    2.1146394155892384E+01 
    1.3340622621778079E+01 
    1.9091357531000430E+01 
    1.8483241615170080E+01 
    1.3184128067428686E+01 
    1.8571741124957782E+01 
    1.3800976304371606E+01 
    7.9809795956012231E+00 
    1.3743832788582125E+01 
    1.9827493809051401E+01 
    1.8567106723703226E+01 
    9.2056668736918290E+00 
    1.8607100766246042E+01 
    1.4757914571149955E+01 
    1.3655278868032509E+01 
    1.3114242582424589E+01 
    1.8370889505532997E+01 
    1.4281465190021734E+01 
    1.8589308161194367E+01 
    1.3315142082504984E+01 
    8.2130334246237986E+00 
    1.3626300194302306E+01 
    1.1564699362995485E+01 
    1.6685856780833483E+01 
    2.0073858038220163E+01 
    1.8580116544501415E+01 
    1.9913904905690210E+01 
    1.3239538176364359E+01 
    8.9681179621620082E+00 
    9.0865535018656249E+00 
    1.3880551257253135E+01 
    1.3514861557875877E+01 
    2.0375723449475731E+00 
    1.7765996184898640E+01 
    2.0515139482205328E+01 
    1.2957722810356321E+01 
    8.3536521989752348E+00 
    1.5590326227245709E+01 
    1.8602846476400380E+01 
    9.8826519312019414E+00 
    6.7417247972721288E+00 
    1.3500579994719443E+01 
    1.8698887562972015E+01 
    1.9597641536379147E+01 
    1.9367741752576560E+01 
    1.9274976552323174E+01 
    9.6118345051788303E+00 
    1.3649817276246916E+01 
    1.8009775635124992E+01 
    1.0621117489414781E+01 
    1.9049234573833118E+01 
    1.5970300043172269E+01 
    9.2110561186827091E+00 
    1.8699152525572082E+01 
    1.9985757691540854E+01 
    1.8768816992232768E+01 
    9.5265726525182117E+00 
    1.3566993300130221E+01 
    1.0451939887182199E+01 
    1.2821395836959793E+01 
    1.8593375932351375E+01 
    1.8577619326305559E+01 
    9.5786598705369244E+00 
    1.9733556014966425E+01 
    1.4200332670050923E+01 
    1.8619540551227324E+01 
    1.9740143654447721E+01 
    1.8603711841944975E+01 
    1.6984642329526746E+01 
    2.0911867375145643E+01 
    1.2890624279410284E+01 
    1.9874342470203267E+01 
    1.8651521361431410E+01 
    1.9967688563179948E+01 
    1.9729046376202877E+01 
    1.3019033862721249E+01 
    1.3413610943852433E+01 
    1.2946336979937685E+01 
    1.6268246072363997E+01 
    5.4995366222040785E+00 
    1.3802660410212997E+01 
    2.1055223950445420E+01 
    1.3807097888781545E+01 
    1.4042397580379202E+01 
    1.9933949574083766E+01 
    2.0213259160353637E+01 
    1.2772204469617899E+01 
    1.8612441125677972E+01 
    1.8573449594073253E+01 
    1.4026492935484853E+01 
    1.9671987359572398E+01 
    9.6984033305895423E+00 
    6.1918939389994918E+00 
    1.4384686730579659E+01 
    1.3821368163086859E+01 
    1.8574363166203035E+01 
    8.9645266083385060E+00 
    1.9276054318910511E+01 
    6.2946879895536147E+00 
    1.3751830140291091E+01 
    1.3031591563462895E+01 
    1.3542651987386565E+01 
    2.2514716752104572E+01 
    5.3355742633584402E+00 
    1.3701458847237431E+01 
    1.6372953619813792E+01 
    1.3120662607726327E+01 
    1.0426899421846787E+01 
    1.9473850646417365E+01 
    2.2025907366931975E+01 
    1.9637848406265363E+01 
    1.3626364259713899E+01 
    7.8754037355367332E+00 
    2.1862023431092023E+01 
    1.9017578469698748E+01 
    9.9024184891253455E+00 
    1.3211616288425985E+01 
    2.0452821675354652E+01 
    4.5410785242148535E+00 
    1.3886869724262322E+01 
    1.9657979940585516E+01 
    1.3559350153330563E+01 
    1.1837212160522677E+01 
    1.3750264856060149E+01 
    1.8066698013893280E+01 
    1.3541080172351977E+01 
    7.0239456193761862E+00 
    1.3214047818378574E+00 
    1.0164522679515441E+01 
    2.0728654955939717E+01 
    1.2945350849492359E+01 
    1.5268237191451597E+01 
    1.4654195220921734E+01 
    1.6728939832110733E+01 
    1.3573501234255390E+01 
    1.8898672654783912E+01 
    2.2530149337771359E+01 
    1.5860606221693750E+01 
    1.9838951235450732E+01 
    7.6972694383134088E-01 
    1.8579715380168807E+01 
    7.7164744076123828E+00 
    2.1247489814977115E+01 
    1.3718173850686220E+01 
    1.2099509036544672E+01 
    1.0656259361587342E+01 
    7.3763667033301674E+00 
    1.4961408417407226E+01 
    1.0777870788068910E+01 
    1.6532754778022678E+01 
    3.1081866143886043E+00 
    1.4805728799311172E+01 
    1.8471830101471916E+01 
    8.2314594403045067E+00 
    1.9139244795689102E+01 
    2.0998444948314575E+01 
    1.8977340826816288E+01 
    1.3548945305513282E+01 
    1.3535915919291899E+01 
    1.3709278616044323E+01 
    7.9841155069650283E+00 
    1.2596220869817067E+01 
    1.2390718438385887E+01 
    1.3695759085626293E+01 
    1.2856513141073325E+01 
    9.8743401466710312E-01 
    8.7790066394872586E+00 
    1.3348910307295307E+01 
    1.3664313062395955E+01 
    1.7047863249204614E+01 
    2.9815712730510731E+00 
    1.3975492801551512E+01 
    1.3830325894966293E+01 
    5.1368370361016069E+00 
    1.8802247006401902E+01 
    1.1956740560562228E+01 
    1.3677934990644188E+01 
    1.9016918430657775E+01 
    7.4017631984372789E+00 
    1.8933044348750361E+01 
    1.2113865243111002E+01 
    1.3575023817967331E+00 
    1.3024678170970416E+01 
    1.9771800187969387E+01 
    1.8580935399810336E+01 
    1.8605463601943562E+01 
    1.4130324243926424E+01 
    1.3754857340224985E+01 
    1.1932958599837598E+01 
    9.5080616652118639E+00 
    1.9164878924511939E+01 
    1.3204888655056338E+01 
    9.2244894380727498E+00 
    1.8599478247621121E+01 
    1.9480211633669160E+01 
    1.3909757707288350E+01 
    1.3355949756579848E+01 
    2.2396453120695501E+01 
    1.4027723766123071E+01 
    1.9177730415289762E+01 
    1.1352297842775132E+01 
    2.2559563410784776E+01 
    9.0272002379650562E+00 
    1.2445322996475788E+01 
    1.0139221743457677E+01 
    1.4322380328156951E+01 
    1.1608864270898810E+01 
    2.2542008925612450E+01 
    1.4088850940203200E+01 
    1.8055668497522802E+01 
    9.2964252023761134E+00 
    1.3567465516139521E+01 
    1.8973278086442651E+01 
    1.1666393670050166E+01 
    9.9065692907186484E+00 
    1.5228343684838306E+01 
    1.9217826589563217E+01 
    9.9483448947847535E+00 
    1.3059281029371419E+01 
    1.3396756803274640E+01 
    1.8546448463844836E+01 
    1.3145024448342250E+01 
    1.9225924113649622E+01 
    2.0003786573596987E+01 
    1.1965606233816004E+01 
    1.1733824417659511E+01 
    1.0776155775301072E+01 
    1.8731768146308390E+01 
    1.3849933592786671E+01 
    2.2069408897736455E+01 
    1.7208931823201368E+01 
    1.8920819309437313E+01 
    2.1718158628394065E+01 
    2.1006098388918627E+01 
    1.3616792948972867E+01 
    1.3676838209369009E+01 
    1.8162605564037118E+01 
    1.8631152307627293E+01 
    1.9389131133528021E+01 
    1.9045279742129424E+01 
    2.2422832411605338E+01 
    1.4027106995661409E+01 
    1.2104880172861781E+01 
    1.3991825538305759E+01 
    1.9893536919735020E+01 
    1.3717075010003779E+01 
    8.0995831057576861E+00 
    1.3528712890631788E+01 
    2.0416559912096524E+01 
    1.3874458496080250E+01 
    1.2117230192255008E+01 
    1.3335168345818976E+01 
    2.0549593745014246E+01 
    1.8714730792616873E+01 
    1.1514553472932434E+01 
    2.0711892305844970E+01 
    1.3646754518235472E+01 
    1.9358535050255021E+01 
    2.0564490500834555E+01 
    1.4441169497798318E+01 
    7.4130936092831119E+00 
    1.5004422824343848E+01 
    7.6574644371838998E+00 
    1.3769902122589972E+01 
    1.3564309548498830E+01 
    1.5798856911436479E+01 
    8.0929939942520974E+00 
    1.6814600340991657E+01 
    1.3581064898669384E+01 
    1.9031781858934401E+01 
    1.4601993674073194E+01 
    1.1110315847706191E+01 
    1.3178964819331229E+01 
    1.4320260556522728E+01 
    1.4158828769825849E+01 
    2.0072957200277692E+01 
    1.1573110189267029E+01 
    1.1376865355479328E+01 
    8.5006161156253945E+00 
    1.9413640097430157E+01 
    1.3230693846376525E+01 
    1.8408929118618385E+01 
    1.3531684321506697E+01 
    9.2826794597515647E+00 
    1.8742634868307690E+01 
    1.3507844696867323E+01 
    1.0127504793060027E+01 
    1.0734032582838447E+01 
    1.1108464795172702E+01 
    1.9073531642449549E+01 
    1.3698225115206494E+01 
    1.9854244849162672E+01 
    1.3467433270043955E+01 
    1.3404535887828482E+01 
    1.2958148693039231E+01 
    1.8858937584047116E+01 
    1.3313141337466618E+01 
    1.1162729842115333E+01 
    2.0994663569094513E+01 
    1.8968912756666505E+01 
    9.4702921004721983E+00 
    3.7597899383204467E+00 
    1.3685430948810188E+01 
    1.2805383032982569E+01 
    1.1723566023601380E+01 
    1.2706733156947775E+01 
    1.8852817438303621E+01 
    1.3318950221519890E+01 
    1.2165552829255303E+01 
    1.8660975261684936E+01 
    9.3815946985392404E+00 
    1.8121661025567096E+01 
    1.2347562869153162E+01 
    1.1013261041056923E+01 
    1.1835794834084261E+01 
    1.9464814034577294E+01 
    1.3545167147997663E+01 
    1.3554242677212773E+01 
    8.2132076111895866E+00 
    8.8730133311388553E+00 
    1.7084532612589385E+01 
    1.3564714316385773E+01 
    1.3734500256874378E+01 
    2.0697909209150851E+01 
    1.1378014716779120E+01 
    1.3577695600902565E+01 
    9.7072860052865266E+00 
    1.0017241319700064E+01 
    1.8811232311202918E+01 
    1.3172940701213323E+01 
    9.7745544808594058E+00 
    1.4144130959364995E+01 
    1.3468392714617105E+01 
    1.8831854557929919E+01 
    2.0807587463077137E+01 
    1.4319449113762663E+00 
    1.3691484641483232E+01 
    1.3820096797246146E+01 
    1.8941476012772785E+01 
    1.3112806114648885E+01 
    1.3515447326115330E+01 
    2.0145325275548593E+01 
    1.1881673205467356E+01 
    9.8604820385086533E+00 
    1.6146313521327368E+01 
    1.8599145752244532E+01 
    1.9963633167172741E+01 
    2.0298164081570949E+01 
    1.3496242869841611E+01 
    1.3680749401581497E+01 
    1.5027123617482983E+01 
    9.0035440686904700E+00 
    1.8773491426259309E+01 
    1.0618106819554693E+01 
    9.3700183065162719E+00 
    1.6774390017274456E+01 
    1.5751147866764196E+01 
    9.1910016263777798E+00 
    1.8646196124495514E+01 
    1.9946976366144565E+01 
    1.4047188742896878E+01 
    2.0928467195015159E+01 
    1.8690346916014906E+01 
    1.3179292156979729E+01 
    1.9590831676258734E+01 
    1.0023751571023354E+01 
    1.8622854989890097E+01 
    1.3690062880023865E+01 
    1.3643831724830530E+01 
    2.0904459752928414E+01 
    1.3277964811110726E+01 
    1.6395836508391820E+01 
    1.1810380699977538E+01 
    2.0095823415854142E+01 
    1.8487458536800656E+01 
    1.2313926666506660E+01 
    1.8567172908250193E+01 
    1.2406461565907968E+01 
    1.3522143459238764E+01 
    1.9895481679915090E+01 
    1.9044415372353310E+01 
    1.9950616973772227E+01 
    1.8945732813966046E+01 
    1.2604224635866096E+01 
    1.2870349215680806E+01 
    1.9960285323262198E+01 
    1.3030644801115322E+01 
    1.8337498095432561E+01 
    1.3257152375138443E+01 
    5.5439843926716872E+00 
    9.4522879037673775E+00 
    8.7470812127518727E+00 
    1.9900378725540005E+01 
    2.0817236220098209E+01 
    1.8590758880479612E+01 
    1.5462130054904849E+01 
    1.8965106397576424E+01 
    1.8657610781081342E+01 
    1.9441237369145785E+01 
    7.9313972046036598E+00 
    5.1607608423599496E+00 
    1.5178602550798072E+01 
    1.3303806589735895E+01 
    1.8859651531779786E+01 
    1.8856368590874638E+01 
    1.3840890738356695E+01 
    1.8906468499158986E+01 
    1.3673690976463371E+01 
    1.3577078930941944E+01 
    7.1688539662340496E+00 
    5.1390481303992006E+00 
    2.0544513417600914E+01 
    1.0644420612179260E+01 
    1.2235284909106014E+01 
    1.3729963303744407E+01 
    2.2400193753153300E+01 
    1.3830985682162929E+01 
    1.4056636263390654E+01 
    5.8515400451366562E+00 
    1.3830736421361250E+01 
    1.3846407028304583E+01 
    1.9185934336809588E+01 
    1.1844556763677039E+01 
    1.3022494147806588E+01 
    2.0747939823664154E+01 
    1.3701750287888730E+01 
    1.8611879905771271E+01 
    1.8894893054916309E+01 
    1.6498919152378303E+01 
    1.1575612047827182E+01 
    1.8944814127505389E+01 
    1.3457510095108859E+01 
    1.8816246150631592E+01 
    1.8526481828849505E+01 
    1.9924824074897170E+01 
    1.8942927323971066E+01 
    1.7442193913107719E+01 
    1.3687652590852654E+01 
    9.1045934235496251E+00 
    2.2260332922869281E+01 
    1.0833817567229573E+01 
    1.9836327078072525E+01 
    1.3684524365124169E+01 
    1.1448346612578998E+01 
    6.8035712624158933E+00 
    1.3887325508663183E+01 
    1.8927289388529225E+01 
    1.8917359718421707E+01 
    1.3500712845894359E+01 
    1.3677498830946140E+01 
    2.0988614870904343E+01 
    2.0228251475762466E+01 
    1.3853602063868253E+01 
    4.8008764333004983E+00 
    1.7304167398361255E+01 
    2.2537772446043526E+01 
    1.3691645808106090E+01 
    1.5957333467089832E+01 
    1.3112320377412985E+01 
    2.2098930016490360E+01 
    2.0327952687761055E+01 
    2.0024982650153245E+01 
    1.3878954721714290E+01 
    6.3600411631684493E+00 
    1.3061233296488625E+01 
    1.3140541444065819E+01 
    1.3187187374396915E+01 
    5.2391104214129820E+00 