# vtk DataFile Version 2.0
Pressure Field Data 
ASCII 
DATASET UNSTRUCTURED_GRID 

POINTS 2860 double 

    0.0000000000000000E+00     0.0000000000000000E+00     0.0000000000000000E+00 
    1.0000000000000000E+00     0.0000000000000000E+00     0.0000000000000000E+00 
    1.0000000000000000E+00     1.0000000000000000E+00     0.0000000000000000E+00 
    0.0000000000000000E+00     1.0000000000000000E+00     0.0000000000000000E+00 
    2.5000000000000000E-01     2.5000000000000000E-01     0.0000000000000000E+00 
    7.5000000000000000E-01     2.5000000000000000E-01     0.0000000000000000E+00 
    7.5000000000000000E-01     7.5000000000000000E-01     0.0000000000000000E+00 
    2.5000000000000000E-01     7.5000000000000000E-01     0.0000000000000000E+00 
    3.1249999999942091E-02     0.0000000000000000E+00     0.0000000000000000E+00 
    6.2499999999873469E-02     0.0000000000000000E+00     0.0000000000000000E+00 
    9.3749999999826514E-02     0.0000000000000000E+00     0.0000000000000000E+00 
    1.2499999999977961E-01     0.0000000000000000E+00     0.0000000000000000E+00 
    1.5624999999968961E-01     0.0000000000000000E+00     0.0000000000000000E+00 
    1.8749999999959971E-01     0.0000000000000000E+00     0.0000000000000000E+00 
    2.1874999999950970E-01     0.0000000000000000E+00     0.0000000000000000E+00 
    2.4999999999941969E-01     0.0000000000000000E+00     0.0000000000000000E+00 
    2.8124999999932920E-01     0.0000000000000000E+00     0.0000000000000000E+00 
    3.1249999999923850E-01     0.0000000000000000E+00     0.0000000000000000E+00 
    3.4374999999914790E-01     0.0000000000000000E+00     0.0000000000000000E+00 
    3.7499999999905720E-01     0.0000000000000000E+00     0.0000000000000000E+00 
    4.0624999999896660E-01     0.0000000000000000E+00     0.0000000000000000E+00 
    4.3749999999887590E-01     0.0000000000000000E+00     0.0000000000000000E+00 
    4.6874999999878530E-01     0.0000000000000000E+00     0.0000000000000000E+00 
    4.9999999999869471E-01     0.0000000000000000E+00     0.0000000000000000E+00 
    5.3124999999877620E-01     0.0000000000000000E+00     0.0000000000000000E+00 
    5.6249999999885780E-01     0.0000000000000000E+00     0.0000000000000000E+00 
    5.9374999999893940E-01     0.0000000000000000E+00     0.0000000000000000E+00 
    6.2499999999902101E-01     0.0000000000000000E+00     0.0000000000000000E+00 
    6.5624999999910261E-01     0.0000000000000000E+00     0.0000000000000000E+00 
    6.8749999999918421E-01     0.0000000000000000E+00     0.0000000000000000E+00 
    7.1874999999926570E-01     0.0000000000000000E+00     0.0000000000000000E+00 
    7.4999999999934730E-01     0.0000000000000000E+00     0.0000000000000000E+00 
    7.8124999999942890E-01     0.0000000000000000E+00     0.0000000000000000E+00 
    8.1249999999951039E-01     0.0000000000000000E+00     0.0000000000000000E+00 
    8.4374999999959199E-01     0.0000000000000000E+00     0.0000000000000000E+00 
    8.7499999999967359E-01     0.0000000000000000E+00     0.0000000000000000E+00 
    9.0624999999975520E-01     0.0000000000000000E+00     0.0000000000000000E+00 
    9.3749999999983680E-01     0.0000000000000000E+00     0.0000000000000000E+00 
    9.6874999999991840E-01     0.0000000000000000E+00     0.0000000000000000E+00 
    1.0000000000000000E+00     3.1249999999942091E-02     0.0000000000000000E+00 
    1.0000000000000000E+00     6.2499999999873469E-02     0.0000000000000000E+00 
    1.0000000000000000E+00     9.3749999999826514E-02     0.0000000000000000E+00 
    1.0000000000000000E+00     1.2499999999977961E-01     0.0000000000000000E+00 
    1.0000000000000000E+00     1.5624999999968961E-01     0.0000000000000000E+00 
    1.0000000000000000E+00     1.8749999999959971E-01     0.0000000000000000E+00 
    1.0000000000000000E+00     2.1874999999950970E-01     0.0000000000000000E+00 
    1.0000000000000000E+00     2.4999999999941969E-01     0.0000000000000000E+00 
    1.0000000000000000E+00     2.8124999999932920E-01     0.0000000000000000E+00 
    1.0000000000000000E+00     3.1249999999923850E-01     0.0000000000000000E+00 
    1.0000000000000000E+00     3.4374999999914790E-01     0.0000000000000000E+00 
    1.0000000000000000E+00     3.7499999999905720E-01     0.0000000000000000E+00 
    1.0000000000000000E+00     4.0624999999896660E-01     0.0000000000000000E+00 
    1.0000000000000000E+00     4.3749999999887590E-01     0.0000000000000000E+00 
    1.0000000000000000E+00     4.6874999999878530E-01     0.0000000000000000E+00 
    1.0000000000000000E+00     4.9999999999869471E-01     0.0000000000000000E+00 
    1.0000000000000000E+00     5.3124999999877620E-01     0.0000000000000000E+00 
    1.0000000000000000E+00     5.6249999999885780E-01     0.0000000000000000E+00 
    1.0000000000000000E+00     5.9374999999893940E-01     0.0000000000000000E+00 
    1.0000000000000000E+00     6.2499999999902101E-01     0.0000000000000000E+00 
    1.0000000000000000E+00     6.5624999999910261E-01     0.0000000000000000E+00 
    1.0000000000000000E+00     6.8749999999918421E-01     0.0000000000000000E+00 
    1.0000000000000000E+00     7.1874999999926570E-01     0.0000000000000000E+00 
    1.0000000000000000E+00     7.4999999999934730E-01     0.0000000000000000E+00 
    1.0000000000000000E+00     7.8124999999942890E-01     0.0000000000000000E+00 
    1.0000000000000000E+00     8.1249999999951039E-01     0.0000000000000000E+00 
    1.0000000000000000E+00     8.4374999999959199E-01     0.0000000000000000E+00 
    1.0000000000000000E+00     8.7499999999967359E-01     0.0000000000000000E+00 
    1.0000000000000000E+00     9.0624999999975520E-01     0.0000000000000000E+00 
    1.0000000000000000E+00     9.3749999999983680E-01     0.0000000000000000E+00 
    1.0000000000000000E+00     9.6874999999991840E-01     0.0000000000000000E+00 
    9.6875000000003686E-01     1.0000000000000000E+00     0.0000000000000000E+00 
    9.3750000000011691E-01     1.0000000000000000E+00     0.0000000000000000E+00 
    9.0625000000015765E-01     1.0000000000000000E+00     0.0000000000000000E+00 
    8.7500000000017863E-01     1.0000000000000000E+00     0.0000000000000000E+00 
    8.4375000000028044E-01     1.0000000000000000E+00     0.0000000000000000E+00 
    8.1250000000040856E-01     1.0000000000000000E+00     0.0000000000000000E+00 
    7.8125000000054956E-01     1.0000000000000000E+00     0.0000000000000000E+00 
    7.5000000000066480E-01     1.0000000000000000E+00     0.0000000000000000E+00 
    7.1875000000086831E-01     1.0000000000000000E+00     0.0000000000000000E+00 
    6.8750000000102829E-01     1.0000000000000000E+00     0.0000000000000000E+00 
    6.5625000000114431E-01     1.0000000000000000E+00     0.0000000000000000E+00 
    6.2500000000129829E-01     1.0000000000000000E+00     0.0000000000000000E+00 
    5.9375000000147926E-01     1.0000000000000000E+00     0.0000000000000000E+00 
    5.6250000000168354E-01     1.0000000000000000E+00     0.0000000000000000E+00 
    5.3125000000188671E-01     1.0000000000000000E+00     0.0000000000000000E+00 
    5.0000000000205835E-01     1.0000000000000000E+00     0.0000000000000000E+00 
    4.6875000000192979E-01     1.0000000000000000E+00     0.0000000000000000E+00 
    4.3750000000180111E-01     1.0000000000000000E+00     0.0000000000000000E+00 
    4.0625000000167238E-01     1.0000000000000000E+00     0.0000000000000000E+00 
    3.7500000000154382E-01     1.0000000000000000E+00     0.0000000000000000E+00 
    3.4375000000141509E-01     1.0000000000000000E+00     0.0000000000000000E+00 
    3.1250000000128642E-01     1.0000000000000000E+00     0.0000000000000000E+00 
    2.8125000000115769E-01     1.0000000000000000E+00     0.0000000000000000E+00 
    2.5000000000102918E-01     1.0000000000000000E+00     0.0000000000000000E+00 
    2.1875000000090050E-01     1.0000000000000000E+00     0.0000000000000000E+00 
    1.8750000000077180E-01     1.0000000000000000E+00     0.0000000000000000E+00 
    1.5625000000064329E-01     1.0000000000000000E+00     0.0000000000000000E+00 
    1.2500000000051459E-01     1.0000000000000000E+00     0.0000000000000000E+00 
    9.3750000000385914E-02     1.0000000000000000E+00     0.0000000000000000E+00 
    6.2500000000257239E-02     1.0000000000000000E+00     0.0000000000000000E+00 
    3.1250000000128557E-02     1.0000000000000000E+00     0.0000000000000000E+00 
    0.0000000000000000E+00     9.6875000000003686E-01     0.0000000000000000E+00 
    0.0000000000000000E+00     9.3750000000011691E-01     0.0000000000000000E+00 
    0.0000000000000000E+00     9.0625000000015765E-01     0.0000000000000000E+00 
    0.0000000000000000E+00     8.7500000000017863E-01     0.0000000000000000E+00 
    0.0000000000000000E+00     8.4375000000028044E-01     0.0000000000000000E+00 
    0.0000000000000000E+00     8.1250000000040856E-01     0.0000000000000000E+00 
    0.0000000000000000E+00     7.8125000000054956E-01     0.0000000000000000E+00 
    0.0000000000000000E+00     7.5000000000066480E-01     0.0000000000000000E+00 
    0.0000000000000000E+00     7.1875000000086831E-01     0.0000000000000000E+00 
    0.0000000000000000E+00     6.8750000000102829E-01     0.0000000000000000E+00 
    0.0000000000000000E+00     6.5625000000114431E-01     0.0000000000000000E+00 
    0.0000000000000000E+00     6.2500000000129829E-01     0.0000000000000000E+00 
    0.0000000000000000E+00     5.9375000000147926E-01     0.0000000000000000E+00 
    0.0000000000000000E+00     5.6250000000168354E-01     0.0000000000000000E+00 
    0.0000000000000000E+00     5.3125000000188671E-01     0.0000000000000000E+00 
    0.0000000000000000E+00     5.0000000000205835E-01     0.0000000000000000E+00 
    0.0000000000000000E+00     4.6875000000192979E-01     0.0000000000000000E+00 
    0.0000000000000000E+00     4.3750000000180111E-01     0.0000000000000000E+00 
    0.0000000000000000E+00     4.0625000000167238E-01     0.0000000000000000E+00 
[...]
CELL_DATA 2795 
SCALARS Pressure double 1 
LOOKUP_TABLE default 

    5.5018411494480199E+00 
    1.2639469663611186E+01 
    8.9625123667449369E+00 
    8.5575576304245349E+00 
    6.7828502061689093E+00 
    1.2532630268710856E+01 
    1.3180187054304993E+01 
    4.9072447390218432E+00 
    9.4809038219904878E+00 
    7.2435221280606381E+00 
    6.1652205010502996E+00 
    1.2307413374461005E+01 
    1.2550236387460481E+01 
    1.2505183000827284E+01 
    8.2614787264121734E+00 
    4.8244668930314756E+00 
    7.8637259025373991E+00 
    6.5714760301488795E+00 
    1.1991097440139217E+01 
    8.9595144126614876E+00 
    8.8425168596469916E+00 
    1.2447862368179816E+01 
    8.3191150555361766E+00 
    3.2290034791223854E-01 
    1.2283943643345374E+01 
    1.2528668945697159E+01 
    1.3209003766473232E+01 
    5.9255868257245767E+00 
    1.2237645901284152E+01 
    1.3205987116646561E+01 
    9.0091105859437608E+00 
    9.2028604218409598E+00 
    6.4021075644226748E+00 
    8.9211794402956688E+00 
    2.8427707109048859E+00 
    7.8684955788019320E+00 
    8.9130481543436293E+00 
    1.3242880492238134E+01 
    1.3160065694978110E+01 
    1.2318739157940261E+01 
    6.7178078368398060E+00 
    1.2264761565813458E+01 
    6.7277830031285035E-01 
    8.7805633475916292E+00 
    1.2986264855070976E+01 
    1.2838097723667607E+01 
    1.2298017573181617E+01 
    9.8044363031539756E+00 
    1.2361761778166073E+01 
    8.0493713376850202E+00 
    7.6610818775867955E+00 
    9.1684636953293399E+00 
    8.6764695722169645E+00 
    7.9103813573640078E+00 
    9.0810455291182954E+00 
    1.1807981764545392E+01 
    1.0687556187659199E+01 
    6.8200486481811282E+00 
    1.2451369950953653E+01 
    1.2383979478437046E+01 
    8.5805846397561680E+00 
    8.6088921830203660E+00 
    8.4698417657567990E+00 
    1.3116885872999575E+01 
    1.3343573642390195E+01 
    7.8729575298176115E+00 
    9.1668153210695156E+00 
    1.2220547405679683E+01 
    1.0489712350224600E+01 
    8.6456805362553499E+00 
    1.3355783247513434E+01 
    1.2384981081733619E+01 
    7.7608408687845216E+00 
    1.2927141647324122E+01 
    9.3361615937317666E+00 
    1.2154074761941668E+01 
    1.3252160762944152E+01 
    9.2439246652720364E+00 
    5.6026686076426149E+00 
    9.1846102628923045E+00 
    1.3167607045042599E+01 
    1.3385605544909785E+01 
    7.8825893046722513E+00 
    9.0919892746776156E+00 
    1.3423795153750172E+01 
    8.9191214886755859E+00 
    8.3955967472229549E+00 
    1.0848304737689194E+01 
    5.3429175229273218E+00 
    7.6816968616014565E+00 
    9.0945336869311095E+00 
    9.6061668833080116E+00 
    1.4811042327786476E+01 
    6.5887698706272388E+00 
    9.1744034803019243E+00 
    1.2278692512863969E+01 
    1.2506396950625872E+01 
    5.7903610712128817E+00 
    8.7900267844598847E+00 
    9.1224670545296540E+00 
    1.2525015790895255E+01 
    9.1315886315337469E+00 
    1.2463533647925134E+01 
    3.5155251293166496E+00 
    5.9924948916610550E+00 
    9.3808664208456030E+00 
    1.2647611973682073E+01 
    7.8364447295053408E+00 
    8.3825673168221471E+00 
    9.1162238879016755E+00 
    8.3662542225857059E+00 
    1.0383010898258378E+01 
    8.1427781953091820E+00 
    7.7679579604985030E+00 
    6.0873151355583239E+00 
    1.0574510235148921E+01 
    9.2038557341361340E+00 
    1.3037016708671759E+01 
    7.8731916456632733E+00 
    8.5443324332761961E+00 
    1.2375578846167128E+01 
    7.1046151770018877E+00 
    1.2779653446880317E+01 
    9.0070302588221889E+00 
    8.4776530085133039E+00 
    1.2508503213746016E+01 
    9.1971166204038095E+00 
    1.3259904162084975E+01 
    1.0857666491654106E+01 
    1.1677899215848312E+01 
    1.3224305998141434E+01 
    6.6024536103004232E+00 
    9.3972480568624928E+00 
    1.2512318326473824E+01 
    2.6379624319548194E+00 
    9.0590482807624699E+00 
    1.3193845473692242E+01 
    8.5066648134571317E+00 
    9.8236158931773279E+00 
    5.7341582011493433E+00 
    1.2277860580443544E+01 
    1.5286521913419351E+01 
    1.1263835975762451E+01 
    8.5026014004777064E+00 
    7.5922864193450170E+00 
    9.7483630210181929E+00 
    9.0245091934021833E+00 
    6.2314913897526942E+00 
    1.3220364861906543E+01 
    1.2601872175164413E+01 
    1.2280235255046964E+01 
    9.6209996464792162E+00 
    7.7343049630331269E+00 
    8.8415775898265885E+00 
    1.2952019958905607E+01 
    7.9598888259620262E+00 
    8.9210229142430144E+00 
    8.1074251927036194E+00 
    1.0348548897796764E+01 
    1.5275109978589066E+01 
    1.2272666731177209E+01 
    7.6951690655153309E+00 
    1.2682117308434499E+01 
    1.2610235815781012E+01 
    1.2683220029044616E+01 
    1.3609395452760825E+01 
    1.4120384071437593E+01 
    1.2835199012478862E+01 
    9.1587606204691916E+00 
    9.7085634508379695E+00 
    1.2680511250472259E+01 
    1.3046240188449524E+01 
    6.5074389390840501E+00 
    1.2297618921333791E+01 
    1.2917784235117136E+01 
    6.3345345757368205E+00 
    1.3526771830002129E+01 
    1.3516578064121365E+01 
    1.2052398864780487E+01 
    9.4539341954186202E+00 
    2.3090039612600584E+00 
    1.3194065835097700E+01 
    9.3255312154823500E+00 
    1.3306625423452770E+01 
    8.4447528726989649E+00 
    1.3042183013772249E+01 
    8.2126676590342962E-01 
    1.1695141711848914E+01 
    8.6506334409228796E+00 
    7.6985274194522697E+00 
    7.4994372192510337E+00 
    8.9751084809271990E+00 
    1.0066893214433922E+01 
    9.2684759329227067E+00 
    6.1780393999516710E+00 
    1.3042592861534251E+01 
    1.2535342036979978E+01 
    1.0600539563143082E+01 
    9.3732887872937170E+00 
    1.3504958225009569E+00 
    6.9119058990882918E+00 
    4.7661999841748406E+00 
    1.3216779564694397E+01 
    1.0171969538061845E+01 
    1.2589242822959660E+01 
    1.2594818379290775E+01 
    8.0319477892208315E+00 
    1.0617386469523778E+01 
    1.2276166229512411E+01 
    1.3499518741231057E+01 
    5.7154438842619362E+00 
    1.1071356116919173E+01 
    9.3016484676754505E+00 
    5.0833110456236685E+00 
    8.0236661521222850E+00 
    1.1070408312681264E+01 
    1.2560620109030690E+01 
    9.0373822019386747E+00 
    1.2662126365676654E+01 
    1.2447430806176625E+01 
    1.2402022650661721E+01 
    8.8482494509402834E+00 
    7.6503801331069754E+00 
    1.2287469218059899E+01 
    7.7556536001532814E+00 
    9.1342116503808768E+00 
    7.6004694231556789E+00 
    8.8694863314727996E+00 
    1.2602397545776709E+01 
    5.6318429204923728E+00 
    7.9422727333749847E+00 
    1.3135737022119343E+01 
    8.8629837573164938E+00 
    1.0065269475472656E+01 
    5.7796810040601461E+00 
    7.8130925844408248E+00 
    1.2427521494878407E+01 
    1.2713246281827674E+01 
    4.7026551447793388E+00 
    8.8646989957743063E+00 
    7.6365761238058445E+00 
    1.3897171684526366E+01 
    1.3392416907302090E+01 
    1.4145171173381064E+01 
    8.8869981027284926E+00 
    1.2579026779147398E+01 
    1.2238800726600665E+01 
    8.7667483991515613E+00 
    1.2280452541615992E+01 
    9.3731144381489635E+00 
    5.1490249929465719E+00 
    9.0677737892530015E+00 
    1.3124645014855068E+01 
    1.2277611611514383E+01 
    6.1332471641665869E+00 
    1.2303775151204686E+01 
    1.0056236538216936E+01 
    9.0415203164164399E+00 
    8.5826430971725944E+00 
    1.2160529284822486E+01 
    9.5742923192067924E+00 
    1.2292049722269972E+01 
    8.7281512285088922E+00 
    5.3406529345534555E+00 
    9.2001151134689625E+00 
    7.5079994450734882E+00 
    1.1264271587167586E+01 
    1.3304285350775761E+01 
    1.2286489646990439E+01 
    1.3187648013367401E+01 
    8.8143760123332910E+00 
    5.9698893542876075E+00 
    6.0559861727305000E+00 
    9.2428425679403503E+00 
    9.1115152365256034E+00 
    1.2754912040002528E+00 
    1.1853750314086369E+01 
    1.3632849009743961E+01 
    8.4545553018331070E+00 
    5.3673961676542765E+00 
    1.0304860458078949E+01 
    1.2302505858125663E+01 
    6.3835357314050345E+00 
    4.3168829850120343E+00 
    9.0830024260942928E+00 
    1.2390164681755065E+01 
    1.2955047500979203E+01 
    1.2852273826340614E+01 
    1.2717428817203198E+01 
    6.2230622575975643E+00 
    9.0325642513391653E+00 
    1.1857901758136126E+01 
    7.1113196773011857E+00 
    1.2538542819370052E+01 
    1.0817468466823232E+01 
    6.1504638788183179E+00 
    1.2399542791041700E+01 
    1.3212566509940485E+01 
    1.2391536487399975E+01 
    6.1446324549725899E+00 
    9.1628839141141540E+00 
    6.7595692007390902E+00 
    8.6338558938613055E+00 
    1.2294932242741927E+01 
    1.2284484073582549E+01 
    6.1808441015293747E+00 
    1.3078550526327486E+01 
    9.6578798950231608E+00 
    1.2321905031955074E+01 
    1.3050872081012102E+01 
    1.2306111221404239E+01 
    1.1479597053703635E+01 
    1.3946311427921001E+01 
    8.4222616906164358E+00 
    1.3160074737443315E+01 
    1.2347001226374427E+01 
    1.3226083869969507E+01 
    1.3072536102185015E+01 
    8.5131625841855723E+00 
    8.9571078622428697E+00 
    8.4452943429093885E+00 
    1.1049924962601677E+01 
    3.5256028855904069E+00 
    9.1641239734430009E+00 
    1.4067326526759281E+01 
    9.3771394863848556E+00 
    9.5464749767483372E+00 
    1.3201184404762618E+01 
    1.3417246009408423E+01 
    8.3831807618492835E+00 
    1.2307596874977419E+01 
    1.2281302648750851E+01 
    9.5353490761264794E+00 
    1.3031758416838295E+01 
    6.4627052877666982E+00 
    4.0872351977110348E+00 
    9.7895616634756699E+00 
    9.3899265879574809E+00 
    1.2286487587602286E+01 
    5.7745247134143458E+00 
    1.2776881947096419E+01 
    4.1609732305212681E+00 
    9.3296279658749732E+00 
    8.5745642057486737E+00 
    9.1394793184232661E+00 
    1.5325815852526457E+01 
    3.4275687503911429E+00 
    9.0773268727759930E+00 
    1.0754143992386092E+01 
    8.7241581283889378E+00 
    6.8075510481530248E+00 
    1.2883734236249813E+01 
    1.4895232543819080E+01 
    1.3014384199179711E+01 
    9.0197662092477433E+00 
    5.0574960337525932E+00 
    1.4755130337853815E+01 
    1.2524000760962080E+01 
    6.5274387553702979E+00 
    8.6337244850463275E+00 
    1.3594587310250345E+01 
    2.9142388966446031E+00 
    9.4356928353277141E+00 
    1.2982121725171622E+01 
    9.1528343214724721E+00 
    7.9510924130638747E+00 
    9.1194853410473833E+00 
    1.2050829996867149E+01 
    9.1324156778551639E+00 
    4.5051190442227238E+00 
    7.9136768066173135E-01 
    6.7711034564256316E+00 
    1.3795304781421313E+01 
    8.4446628495030129E+00 
    1.0343275176752485E+01 
    9.8952278695388856E+00 
    1.1301025536189609E+01 
    9.1663215171671002E+00 
    1.2440854442253192E+01 
    1.5339803216155149E+01 
    1.0764937617105543E+01 
    1.3135216390213431E+01 
    4.7911851670047867E-01 
    1.2286246474394831E+01 
    4.9871903533542392E+00 
    1.4229465089361945E+01 
    9.0911414431554149E+00 
    8.0570816526649729E+00 
    6.8963688903552267E+00 
    4.7270258360865798E+00 
    1.0189431820564074E+01 
    7.1742523775006113E+00 
    1.1170309501351346E+01 
    1.9276784562254239E+00 
    1.0082248306826044E+01 
    1.2227148473309018E+01 
    5.4901907035602724E+00 
    1.2721519455864238E+01 
    1.4042874891297989E+01 
    1.2585770890459166E+01 
    8.9613522194656028E+00 
    9.1341249616134483E+00 
    9.0837314628009374E+00 
    5.1274901396152801E+00 
    8.2052765916032815E+00 
    8.0649364198526303E+00 
    9.0726867198512746E+00 
    8.3842807224280911E+00 
    6.0391826453174990E-01 
    5.7215512597047091E+00 
    8.7379416172119058E+00 
    9.0485009501203457E+00 
    1.1473524345591668E+01 
    1.9197156905794441E+00 
    9.4989827078172127E+00 
    9.3947773238806480E+00 
    3.2950546360831718E+00 
    1.2471274968729826E+01 
    7.7740009045210519E+00 
    9.2636771311075350E+00 
    1.2519545515314881E+01 
    4.7468891977433794E+00 
    1.2572685327028907E+01 
    7.8773594168263035E+00 
    8.8352987776551339E-01 
    8.5011839188872926E+00 
    1.3090801062094968E+01 
    1.2286330033400297E+01 
    1.2304399436131359E+01 
    9.4598585929699723E+00 
    9.3331818689468076E+00 
    7.7552192311283328E+00 
    6.2126389917486744E+00 
    1.2618146484091170E+01 
    8.6324543869995676E+00 
    6.0688386546413531E+00 
    1.2299208897009976E+01 
    1.2916096829429298E+01 
    9.2648978800005448E+00 
    8.9125068930731786E+00 
    1.5222737139610556E+01 
    9.5360839056481872E+00 
    1.2637164006267357E+01 
    7.3612774029734016E+00 
    1.5368295662135486E+01 
    6.0203970113189680E+00 
    8.1461047709237899E+00 
    6.7555531166799874E+00 
    9.7422960394836444E+00 
    7.7383302952043627E+00 
    1.5352062109563112E+01 
    9.5790577401507218E+00 
    1.1996699572447804E+01 
    6.1947468531845900E+00 
    9.1633303855520136E+00 
    1.2493762143983162E+01 
    7.7649191537433513E+00 
    6.4602529663612387E+00 
    9.9999518444149516E+00 
    1.2710680237673614E+01 
    6.6516662901609234E+00 
    8.5926129147488961E+00 
    8.9402372155964542E+00 
    1.2264413792015917E+01 
    8.7500701138694321E+00 
    1.2681806156280553E+01 
    1.3252868492307703E+01 
    7.7793032700987856E+00 
    7.6199439685695562E+00 
    7.2196643670567751E+00 
    1.2389873254196017E+01 
    9.3957867454714137E+00 
    1.4933782172484184E+01 
    1.1687376977949711E+01 
    1.2455669501583161E+01 
    1.4633315614893785E+01 
    1.4050699305127504E+01 
    9.2101185551545477E+00 
    9.0579572538499722E+00 
    1.2081258270549824E+01 
    1.2319795886258941E+01 
    1.2776301451794613E+01 
    1.2542137519564990E+01 
    1.5241582216155720E+01 
    9.5356761551003437E+00 
    7.8710364137019511E+00 
    9.5091536815984092E+00 
    1.3173184021584674E+01 
    9.3016305802558801E+00 
    5.3558997945336779E+00 
    8.9459068856773278E+00 
    1.3562232909202894E+01 
    9.4272161445697158E+00 
    7.8802726595713999E+00 
    8.8758478338606022E+00 
    1.3666587618494660E+01 
    1.2316075402437340E+01 
    7.4684595924385500E+00 
    1.3795476399056909E+01 
    9.2382057932515824E+00 
    1.2776502354726356E+01 
    1.3679044765868916E+01 
    9.5942934252545964E+00 
    4.7492534437639389E+00 
    9.9702413205754219E+00 
    4.9149284810947949E+00 
    9.3476099215657893E+00 
    9.1520684543932198E+00 
    1.0491259026233578E+01 
    5.1980596493113653E+00 
    1.1135317833909983E+01 
    9.1755306118586546E+00 
    1.2533482096280327E+01 
    9.5635199740817018E+00 
    7.2854208866874783E+00 
    8.7617492037015658E+00 
    9.6160926639185451E+00 
    9.6302922953143639E+00 
    1.3293289035038288E+01 
    7.5120643535449165E+00 
    7.3808227781085964E+00 
    5.4709628768667562E+00 
    1.2799686100398107E+01 
    8.7984638275815712E+00 
    1.2129429549620340E+01 
    9.1231776523827932E+00 
    5.9936308638627507E+00 
    1.2340893716947624E+01 
    9.0961507513093096E+00 
    6.5488089636388667E+00 
    6.9485526434366314E+00 
    7.2010865699359332E+00 
    1.2560339320070542E+01 
    9.0746399564420734E+00 
    1.3145186070255601E+01 
    9.0499559714869129E+00 
    8.9784770567717960E+00 
    8.5132891383220635E+00 
    1.2415243706656025E+01 
    8.8881790714658546E+00 
    7.2388220633683931E+00 
    1.4038597522177529E+01 
    1.2487460152971877E+01 
    6.3118341162120641E+00 
    2.4212624308503923E+00 
    9.0639383836401048E+00 
    8.5173751866356451E+00 
    7.6136638215264529E+00 
    8.3285319556034008E+00 
    1.2467056803532758E+01 
    8.7840347997633472E+00 
    7.9251739576301681E+00 
    1.2339152103005420E+01 
    6.2540365982327337E+00 
    1.2045620584209759E+01 
    8.2358365315301914E+00 
    7.1729911285921908E+00 
    7.6885560611939043E+00 
    1.2854616414175318E+01 
    9.1424850516179585E+00 
    9.1508085792688636E+00 
    5.2778864712931828E+00 
    5.7139246212657113E+00 
    1.1432617720267025E+01 
    9.1608610070245842E+00 
    9.1071227320253083E+00 
    1.3780973465078780E+01 
    7.3832888260693714E+00 
    9.1730310009929639E+00 
    6.4689715554378893E+00 
    6.6737790231781355E+00 
    1.2407440838861383E+01 
    8.7817787604830979E+00 
    6.3118540821994618E+00 
    9.6231346525629373E+00 
    9.0235686496054530E+00 
    1.2410858273339370E+01 
    1.3869414347840733E+01 
    9.3147976139858313E-01 
    9.0687296989732431E+00 
    9.3885452512796146E+00 
    1.2469744828927373E+01 
    8.5709180825982667E+00 
    9.1154934338584539E+00 
    1.3340211950610730E+01 
    7.7210607576111210E+00 
    6.3691356790514000E+00 
    1.1039366377803510E+01 
    1.2298509799713282E+01 
    1.3225402912611209E+01 
    1.3478265868747519E+01 
    8.9151217030814802E+00 
    9.0608104431035681E+00 
    1.0252065783259278E+01 
    5.9931313804972071E+00 
    1.2412005254184034E+01 
    6.8725621629195928E+00 
    6.2451831627844445E+00 
    1.1409456873598705E+01 
    1.0737352333731129E+01 
    6.1231256975103969E+00 
    1.2330382462043861E+01 
    1.3212158017964981E+01 
    9.5498219255655687E+00 
    1.3965894736043811E+01 
    1.2359290627521952E+01 
    8.6480007104991525E+00 
    1.2971156702920535E+01 
    6.6789067042083738E+00 
    1.2314844837430753E+01 
    9.0678794018203508E+00 
    9.0283488510116605E+00 
    1.3941217302474879E+01 
    8.8283103292218108E+00 
    1.1148071809803113E+01 
    7.6743231693260388E+00 
    1.3321419605319200E+01 
    1.2232376395935267E+01 
    8.0146506858858437E+00 
    1.2277373986085726E+01 
    8.2439123236557261E+00 
    9.1260014845092616E+00 
    1.3175099053990271E+01 
    1.2535227416821709E+01 
    1.3215212588124738E+01 
    1.2472508220035660E+01 
    8.2108795385493849E+00 
    8.4205826056237658E+00 
    1.3221332492943143E+01 
    8.5372862993735019E+00 
    1.2173444435630330E+01 
    8.8199400050724268E+00 
    3.5559835648921929E+00 
    6.3130195847340866E+00 
    5.8392799303744791E+00 
    1.3178216562888103E+01 
    1.3874925472771301E+01 
    1.2293655408391610E+01 
    1.0590586058824682E+01 
    1.2548297249764667E+01 
    1.2336898368088271E+01 
    1.2861566600458399E+01 
    5.0941663970819828E+00 
    3.3158596191949292E+00 
    1.0397700924644575E+01 
    8.7230897493880803E+00 
    1.2468451930838395E+01 
    1.2466196662542576E+01 
    9.4049187845342495E+00 
    1.2499384069212352E+01 
    9.0553254578904596E+00 
    8.9523088171243987E+00 
    4.5956820480504490E+00 
    3.3025111644466305E+00 
    1.3663955077605271E+01 
    7.0919286029509303E+00 
    7.9599451980312796E+00 
    9.3106701058753849E+00 
    1.5223770413319524E+01 
    9.3970544495940675E+00 
    9.3333870378861405E+00 
    3.7568913471388283E+00 
    9.3976439993840462E+00 
    9.4100296653165199E+00 
    1.2749652366177518E+01 
    7.6923978555866013E+00 
    8.6997935616316919E+00 
    1.3822501977738389E+01 
    9.0772944875362942E+00 
    1.2307779259877080E+01 
    1.2535564676448901E+01 
    1.1271646879893396E+01 
    7.7022195519330428E+00 
    1.2471823476417539E+01 
    8.8697326276219339E+00 
    1.2483161262433327E+01 
    1.2252285465990690E+01 
    1.3195814967488076E+01 
    1.2471243988302517E+01 
    1.1735691259916155E+01 
    9.0660722531144469E+00 
    6.0754297245797311E+00 
    1.5099456506039791E+01 
    7.0143704999476508E+00 
    1.3133396128190826E+01 
    9.0634779106601702E+00 
    7.4200235063577864E+00 
    4.4471814545702095E+00 
    9.4413642850172366E+00 
    1.2460292808421825E+01 
    1.2456135797534351E+01 
    9.1055763188402032E+00 
    9.0576412931613604E+00 
    1.4019901795716761E+01 
    1.3424635431174480E+01 
    9.4138936416619980E+00 
    3.0860606191582436E+00 
    1.1707334967121625E+01 
    1.5350140108633090E+01 
    9.0694124678429873E+00 
    1.0922555053581187E+01 
    8.5668787438013716E+00 
    1.4960493820563329E+01 
    1.3498125709270687E+01 
    1.3247564943908053E+01 
    9.4337148456074722E+00 
    4.1429248801957890E+00 
    8.5265845653926462E+00 
    8.5925830350439067E+00 
    8.6386293745736378E+00 
    3.3569534611259968E+00 