# vtk DataFile Version 2.0
Pressure Field Data 
ASCII 
DATASET UNSTRUCTURED_GRID 

POINTS 2860 double 

    0.0000000000000000E+00     0.0000000000000000E+00     0.0000000000000000E+00 
    1.0000000000000000E+00     0.0000000000000000E+00     0.0000000000000000E+00 
    1.0000000000000000E+00     1.0000000000000000E+00     0.0000000000000000E+00 
    0.0000000000000000E+00     1.0000000000000000E+00     0.0000000000000000E+00 
    2.5000000000000000E-01     2.5000000000000000E-01     0.0000000000000000E+00 
    7.5000000000000000E-01     2.5000000000000000E-01     0.0000000000000000E+00 
    7.5000000000000000E-01     7.5000000000000000E-01     0.0000000000000000E+00 
    2.5000000000000000E-01     7.5000000000000000E-01     0.0000000000000000E+00 
    3.1249999999942091E-02     0.0000000000000000E+00     0.0000000000000000E+00 
    6.2499999999873469E-02     0.0000000000000000E+00     0.0000000000000000E+00 
    9.3749999999826514E-02     0.0000000000000000E+00     0.0000000000000000E+00 
    1.2499999999977961E-01     0.0000000000000000E+00     0.0000000000000000E+00 
    1.5624999999968961E-01     0.0000000000000000E+00     0.0000000000000000E+00 
    1.8749999999959971E-01     0.0000000000000000E+00     0.0000000000000000E+00 
    2.1874999999950970E-01     0.0000000000000000E+00     0.0000000000000000E+00 
    2.4999999999941969E-01     0.0000000000000000E+00     0.0000000000000000E+00 
    2.8124999999932920E-01     0.0000000000000000E+00     0.0000000000000000E+00 
    3.1249999999923850E-01     0.0000000000000000E+00     0.0000000000000000E+00 
    3.4374999999914790E-01     0.0000000000000000E+00     0.0000000000000000E+00 
    3.7499999999905720E-01     0.0000000000000000E+00     0.0000000000000000E+00 
    4.0624999999896660E-01     0.0000000000000000E+00     0.0000000000000000E+00 
    4.3749999999887590E-01     0.0000000000000000E+00     0.0000000000000000E+00 
    4.6874999999878530E-01     0.0000000000000000E+00     0.0000000000000000E+00 
    4.9999999999869471E-01     0.0000000000000000E+00     0.0000000000000000E+00 
    5.3124999999877620E-01     0.0000000000000000E+00     0.0000000000000000E+00 
    5.6249999999885780E-01     0.0000000000000000E+00     0.0000000000000000E+00 
    5.9374999999893940E-01     0.0000000000000000E+00     0.0000000000000000E+00 
    6.2499999999902101E-01     0.0000000000000000E+00     0.0000000000000000E+00 
    6.5624999999910261E-01     0.0000000000000000E+00     0.0000000000000000E+00 
    6.8749999999918421E-01     0.0000000000000000E+00     0.0000000000000000E+00 
    7.1874999999926570E-01     0.0000000000000000E+00     0.0000000000000000E+00 
    7.4999999999934730E-01     0.0000000000000000E+00     0.0000000000000000E+00 
    7.8124999999942890E-01     0.0000000000000000E+00     0.0000000000000000E+00 
    8.1249999999951039E-01     0.0000000000000000E+00     0.0000000000000000E+00 
    8.4374999999959199E-01     0.0000000000000000E+00     0.0000000000000000E+00 
    8.7499999999967359E-01     0.0000000000000000E+00     0.0000000000000000E+00 
    9.0624999999975520E-01     0.0000000000000000E+00     0.0000000000000000E+00 
    9.3749999999983680E-01     0.0000000000000000E+00     0.0000000000000000E+00 
    9.6874999999991840E-01     0.0000000000000000E+00     0.0000000000000000E+00 
    1.0000000000000000E+00     3.1249999999942091E-02     0.0000000000000000E+00 
    1.0000000000000000E+00     6.2499999999873469E-02     0.0000000000000000E+00 
    1.0000000000000000E+00     9.3749999999826514E-02     0.0000000000000000E+00 
    1.0000000000000000E+00     1.2499999999977961E-01     0.0000000000000000E+00 
    1.0000000000000000E+00     1.5624999999968961E-01     0.0000000000000000E+00 
    1.0000000000000000E+00     1.8749999999959971E-01     0.0000000000000000E+00 
    1.0000000000000000E+00     2.1874999999950970E-01     0.0000000000000000E+00 
    1.0000000000000000E+00     2.4999999999941969E-01     0.0000000000000000E+00 
    1.0000000000000000E+00     2.8124999999932920E-01     0.0000000000000000E+00 
    1.0000000000000000E+00     3.1249999999923850E-01     0.0000000000000000E+00 
    1.0000000000000000E+00     3.4374999999914790E-01     0.0000000000000000E+00 
    1.0000000000000000E+00     3.7499999999905720E-01     0.0000000000000000E+00 
    1.0000000000000000E+00     4.0624999999896660E-01     0.0000000000000000E+00 
    1.0000000000000000E+00     4.3749999999887590E-01     0.0000000000000000E+00 
    1.0000000000000000E+00     4.6874999999878530E-01     0.0000000000000000E+00 
    1.0000000000000000E+00     4.9999999999869471E-01     0.0000000000000000E+00 
    1.0000000000000000E+00     5.3124999999877620E-01     0.0000000000000000E+00 
    1.0000000000000000E+00     5.6249999999885780E-01     0.0000000000000000E+00 
    1.0000000000000000E+00     5.9374999999893940E-01     0.0000000000000000E+00 
    1.0000000000000000E+00     6.2499999999902101E-01     0.0000000000000000E+00 
    1.0000000000000000E+00     6.5624999999910261E-01     0.0000000000000000E+00 
    1.0000000000000000E+00     6.8749999999918421E-01     0.0000000000000000E+00 
    1.0000000000000000E+00     7.1874999999926570E-01     0.0000000000000000E+00 
    1.0000000000000000E+00     7.4999999999934730E-01     0.0000000000000000E+00 
    1.0000000000000000E+00     7.8124999999942890E-01     0.0000000000000000E+00 
    1.0000000000000000E+00     8.1249999999951039E-01     0.0000000000000000E+00 
    1.0000000000000000E+00     8.4374999999959199E-01     0.0000000000000000E+00 
    1.0000000000000000E+00     8.7499999999967359E-01     0.0000000000000000E+00 
    1.0000000000000000E+00     9.0624999999975520E-01     0.0000000000000000E+00 
    1.0000000000000000E+00     9.3749999999983680E-01     0.0000000000000000E+00 
    1.0000000000000000E+00     9.6874999999991840E-01     0.0000000000000000E+00 
    9.6875000000003686E-01     1.0000000000000000E+00     0.0000000000000000E+00 
    9.3750000000011691E-01     1.0000000000000000E+00     0.0000000000000000E+00 
    9.0625000000015765E-01     1.0000000000000000E+00     0.0000000000000000E+00 
    8.7500000000017863E-01     1.0000000000000000E+00     0.0000000000000000E+00 
    8.4375000000028044E-01     1.0000000000000000E+00     0.0000000000000000E+00 
    8.1250000000040856E-01     1.0000000000000000E+00     0.0000000000000000E+00 
    7.8125000000054956E-01     1.0000000000000000E+00     0.0000000000000000E+00 
    7.5000000000066480E-01     1.0000000000000000E+00     0.0000000000000000E+00 
    7.1875000000086831E-01     1.0000000000000000E+00     0.0000000000000000E+00 
    6.8750000000102829E-01     1.0000000000000000E+00     0.0000000000000000E+00 
    6.5625000000114431E-01     1.0000000000000000E+00     0.0000000000000000E+00 
    6.2500000000129829E-01     1.0000000000000000E+00     0.0000000000000000E+00 
    5.9375000000147926E-01     1.0000000000000000E+00     0.0000000000000000E+00 
    5.6250000000168354E-01     1.0000000000000000E+00     0.0000000000000000E+00 
    5.3125000000188671E-01     1.0000000000000000E+00     0.0000000000000000E+00 
    5.0000000000205835E-01     1.0000000000000000E+00     0.0000000000000000E+00 
    4.6875000000192979E-01     1.0000000000000000E+00     0.0000000000000000E+00 
    4.3750000000180111E-01     1.0000000000000000E+00     0.0000000000000000E+00 
    4.0625000000167238E-01     1.0000000000000000E+00     0.0000000000000000E+00 
    3.7500000000154382E-01     1.0000000000000000E+00     0.0000000000000000E+00 
    3.4375000000141509E-01     1.0000000000000000E+00     0.0000000000000000E+00 
    3.1250000000128642E-01     1.0000000000000000E+00     0.0000000000000000E+00 
    2.8125000000115769E-01     1.0000000000000000E+00     0.0000000000000000E+00 
    2.5000000000102918E-01     1.0000000000000000E+00     0.0000000000000000E+00 
    2.1875000000090050E-01     1.0000000000000000E+00     0.0000000000000000E+00 
    1.8750000000077180E-01     1.0000000000000000E+00     0.0000000000000000E+00 
    1.5625000000064329E-01     1.0000000000000000E+00     0.0000000000000000E+00 
    1.2500000000051459E-01     1.0000000000000000E+00     0.0000000000000000E+00 
    9.3750000000385914E-02     1.0000000000000000E+00     0.0000000000000000E+00 
    6.2500000000257239E-02     1.0000000000000000E+00     0.0000000000000000E+00 
    3.1250000000128557E-02     1.0000000000000000E+00     0.0000000000000000E+00 
    0.0000000000000000E+00     9.6875000000003686E-01     0.0000000000000000E+00 
    0.0000000000000000E+00     9.3750000000011691E-01     0.0000000000000000E+00 
    0.0000000000000000E+00     9.0625000000015765E-01     0.0000000000000000E+00 
    0.0000000000000000E+00     8.7500000000017863E-01     0.0000000000000000E+00 
    0.0000000000000000E+00     8.4375000000028044E-01     0.0000000000000000E+00 
    0.0000000000000000E+00     8.1250000000040856E-01     0.0000000000000000E+00 
    0.0000000000000000E+00     7.8125000000054956E-01     0.0000000000000000E+00 
    0.0000000000000000E+00     7.5000000000066480E-01     0.0000000000000000E+00 
    0.0000000000000000E+00     7.1875000000086831E-01     0.0000000000000000E+00 
    0.0000000000000000E+00     6.8750000000102829E-01     0.0000000000000000E+00 
    0.0000000000000000E+00     6.5625000000114431E-01     0.0000000000000000E+00 
    0.0000000000000000E+00     6.2500000000129829E-01     0.0000000000000000E+00 
    0.0000000000000000E+00     5.9375000000147926E-01     0.0000000000000000E+00 
    0.0000000000000000E+00     5.6250000000168354E-01     0.0000000000000000E+00 
    0.0000000000000000E+00     5.3125000000188671E-01     0.0000000000000000E+00 
    0.0000000000000000E+00     5.0000000000205835E-01     0.0000000000000000E+00 
    0.0000000000000000E+00     4.6875000000192979E-01     0.0000000000000000E+00 
    0.0000000000000000E+00     4.3750000000180111E-01     0.0000000000000000E+00 
    0.0000000000000000E+00     4.0625000000167238E-01     0.0000000000000000E+00 
[...]
CELL_DATA 2795 
SCALARS Pressure double 1 
LOOKUP_TABLE default 

    5.5454947451744019E+00 
    1.2743672581491133E+01 
    9.0287012966391202E+00 
    8.6255676681086175E+00 
    6.8365845747281497E+00 
    1.2635390282328531E+01 
    1.3287956657629433E+01 
    4.9461140006054745E+00 
    9.5541865084851967E+00 
    7.2990382373020575E+00 
    6.2116741890295177E+00 
    1.2408143789900016E+01 
    1.2654292311528200E+01 
    1.2607718980266361E+01 
    8.3240741418609048E+00 
    4.8626929659623981E+00 
    7.9259954746940720E+00 
    6.6211859898082217E+00 
    1.2088857934632699E+01 
    9.0244897835917950E+00 
    8.9102201716872251E+00 
    1.2549907899344786E+01 
    8.3852433757156994E+00 
    3.2536690382985239E-01 
    1.2386250929836295E+01 
    1.2632121742677201E+01 
    1.3316917269234573E+01 
    5.9701767047390515E+00 
    1.2337727827327214E+01 
    1.3313652565018584E+01 
    9.0746290698448053E+00 
    9.2700527794716869E+00 
    6.4506285068944402E+00 
    8.9877069175665643E+00 
    2.8652990683714346E+00 
    7.9308224180148139E+00 
    8.9783231605367888E+00 
    1.3350716786129103E+01 
    1.3267654278144148E+01 
    1.2419583669198682E+01 
    6.7708632052539146E+00 
    1.2366356537842384E+01 
    6.7786910674075285E-01 
    8.8505598772223788E+00 
    1.3093070572589266E+01 
    1.2943888613908539E+01 
    1.2398653634100892E+01 
    9.8791652448468188E+00 
    1.2463059727646245E+01 
    8.1129978814185471E+00 
    7.7217910854433267E+00 
    9.2357159909846978E+00 
    8.7457367754925830E+00 
    7.9729565144208037E+00 
    9.1458556579431676E+00 
    1.1904024006404448E+01 
    1.0770923578248553E+01 
    6.8740707944931181E+00 
    1.2553445681500742E+01 
    1.2485444921330130E+01 
    8.6452982416796349E+00 
    8.6748513627182327E+00 
    8.5371948869645262E+00 
    1.3224013228893723E+01 
    1.3452352518588961E+01 
    7.9352815421768783E+00 
    9.2340032696703336E+00 
    1.2320438872368030E+01 
    1.0572043186091426E+01 
    8.7116884773333272E+00 
    1.3464441824528384E+01 
    1.2487690929443493E+01 
    7.8223387368023696E+00 
    1.3033628280539142E+01 
    9.3995942893743187E+00 
    1.2255080566022995E+01 
    1.3360062865318431E+01 
    9.3187481509915795E+00 
    5.6472458840417454E+00 
    9.2520095798349242E+00 
    1.3275290223078226E+01 
    1.3494193020322809E+01 
    7.9451547655572012E+00 
    9.1584298046494510E+00 
    1.3532810470222136E+01 
    8.9837190645248448E+00 
    8.4623524010343445E+00 
    1.0934451585213383E+01 
    5.3856285021916870E+00 
    7.7425573318390200E+00 
    9.1609664518293528E+00 
    9.6809453555661289E+00 
    1.4925092494097537E+01 
    6.6410056378426310E+00 
    9.2416723354717796E+00 
    1.2379125173378922E+01 
    1.2610169375121499E+01 
    5.8362616811876373E+00 
    8.8572540114993590E+00 
    9.1886425619219985E+00 
    1.2628884084764465E+01 
    9.1983944661966000E+00 
    1.2567009677290292E+01 
    3.5429166055600181E+00 
    6.0377290360311395E+00 
    9.4506350360393174E+00 
    1.2751813948018977E+01 
    7.8985642690187987E+00 
    8.4459207880469958E+00 
    9.1833040427410300E+00 
    8.4327236480359797E+00 
    1.0456346959696392E+01 
    8.2051566384346213E+00 
    7.8295206546949148E+00 
    6.1354784005975862E+00 
    1.0661413175363439E+01 
    9.2706392411022076E+00 
    1.3143612942958795E+01 
    7.9331391875713129E+00 
    8.6118929942358324E+00 
    1.2478094139468695E+01 
    7.1608467915438627E+00 
    1.2884961550748393E+01 
    9.0725281610873107E+00 
    8.5450514122953578E+00 
    1.2612257244366383E+01 
    9.2647118099324715E+00 
    1.3368068879982765E+01 
    1.0943956597391173E+01 
    1.1772585676462707E+01 
    1.3332308078787701E+01 
    6.6547787574229025E+00 
    9.4675167544415579E+00 
    1.2615831549412061E+01 
    2.6581522188772002E+00 
    9.1241033696611265E+00 
    1.3301654088073057E+01 
    8.5739590927460814E+00 
    9.9038378114317211E+00 
    5.7797964182492185E+00 
    1.2378169159627360E+01 
    1.5401623022818038E+01 
    1.1354308482268067E+01 
    8.5701920067140325E+00 
    7.6524455698743461E+00 
    9.8214243713126521E+00 
    9.0902154088182279E+00 
    6.2782839641604395E+00 
    1.3328339756315279E+01 
    1.2705948457760288E+01 
    1.2380676222195941E+01 
    9.6944598305605574E+00 
    7.7955630568135597E+00 
    8.9093696782981056E+00 
    1.3058691407867849E+01 
    8.0230374088676619E+00 
    8.9926272479344682E+00 
    8.1717816812438233E+00 
    1.0432956268055808E+01 
    1.5390183751629850E+01 
    1.2373061573423568E+01 
    7.7551234845902384E+00 
    1.2787095936254067E+01 
    1.2714221511734999E+01 
    1.2787658438407544E+01 
    1.3719222476733060E+01 
    1.4232290957236451E+01 
    1.2941152279050844E+01 
    9.2258397233109850E+00 
    9.7879890081243630E+00 
    1.2785113043554377E+01 
    1.3153039109058865E+01 
    6.5561711178804503E+00 
    1.2398260671209494E+01 
    1.3024211076050614E+01 
    6.3820463978833439E+00 
    1.3636652354453954E+01 
    1.3625898743605100E+01 
    1.2150733282014045E+01 
    9.5248673886039459E+00 
    2.3276332018179913E+00 
    1.3301893015325271E+01 
    9.3950576804162722E+00 
    1.3414918392153083E+01 
    8.5115168619001711E+00 
    1.3149310133853040E+01 
    8.2778679721473059E-01 
    1.1789961124815207E+01 
    8.7171935107513328E+00 
    7.7595090464218028E+00 
    7.5588505880561074E+00 
    9.0396316935637451E+00 
    1.0140629129301393E+01 
    9.3433996265204531E+00 
    6.2267490185744823E+00 
    1.3149270961597841E+01 
    1.2638917769238958E+01 
    1.0684005684140828E+01 
    9.4431896704023313E+00 
    1.3604876753463726E+00 
    6.9666413516761878E+00 
    4.8039238593188056E+00 
    1.3324427170520392E+01 
    1.0253488173303866E+01 
    1.2692827847294719E+01 
    1.2698840005118296E+01 
    8.0953004876863073E+00 
    1.0705136441744873E+01 
    1.2376613586676271E+01 
    1.3608787952816963E+01 
    5.7608850171750481E+00 
    1.1162860691470879E+01 
    9.3769745054399465E+00 
    5.1238218721118391E+00 
    8.0873104365967254E+00 
    1.1162999346938573E+01 
    1.2664381579825562E+01 
    9.1032733050139374E+00 
    1.2766487237174461E+01 
    1.2550478443840754E+01 
    1.2504702076065898E+01 
    8.9161491509341193E+00 
    7.7100883515194063E+00 
    1.2387957267469005E+01 
    7.8170915342966021E+00 
    9.2009341952084984E+00 
    7.6606815676275355E+00 
    8.9406444301978638E+00 
    1.2706503354653059E+01 
    5.6744378067020182E+00 
    8.0052413823865933E+00 
    1.3243098603806827E+01 
    8.9304870213345691E+00 
    1.0145970529808350E+01 
    5.8233242833882821E+00 
    7.8750100280848878E+00 
    1.2530436804901624E+01 
    1.2817913030231491E+01 
    4.7385756199609075E+00 
    8.9323105176145834E+00 
    7.6969901298431624E+00 
    1.4008295812817073E+01 
    1.3501071425860159E+01 
    1.4257245302609430E+01 
    8.9530545831374901E+00 
    1.2682924958426815E+01 
    1.2338908479325548E+01 
    8.8338034642453405E+00 
    1.2380911808321439E+01 
    9.4431872913533148E+00 
    5.1898746034990930E+00 
    9.1401765488046980E+00 
    1.3231777563380957E+01 
    1.2378048357498814E+01 
    6.1793404227728441E+00 
    1.2404471187204550E+01 
    1.0129315484523625E+01 
    9.1064068953635111E+00 
    8.6496458601634920E+00 
    1.2259894573056590E+01 
    9.6468771616334035E+00 
    1.2392608371316946E+01 
    8.7972227715272791E+00 
    5.3824221376944283E+00 
    9.2668721092099062E+00 
    7.5674911140212195E+00 
    1.1354795352550751E+01 
    1.3412726902459669E+01 
    1.2386904231244035E+01 
    1.3295442785545111E+01 
    8.8820777552804273E+00 
    6.0148827614878630E+00 
    6.1016155515173693E+00 
    9.3076592756397769E+00 
    9.1777489210031415E+00 
    1.2858390427586970E+00 
    1.1950161058783651E+01 
    1.3742961576965300E+01 
    8.5216790730136598E+00 
    5.4102238584870106E+00 
    1.0389739003315672E+01 
    1.2403199520363900E+01 
    6.4341346690179444E+00 
    4.3509668507243813E+00 
    9.1493975115972308E+00 
    1.2491609000222050E+01 
    1.3061156322022365E+01 
    1.2958146579979818E+01 
    1.2822058106605446E+01 
    6.2722775008002687E+00 
    9.0978257324216685E+00 
    1.1956084542527543E+01 
    7.1653488867407340E+00 
    1.2642514314116312E+01 
    1.0907383095463627E+01 
    6.1968116225218850E+00 
    1.2501201332493840E+01 
    1.3320818950602041E+01 
    1.2494620891906791E+01 
    6.1933798681294006E+00 
    9.2300301917740430E+00 
    6.8131487864835307E+00 
    8.6985055281797941E+00 
    1.2395542685006285E+01 
    1.2384988639445234E+01 
    6.2298558472195129E+00 
    1.3185899600418102E+01 
    9.7297693247889594E+00 
    1.2422240801636756E+01 
    1.3157736054373729E+01 
    1.2406533425988663E+01 
    1.1572203942806066E+01 
    1.4057806125241758E+01 
    8.4882671823063802E+00 
    1.3267660986027099E+01 
    1.2448105226350359E+01 
    1.3334108416025941E+01 
    1.3179829677060232E+01 
    8.5797926172481951E+00 
    9.0225912416374019E+00 
    8.5124202288505533E+00 
    1.1138144428776382E+01 
    3.5531425855720293E+00 
    9.2280931995344542E+00 
    1.4179184347269050E+01 
    9.4468557028841111E+00 
    9.6174371348681404E+00 
    1.3309071765555792E+01 
    1.3526173237335842E+01 
    8.4464079502937892E+00 
    1.2408333454660616E+01 
    1.2381744248254872E+01 
    9.6062204084409917E+00 
    1.3138754732137947E+01 
    6.5111583092189225E+00 
    4.1188035643228389E+00 
    9.8622789567257456E+00 
    9.4598028854980978E+00 
    1.2387037244823748E+01 
    5.8203063125965819E+00 
    1.2882016633988355E+01 
    4.1930953520194931E+00 
    9.3988118007253281E+00 
    8.6383862847500925E+00 
    9.2063917740750743E+00 
    1.5440937896411022E+01 
    3.4541795936409150E+00 
    9.1422072508347920E+00 
    1.0842455566191324E+01 
    8.7908396427088586E+00 
    6.8607840873666106E+00 
    1.2989254582653883E+01 
    1.5009498942493247E+01 
    1.3121205709576049E+01 
    9.0846088985907034E+00 
    5.0977836085728896E+00 
    1.4868913532072737E+01 
    1.2627608970500235E+01 
    6.5775896763034600E+00 
    8.7025580625396390E+00 
    1.3704320257132435E+01 
    2.9368165282365921E+00 
    9.5058478681472813E+00 
    1.3088733696882231E+01 
    9.2197822676310448E+00 
    8.0112601838019977E+00 
    9.1836605955360255E+00 
    1.2151615258241046E+01 
    9.1992056739374988E+00 
    4.5407209003555611E+00 
    7.9795208650218696E-01 
    6.8222548256190594E+00 
    1.3906260039822824E+01 
    8.5117975845518377E+00 
    1.0426888891732252E+01 
    9.9701061301879665E+00 
    1.1395800946630525E+01 
    9.2332673730067540E+00 
    1.2543906603496239E+01 
    1.5454948755883443E+01 
    1.0850323323992674E+01 
    1.3242627256045058E+01 
    4.8282906909240825E-01 
    1.2386774798607306E+01 
    5.0260498083308436E+00 
    1.4341810296753236E+01 
    9.1559597838643754E+00 
    8.1187628077057035E+00 
    6.9510034227544395E+00 
    4.7644518682390808E+00 
    1.0268429783656559E+01 
    7.2287256545171736E+00 
    1.1259946470607048E+01 
    1.9435289952610495E+00 
    1.0155931332222860E+01 
    1.2327144064233263E+01 
    5.5318973361805961E+00 
    1.2826663485318388E+01 
    1.4154381775669235E+01 
    1.2689451416964628E+01 
    9.0260886774612814E+00 
    9.2009321011119134E+00 
    9.1485571503382062E+00 
    5.1681280734945156E+00 
    8.2704697909785452E+00 
    8.1289680902215906E+00 
    9.1375838008352765E+00 
    8.4507901158691165E+00 
    6.0873868728566505E-01 
    5.7665938655896065E+00 
    8.8077700868135675E+00 
    9.1133885735057500E+00 
    1.1566160058922444E+01 
    1.9343398738392046E+00 
    9.5695952091119967E+00 
    9.4646330467533968E+00 
    3.3206983527720100E+00 
    1.2573928671127467E+01 
    7.8355130071696726E+00 
    9.3319944085042348E+00 
    1.2623226953795209E+01 
    4.7844608664359871E+00 
    1.2676510916286345E+01 
    7.9398281139730917E+00 
    8.8993808433020549E-01 
    8.5686953901437679E+00 
    1.3198021377464976E+01 
    1.2386834260463170E+01 
    1.2404984325393476E+01 
    9.5237945323434019E+00 
    9.4024625478151975E+00 
    7.8166595060721678E+00 
    6.2614039594010862E+00 
    1.2722616470279110E+01 
    8.7012042788724475E+00 
    6.1157012793557080E+00 
    1.2399836346224491E+01 
    1.3022250174446768E+01 
    9.3315431436414613E+00 
    8.9778211169909969E+00 
    1.5337603530854061E+01 
    9.6069682152362503E+00 
    1.2741529490595553E+01 
    7.4196070198455697E+00 
    1.5483450811520598E+01 
    6.0657836763878468E+00 
    8.2083734225780525E+00 
    6.8059882833499916E+00 
    9.8147843924848477E+00 
    7.7962279902510145E+00 
    1.5467195834128715E+01 
    9.6502743849929544E+00 
    1.2096694921325414E+01 
    6.2413142821262264E+00 
    9.2305128451388487E+00 
    1.2597123926071797E+01 
    7.8233817082360764E+00 
    6.5109599380018803E+00 
    1.0081544033811307E+01 
    1.2814901085358702E+01 
    6.7019489324411010E+00 
    8.6566246553900790E+00 
    9.0055798611649056E+00 
    1.2364727416666533E+01 
    8.8171868856397282E+00 
    1.2786200927202318E+01 
    1.3361039505546522E+01 
    7.8409406113151654E+00 
    7.6803127211630215E+00 
    7.2743996750133126E+00 
    1.2491464159843229E+01 
    9.4674351736635618E+00 
    1.5048116790617174E+01 
    1.1780944391355400E+01 
    1.2558826731412564E+01 
    1.4746746666040901E+01 
    1.4162191504666723E+01 
    9.2777350120307869E+00 
    9.1228617022488425E+00 
    1.2179872289844228E+01 
    1.2420650344159396E+01 
    1.2881859098317864E+01 
    1.2645904461048021E+01 
    1.5356595760635203E+01 
    9.6065560702307291E+00 
    7.9334228142243592E+00 
    9.5825489004049906E+00 
    1.3280880191303295E+01 
    9.3706993499849354E+00 
    5.3966103984734373E+00 
    9.0106261051889565E+00 
    1.3671888467896459E+01 
    9.4973112489898650E+00 
    7.9427504103358073E+00 
    8.9428897990200760E+00 
    1.3776726260565376E+01 
    1.2418032451929788E+01 
    7.5273049096231599E+00 
    1.3906188065421595E+01 
    9.3063895421829912E+00 
    1.2881555819025616E+01 
    1.3789261430433092E+01 
    9.6720801004916979E+00 
    4.7869684794394303E+00 
    1.0052146232052010E+01 
    4.9540067800485108E+00 
    9.4171703067655024E+00 
    9.2186315853354692E+00 
    1.0578045477323277E+01 
    5.2394018014157302E+00 
    1.1227659331920645E+01 
    9.2427842023460567E+00 
    1.2637169467906551E+01 
    9.6409526942985764E+00 
    7.3418022490368777E+00 
    8.8287146459799146E+00 
    9.6881486392408913E+00 
    9.7017837886047520E+00 
    1.3401664844878665E+01 
    7.5715507137715630E+00 
    7.4392783368554802E+00 
    5.5144029190909514E+00 
    1.2905251058865897E+01 
    8.8658116165705803E+00 
    1.2229990379316526E+01 
    9.1899403499146821E+00 
    6.0410976990620417E+00 
    1.2443161721866485E+01 
    9.1626167740965005E+00 
    6.6006554479493342E+00 
    7.0036095775591356E+00 
    7.2581585616701627E+00 
    1.2664265454899384E+01 
    9.1395320476176369E+00 
    1.3252711424027606E+01 
    9.1151247340084982E+00 
    9.0429738569064355E+00 
    8.5773141103961912E+00 
    1.2518103750448049E+01 
    8.9552351846169511E+00 
    7.2961704120955240E+00 
    1.4150095250428315E+01 
    1.2590910705983136E+01 
    6.3592227148332920E+00 
    2.4397998089029982E+00 
    9.1288983670866148E+00 
    8.5824037680549541E+00 
    7.6739558384233577E+00 
    8.3919278778568565E+00 
    1.2569279565305964E+01 
    8.8486594093445916E+00 
    7.9874034620195022E+00 
    1.2440198749280981E+01 
    6.3011503094277668E+00 
    1.2143895288700035E+01 
    8.2995278696753125E+00 
    7.2291909110075654E+00 
    7.7494712377526662E+00 
    1.2960152781633221E+01 
    9.2094218090120421E+00 
    9.2178286715380313E+00 
    5.3197267772994374E+00 
    5.7592315544603530E+00 
    1.1528156966138145E+01 
    9.2279917221375154E+00 
    9.1712324444148106E+00 
    1.3891672884379535E+01 
    7.4417920935990853E+00 
    9.2403220616892057E+00 
    6.5177481383920153E+00 
    6.7242051847530204E+00 
    1.2510450428530346E+01 
    8.8496341487683061E+00 
    6.3618890244047002E+00 
    9.6971353248919225E+00 
    9.0897120657025354E+00 
    1.2513806579563390E+01 
    1.3980464602564583E+01 
    9.3820643036092943E-01 
    9.1336822150655266E+00 
    9.4583904598014072E+00 
    1.2573024879961483E+01 
    8.6386174462787810E+00 
    9.1819116764047841E+00 
    1.3448998663050579E+01 
    7.7822485942040691E+00 
    6.4196210453522156E+00 
    1.1125278326499590E+01 
    1.2399146006912503E+01 
    1.3333384507284519E+01 
    1.3587366092711797E+01 
    8.9801597215742088E+00 
    9.1257276304627624E+00 
    1.0331673345842905E+01 
    6.0382250900053069E+00 
    1.2513719170742812E+01 
    6.9269901522475967E+00 
    6.2921149324284960E+00 
    1.1500477409085370E+01 
    1.0822182576247883E+01 
    6.1691594796579192E+00 
    1.2431348549049156E+01 
    1.3320084219607121E+01 
    9.6208106824092230E+00 
    1.4077341874384755E+01 
    1.2460544807653514E+01 
    8.7141665744894148E+00 
    1.3077641743794249E+01 
    6.7290538249990242E+00 
    1.2415653946809938E+01 
    9.1328094076686739E+00 
    9.0935470167081220E+00 
    1.4052675105431927E+01 
    8.8958893084345192E+00 
    1.1237134555024179E+01 
    7.7351286257371212E+00 
    1.3429958889092822E+01 
    1.2332416222394503E+01 
    8.0780418916511714E+00 
    1.2377710330213761E+01 
    8.3066589174966374E+00 
    9.1930300829750955E+00 
    1.3282786746433974E+01 
    1.2639147494497541E+01 
    1.3323148008552078E+01 
    1.2575824281938772E+01 
    8.2760704587448988E+00 
    8.4858452602788326E+00 
    1.3329323139795155E+01 
    8.6030866724198418E+00 
    1.2272930929003092E+01 
    8.8876109058712895E+00 
    3.5836151509573217E+00 
    6.3606128434243114E+00 
    5.8833809672854871E+00 
    1.3285937576712868E+01 
    1.3986041325178183E+01 
    1.2394181756189090E+01 
    1.0668969838489936E+01 
    1.2651296821820447E+01 
    1.2437916887318718E+01 
    1.2966913480886577E+01 
    5.1345627453117686E+00 
    3.3415122121623022E+00 
    1.0475853089644614E+01 
    8.7914004860380732E+00 
    1.2570670002214934E+01 
    1.2568395015692619E+01 
    9.4751673909633318E+00 
    1.2601877246506799E+01 
    9.1202438829318755E+00 
    9.0223038669656361E+00 
    4.6320127518950800E+00 
    3.3281191609067866E+00 
    1.3774056282893893E+01 
    7.1452742057424086E+00 
    8.0230941391317643E+00 
    9.3796670102466457E+00 
    1.5338689488950525E+01 
    9.4669981415486149E+00 
    9.4073308974666396E+00 
    3.7861830598674358E+00 
    9.4676156488173131E+00 
    9.4801334132889838E+00 
    1.2854923392938824E+01 
    7.7534185941628815E+00 
    8.7683505928062537E+00 
    1.3933345289127349E+01 
    9.1420761269459163E+00 
    1.2408484486435997E+01 
    1.2638935658548233E+01 
    1.1357817531599395E+01 
    7.7607800923561792E+00 
    1.2575157486815336E+01 
    8.9357574412324610E+00 
    1.2586025722844077E+01 
    1.2352493365384735E+01 
    1.3303647017247686E+01 
    1.2574496412851035E+01 
    1.1830829229604298E+01 
    9.1309960271944739E+00 
    6.1212266788986609E+00 
    1.5214133280645463E+01 
    7.0699335105496992E+00 
    1.3240581723225041E+01 
    9.1284153720232926E+00 
    7.4789388288262755E+00 
    4.4812872208093086E+00 
    9.5118143905078618E+00 
    1.2563510532572293E+01 
    1.2559393669725756E+01 
    9.1722454336441199E+00 
    9.1226080165109238E+00 
    1.4131496899408063E+01 
    1.3533491531905767E+01 
    9.4839063313317595E+00 
    3.1098525708475933E+00 
    1.1801748160737224E+01 
    1.5465231989615070E+01 
    9.1343165205572738E+00 
    1.1004925905858130E+01 
    8.6348003522038947E+00 
    1.5074798572899740E+01 
    1.3607437512599654E+01 
    1.3355884912826275E+01 
    9.5037666670892058E+00 
    4.1750690428904660E+00 
    8.5943389733778535E+00 
    8.6603868635730610E+00 
    8.7057960933741434E+00 
    3.3831266405842286E+00 