# vtk DataFile Version 2.0
Pressure Field Data 
ASCII 
DATASET UNSTRUCTURED_GRID 

POINTS 2860 double 

    0.0000000000000000E+00     0.0000000000000000E+00     0.0000000000000000E+00 
    1.0000000000000000E+00     0.0000000000000000E+00     0.0000000000000000E+00 
    1.0000000000000000E+00     1.0000000000000000E+00     0.0000000000000000E+00 
    0.0000000000000000E+00     1.0000000000000000E+00     0.0000000000000000E+00 
    2.5000000000000000E-01     2.5000000000000000E-01     0.0000000000000000E+00 
    7.5000000000000000E-01     2.5000000000000000E-01     0.0000000000000000E+00 
    7.5000000000000000E-01     7.5000000000000000E-01     0.0000000000000000E+00 
    2.5000000000000000E-01     7.5000000000000000E-01     0.0000000000000000E+00 
    3.1249999999942091E-02     0.0000000000000000E+00     0.0000000000000000E+00 
    6.2499999999873469E-02     0.0000000000000000E+00     0.0000000000000000E+00 
    9.3749999999826514E-02     0.0000000000000000E+00     0.0000000000000000E+00 
    1.2499999999977961E-01     0.0000000000000000E+00     0.0000000000000000E+00 
    1.5624999999968961E-01     0.0000000000000000E+00     0.0000000000000000E+00 
    1.8749999999959971E-01     0.0000000000000000E+00     0.0000000000000000E+00 
    2.1874999999950970E-01     0.0000000000000000E+00     0.0000000000000000E+00 
    2.4999999999941969E-01     0.0000000000000000E+00     0.0000000000000000E+00 
    2.8124999999932920E-01     0.0000000000000000E+00     0.0000000000000000E+00 
    3.1249999999923850E-01     0.0000000000000000E+00     0.0000000000000000E+00 
    3.4374999999914790E-01     0.0000000000000000E+00     0.0000000000000000E+00 
    3.7499999999905720E-01     0.0000000000000000E+00     0.0000000000000000E+00 
    4.0624999999896660E-01     0.0000000000000000E+00     0.0000000000000000E+00 
    4.3749999999887590E-01     0.0000000000000000E+00     0.0000000000000000E+00 
    4.6874999999878530E-01     0.0000000000000000E+00     0.0000000000000000E+00 
    4.9999999999869471E-01     0.0000000000000000E+00     0.0000000000000000E+00 
    5.3124999999877620E-01     0.0000000000000000E+00     0.0000000000000000E+00 
    5.6249999999885780E-01     0.0000000000000000E+00     0.0000000000000000E+00 
    5.9374999999893940E-01     0.0000000000000000E+00     0.0000000000000000E+00 
    6.2499999999902101E-01     0.0000000000000000E+00     0.0000000000000000E+00 
    6.5624999999910261E-01     0.0000000000000000E+00     0.0000000000000000E+00 
    6.8749999999918421E-01     0.0000000000000000E+00     0.0000000000000000E+00 
    7.1874999999926570E-01     0.0000000000000000E+00     0.0000000000000000E+00 
    7.4999999999934730E-01     0.0000000000000000E+00     0.0000000000000000E+00 
    7.8124999999942890E-01     0.0000000000000000E+00     0.0000000000000000E+00 
    8.1249999999951039E-01     0.0000000000000000E+00     0.0000000000000000E+00 
    8.4374999999959199E-01     0.0000000000000000E+00     0.0000000000000000E+00 
    8.7499999999967359E-01     0.0000000000000000E+00     0.0000000000000000E+00 
    9.0624999999975520E-01     0.0000000000000000E+00     0.0000000000000000E+00 
    9.3749999999983680E-01     0.0000000000000000E+00     0.0000000000000000E+00 
    9.6874999999991840E-01     0.0000000000000000E+00     0.0000000000000000E+00 
    1.0000000000000000E+00     3.1249999999942091E-02     0.0000000000000000E+00 
    1.0000000000000000E+00     6.2499999999873469E-02     0.0000000000000000E+00 
    1.0000000000000000E+00     9.3749999999826514E-02     0.0000000000000000E+00 
    1.0000000000000000E+00     1.2499999999977961E-01     0.0000000000000000E+00 
    1.0000000000000000E+00     1.5624999999968961E-01     0.0000000000000000E+00 
    1.0000000000000000E+00     1.8749999999959971E-01     0.0000000000000000E+00 
    1.0000000000000000E+00     2.1874999999950970E-01     0.0000000000000000E+00 
    1.0000000000000000E+00     2.4999999999941969E-01     0.0000000000000000E+00 
    1.0000000000000000E+00     2.8124999999932920E-01     0.0000000000000000E+00 
    1.0000000000000000E+00     3.1249999999923850E-01     0.0000000000000000E+00 
    1.0000000000000000E+00     3.4374999999914790E-01     0.0000000000000000E+00 
    1.0000000000000000E+00     3.7499999999905720E-01     0.0000000000000000E+00 
    1.0000000000000000E+00     4.0624999999896660E-01     0.0000000000000000E+00 
    1.0000000000000000E+00     4.3749999999887590E-01     0.0000000000000000E+00 
    1.0000000000000000E+00     4.6874999999878530E-01     0.0000000000000000E+00 
    1.0000000000000000E+00     4.9999999999869471E-01     0.0000000000000000E+00 
    1.0000000000000000E+00     5.3124999999877620E-01     0.0000000000000000E+00 
    1.0000000000000000E+00     5.6249999999885780E-01     0.0000000000000000E+00 
    1.0000000000000000E+00     5.9374999999893940E-01     0.0000000000000000E+00 
    1.0000000000000000E+00     6.2499999999902101E-01     0.0000000000000000E+00 
    1.0000000000000000E+00     6.5624999999910261E-01     0.0000000000000000E+00 
    1.0000000000000000E+00     6.8749999999918421E-01     0.0000000000000000E+00 
    1.0000000000000000E+00     7.1874999999926570E-01     0.0000000000000000E+00 
    1.0000000000000000E+00     7.4999999999934730E-01     0.0000000000000000E+00 
    1.0000000000000000E+00     7.8124999999942890E-01     0.0000000000000000E+00 
    1.0000000000000000E+00     8.1249999999951039E-01     0.0000000000000000E+00 
    1.0000000000000000E+00     8.4374999999959199E-01     0.0000000000000000E+00 
    1.0000000000000000E+00     8.7499999999967359E-01     0.0000000000000000E+00 
    1.0000000000000000E+00     9.0624999999975520E-01     0.0000000000000000E+00 
    1.0000000000000000E+00     9.3749999999983680E-01     0.0000000000000000E+00 
    1.0000000000000000E+00     9.6874999999991840E-01     0.0000000000000000E+00 
    9.6875000000003686E-01     1.0000000000000000E+00     0.0000000000000000E+00 
    9.3750000000011691E-01     1.0000000000000000E+00     0.0000000000000000E+00 
    9.0625000000015765E-01     1.0000000000000000E+00     0.0000000000000000E+00 
    8.7500000000017863E-01     1.0000000000000000E+00     0.0000000000000000E+00 
    8.4375000000028044E-01     1.0000000000000000E+00     0.0000000000000000E+00 
    8.1250000000040856E-01     1.0000000000000000E+00     0.0000000000000000E+00 
    7.8125000000054956E-01     1.0000000000000000E+00     0.0000000000000000E+00 
    7.5000000000066480E-01     1.0000000000000000E+00     0.0000000000000000E+00 
    7.1875000000086831E-01     1.0000000000000000E+00     0.0000000000000000E+00 
    6.8750000000102829E-01     1.0000000000000000E+00     0.0000000000000000E+00 
    6.5625000000114431E-01     1.0000000000000000E+00     0.0000000000000000E+00 
    6.2500000000129829E-01     1.0000000000000000E+00     0.0000000000000000E+00 
    5.9375000000147926E-01     1.0000000000000000E+00     0.0000000000000000E+00 
    5.6250000000168354E-01     1.0000000000000000E+00     0.0000000000000000E+00 
    5.3125000000188671E-01     1.0000000000000000E+00     0.0000000000000000E+00 
    5.0000000000205835E-01     1.0000000000000000E+00     0.0000000000000000E+00 
    4.6875000000192979E-01     1.0000000000000000E+00     0.0000000000000000E+00 
    4.3750000000180111E-01     1.0000000000000000E+00     0.0000000000000000E+00 
    4.0625000000167238E-01     1.0000000000000000E+00     0.0000000000000000E+00 
    3.7500000000154382E-01     1.0000000000000000E+00     0.0000000000000000E+00 
    3.4375000000141509E-01     1.0000000000000000E+00     0.0000000000000000E+00 
    3.1250000000128642E-01     1.0000000000000000E+00     0.0000000000000000E+00 
    2.8125000000115769E-01     1.0000000000000000E+00     0.0000000000000000E+00 
    2.5000000000102918E-01     1.0000000000000000E+00     0.0000000000000000E+00 
    2.1875000000090050E-01     1.0000000000000000E+00     0.0000000000000000E+00 
    1.8750000000077180E-01     1.0000000000000000E+00     0.0000000000000000E+00 
    1.5625000000064329E-01     1.0000000000000000E+00     0.0000000000000000E+00 
    1.2500000000051459E-01     1.0000000000000000E+00     0.0000000000000000E+00 
    9.3750000000385914E-02     1.0000000000000000E+00     0.0000000000000000E+00 
    6.2500000000257239E-02     1.0000000000000000E+00     0.0000000000000000E+00 
    3.1250000000128557E-02     1.0000000000000000E+00     0.0000000000000000E+00 
    0.0000000000000000E+00     9.6875000000003686E-01     0.0000000000000000E+00 
    0.0000000000000000E+00     9.3750000000011691E-01     0.0000000000000000E+00 
    0.0000000000000000E+00     9.0625000000015765E-01     0.0000000000000000E+00 
    0.0000000000000000E+00     8.7500000000017863E-01     0.0000000000000000E+00 
    0.0000000000000000E+00     8.4375000000028044E-01     0.0000000000000000E+00 
    0.0000000000000000E+00     8.1250000000040856E-01     0.0000000000000000E+00 
    0.0000000000000000E+00     7.8125000000054956E-01     0.0000000000000000E+00 
    0.0000000000000000E+00     7.5000000000066480E-01     0.0000000000000000E+00 
    0.0000000000000000E+00     7.1875000000086831E-01     0.0000000000000000E+00 
    0.0000000000000000E+00     6.8750000000102829E-01     0.0000000000000000E+00 
    0.0000000000000000E+00     6.5625000000114431E-01     0.0000000000000000E+00 
    0.0000000000000000E+00     6.2500000000129829E-01     0.0000000000000000E+00 
    0.0000000000000000E+00     5.9375000000147926E-01     0.0000000000000000E+00 
    0.0000000000000000E+00     5.6250000000168354E-01     0.0000000000000000E+00 
    0.0000000000000000E+00     5.3125000000188671E-01     0.0000000000000000E+00 
    0.0000000000000000E+00     5.0000000000205835E-01     0.0000000000000000E+00 
    0.0000000000000000E+00     4.6875000000192979E-01     0.0000000000000000E+00 
    0.0000000000000000E+00     4.3750000000180111E-01     0.0000000000000000E+00 
    0.0000000000000000E+00     4.0625000000167238E-01     0.0000000000000000E+00 
[...]
CELL_DATA 2795 
SCALARS Pressure double 1 
LOOKUP_TABLE default 

    5.8697726260904188E+00 
    1.3491377520503491E+01 
    9.5191878245361661E+00 
    9.1223257256056876E+00 
    7.2326879592319928E+00 
    1.3371827188579195E+01 
    1.4059909328447455E+01 
    5.2363150491917096E+00 
    1.0072468712650432E+01 
    7.6923638912347894E+00 
    6.5540854218079945E+00 
    1.3130266392265135E+01 
    1.3401042998327156E+01 
    1.3342585066181773E+01 
    8.7823171963314355E+00 
    5.1483626575852304E+00 
    8.3823985475969351E+00 
    6.9826418738469931E+00 
    1.2789076845186836E+01 
    9.5097325050418249E+00 
    9.4035964071084539E+00 
    1.3281198464651618E+01 
    8.8688581279791041E+00 
    3.4410711015150475E-01 
    1.3120188446843697E+01 
    1.3374638034521022E+01 
    1.4089878991958559E+01 
    6.2997310185473827E+00 
    1.3055215566443319E+01 
    1.4085359533939702E+01 
    9.5610921570244773E+00 
    9.7350833357144086E+00 
    6.8083230168931488E+00 
    9.4811166425877538E+00 
    3.0342668171560501E+00 
    8.3876398176287399E+00 
    9.4709688019992146E+00 
    1.4123652544446212E+01 
    1.4038306843338990E+01 
    1.3142461187939052E+01 
    7.1655477664374034E+00 
    1.3095988457373185E+01 
    7.1653444976432434E-01 
    9.3599060089286432E+00 
    1.3859002178633521E+01 
    1.3701737423935359E+01 
    1.3120146924999025E+01 
    1.0403340706514861E+01 
    1.3188303216602913E+01 
    8.5789177586314604E+00 
    8.1672534315457401E+00 
    9.7018009552014099E+00 
    9.2511218211367527E+00 
    8.4315346108558398E+00 
    9.6294932946096399E+00 
    1.2591684666856624E+01 
    1.1356093231985721E+01 
    7.2722254326093143E+00 
    1.3285053515918506E+01 
    1.3212583179646380E+01 
    9.1231454149041937E+00 
    9.1528480123905211E+00 
    9.0293859140261201E+00 
    1.3991960276300537E+01 
    1.4232019060144808E+01 
    8.3920749218652464E+00 
    9.6997759771048155E+00 
    1.3033551164078656E+01 
    1.1154545711844355E+01 
    9.1933807111781825E+00 
    1.4242663516664289E+01 
    1.3225004187463393E+01 
    8.2733868817753358E+00 
    1.3796509245122706E+01 
    9.8631555252574383E+00 
    1.2980298683632892E+01 
    1.4133522880423838E+01 
    9.8619722540388555E+00 
    5.9872718377360705E+00 
    9.7190561585701367E+00 
    1.4046624345999188E+01 
    1.4272429688018036E+01 
    8.4039755898610533E+00 
    9.6304570147909381E+00 
    1.4313827135140711E+01 
    9.4743254493665248E+00 
    8.9503615838375712E+00 
    1.1545878651991298E+01 
    5.7080310817698701E+00 
    8.1890978614106675E+00 
    9.6301205542368979E+00 
    1.0211048759012215E+01 
    1.5741553947384340E+01 
    7.0264461462428676E+00 
    9.7080507933344578E+00 
    1.3099273493347662E+01 
    1.3354885393659885E+01 
    6.1771687527713510E+00 
    9.3475776569847664E+00 
    9.6601727245235178E+00 
    1.3374316027775370E+01 
    9.6627493469871375E+00 
    1.3309613843374400E+01 
    3.7484575759749030E+00 
    6.3713370570280778E+00 
    9.9362376792940275E+00 
    1.3499506751769554E+01 
    8.3539679555431476E+00 
    8.9139335694454598E+00 
    9.6487463201962242E+00 
    8.9187290176440861E+00 
    1.0978727836942621E+01 
    8.6651654329861429E+00 
    8.2809976474985074E+00 
    6.5019432118653633E+00 
    1.1289044022196963E+01 
    9.7348009666550226E+00 
    1.3907929489041935E+01 
    8.3521133286497644E+00 
    9.1059041041170161E+00 
    1.3214119111241859E+01 
    7.5755619453307652E+00 
    1.3640393549867325E+01 
    9.5520918177713909E+00 
    9.0375752706549282E+00 
    1.3356877565336813E+01 
    9.7329380456437171E+00 
    1.4143021450184621E+01 
    1.1556840973719083E+01 
    1.2449354670847249E+01 
    1.4105901857738463E+01 
    7.0408699134202006E+00 
    9.9574132344068627E+00 
    1.3358777149142698E+01 
    2.8101592573876335E+00 
    9.6084407197716502E+00 
    1.4073863994841920E+01 
    9.0661564380558648E+00 
    1.0484909416371465E+01 
    6.1268972067042720E+00 
    1.3097750523191845E+01 
    1.6225599006431914E+01 
    1.1998568450673465E+01 
    9.0640825517079886E+00 
    8.0940152488892938E+00 
    1.0303989072928653E+01 
    9.5691479438562350E+00 
    6.6239916811372899E+00 
    1.4101870486392260E+01 
    1.3448950241480150E+01 
    1.3100884611692349E+01 
    1.0211107894416314E+01 
    8.2448980307898729E+00 
    9.4024191981652390E+00 
    1.3822783052459661E+01 
    8.4857001696388288E+00 
    9.5131799172394960E+00 
    8.6429694498801393E+00 
    1.1043447148451264E+01 
    1.6213968752364543E+01 
    1.3092893373831602E+01 
    8.1989676212571094E+00 
    1.3540298351801191E+01 
    1.3460420833779942E+01 
    1.3536988452156621E+01 
    1.4506144757582895E+01 
    1.5033806468507747E+01 
    1.3699844708333034E+01 
    9.6909628257537523E+00 
    1.0362212143385749E+01 
    1.3534364799676954E+01 
    1.3918612694409923E+01 
    6.9160930328922348E+00 
    1.3119769052895876E+01 
    1.3786517958963513E+01 
    6.7330502982143550E+00 
    1.4424044775945983E+01 
    1.4409273101007576E+01 
    1.2854983746101910E+01 
    1.0020150795821559E+01 
    2.4680455166269382E+00 
    1.4074385684245621E+01 
    9.8774796870244543E+00 
    1.4191125664293143E+01 
    9.0000603718492247E+00 
    1.3916908087397779E+01 
    8.7723318714746545E-01 
    1.2467136889982120E+01 
    9.1963348553771045E+00 
    8.2069118603521094E+00 
    7.9951543554159468E+00 
    9.5222551144942038E+00 
    1.0650705931268115E+01 
    9.8879500436167724E+00 
    6.5999756295565941E+00 
    1.3914067697539494E+01 
    1.3382289126630333E+01 
    1.1274560601612215E+01 
    9.9299343466329972E+00 
    1.4362814420899679E+00 
    7.3698468953244420E+00 
    5.0874444339104841E+00 
    1.4096091318370883E+01 
    1.0809828620930162E+01 
    1.3435146398830632E+01 
    1.3445303279448179E+01 
    8.5602726481562410E+00 
    1.1321076904088848E+01 
    1.3096681044350948E+01 
    1.4391809521675235E+01 
    6.1034514154288226E+00 
    1.1822235006117388E+01 
    9.9213894139780159E+00 
    5.4285912825835663E+00 
    8.5534949608652209E+00 
    1.1821342629389269E+01 
    1.3409038866867313E+01 
    9.5772507688273034E+00 
    1.3515287744062839E+01 
    1.3290201832937999E+01 
    1.3241876427337134E+01 
    9.4090360837386449E+00 
    8.1497294961230740E+00 
    1.3108432055517364E+01 
    8.2676673566017698E+00 
    9.6670681482552006E+00 
    8.1026383518712333E+00 
    9.4589302356581548E+00 
    1.3453557743515386E+01 
    5.9895104128786256E+00 
    8.4666728079358897E+00 
    1.4012544453269932E+01 
    9.4222646675661998E+00 
    1.0699938896727142E+01 
    6.1461481652750525E+00 
    8.3290221730592418E+00 
    1.3269243203946916E+01 
    1.3568831910083308E+01 
    5.0049898427198896E+00 
    9.4259807470904970E+00 
    8.1406658655499697E+00 
    1.4804303432565010E+01 
    1.4279786983270839E+01 
    1.5059948718803676E+01 
    9.4462979917610426E+00 
    1.3428530078787638E+01 
    1.3056271549535793E+01 
    9.3225456235818225E+00 
    1.3101219999017022E+01 
    9.9311872770157876E+00 
    5.4990186358023827E+00 
    9.6632910559338505E+00 
    1.3999847018640944E+01 
    1.3098190474605508E+01 
    6.5199263472393643E+00 
    1.3126376409257459E+01 
    1.0648348757518445E+01 
    9.5897256065577761E+00 
    9.1407585378993197E+00 
    1.2972138493817045E+01 
    1.0140478838368784E+01 
    1.3113547373286778E+01 
    9.3003898356728225E+00 
    5.6994572098730272E+00 
    9.7364045751535393E+00 
    8.0043569247991719E+00 
    1.1999987865917282E+01 
    1.4189550109076656E+01 
    1.3106951202222229E+01 
    1.4067566458425079E+01 
    9.3720861908888242E+00 
    6.3475638595067538E+00 
    6.4386638057355565E+00 
    9.7758060579114865E+00 
    9.6439039857336013E+00 
    1.3639292482500265E+00 
    1.2639684032165743E+01 
    1.4531903781081107E+01 
    9.0123507777083542E+00 
    5.7323635991496058E+00 
    1.1002737199316872E+01 
    1.3125036249290890E+01 
    6.8082331065139572E+00 
    4.6058429447946478E+00 
    9.6184694815264269E+00 
    1.3213602658706323E+01 
    1.3822081110902293E+01 
    1.3716626808011224E+01 
    1.3572706808635465E+01 
    6.6420292766735027E+00 
    9.5830047494626154E+00 
    1.2662007246701297E+01 
    7.5510052895729896E+00 
    1.3388671011663023E+01 
    1.1540616573950569E+01 
    6.5380742717892497E+00 
    1.3229113753476947E+01 
    1.4096870232833824E+01 
    1.3234188778100316E+01 
    6.5539654055877703E+00 
    9.6956727964065639E+00 
    7.2081577909703221E+00 
    9.1469331818006232E+00 
    1.3116857683846854E+01 
    1.3105589769442259E+01 
    6.5923766999541886E+00 
    1.3954923280840996E+01 
    1.0230841916079967E+01 
    1.3140020837110885E+01 
    1.3923976392422777E+01 
    1.3125922700230907E+01 
    1.2232104139772519E+01 
    1.4856434143661735E+01 
    8.9721883537199005E+00 
    1.4038296102274284E+01 
    1.3169976526220710E+01 
    1.4107894636077283E+01 
    1.3948398204229424E+01 
    9.0681609370900702E+00 
    9.5116083738691852E+00 
    9.0030265524180155E+00 
    1.1764800317728721E+01 
    3.7597961343672459E+00 
    9.7084153931456179E+00 
    1.4980365774827497E+01 
    9.9319106313295649E+00 
    1.0112111278580224E+01 
    1.4081898962660713E+01 
    1.4306267925878986E+01 
    8.9136862493669486E+00 
    1.3130508531619324E+01 
    1.3101960011164536E+01 
    1.0100239438697402E+01 
    1.3905232463238288E+01 
    6.8691262556971058E+00 
    4.3538132166893346E+00 
    1.0370013504600172E+01 
    9.9462244738022907E+00 
    1.3107785079494898E+01 
    6.1600674355481750E+00 
    1.3635421733555093E+01 
    4.4322269077405272E+00 
    9.8794425316265233E+00 
    9.1109800396943932E+00 
    9.6707133675437689E+00 
    1.6265082321318907E+01 
    3.6539191179875163E+00 
    9.6258796814819938E+00 
    1.1480036062539549E+01 
    9.2772189963862548E+00 
    7.2635613720754018E+00 
    1.3745256812248289E+01 
    1.5827462177195235E+01 
    1.3886803655873670E+01 
    9.5674618283266462E+00 
    5.3998516997600365E+00 
    1.5683649380757380E+01 
    1.3371214128003187E+01 
    6.9599177711370981E+00 
    9.2049099006736430E+00 
    1.4490578871807754E+01 
    3.1066640247525834E+00 
    9.9943580906917759E+00 
    1.3853260151068547E+01 
    9.6844278900739091E+00 
    8.4323849504606887E+00 
    9.6652815504312315E+00 
    1.2873829633087361E+01 
    9.6638957292433201E+00 
    4.8071684813170119E+00 
    8.4811203640204635E-01 
    7.1987876213330297E+00 
    1.4701125086213452E+01 
    9.0024629879485225E+00 
    1.1000611304388960E+01 
    1.0464617723118009E+01 
    1.2070753212774077E+01 
    9.6984593138901953E+00 
    1.3283657295175589E+01 
    1.6279258534726331E+01 
    1.1456730257424393E+01 
    1.4012020029643416E+01 
    5.1101812136141767E-01 
    1.3107515571541196E+01 
    5.3201555363562765E+00 
    1.5146423130455283E+01 
    9.6394401135217151E+00 
    8.5643160923236543E+00 
    7.3535027756175095E+00 
    5.0438873964129911E+00 
    1.0825148893769480E+01 
    7.6266982534528855E+00 
    1.1898840157909008E+01 
    2.0638079467666368E+00 
    1.0679966470614564E+01 
    1.3043792861518591E+01 
    5.8403868343546952E+00 
    1.3578971020006087E+01 
    1.4952716979662359E+01 
    1.3430774764424465E+01 
    9.5077527223263480E+00 
    9.6657558642822394E+00 
    9.6321500587158120E+00 
    5.4711390161678102E+00 
    8.7475224765846491E+00 
    8.5978550645674403E+00 
    9.6212962938004694E+00 
    8.9371474549121430E+00 
    6.4537697131893379E-01 
    6.1109934453219461E+00 
    9.3167167391749146E+00 
    9.5967879980789714E+00 
    1.2227161473606786E+01 
    2.0448652369199167E+00 
    1.0061622546050309E+01 
    9.9508200636067645E+00 
    3.5133204309404595E+00 
    1.3304166354332290E+01 
    8.2870619447145923E+00 
    9.8062423532856169E+00 
    1.3367360137882759E+01 
    5.0652679132633631E+00 
    1.3417815910491253E+01 
    8.3977155296800365E+00 
    9.3891529641950833E-01 
    9.0621274679630694E+00 
    1.3966420137836678E+01 
    1.3107447312911253E+01 
    1.3125720768108202E+01 
    9.9859640471355178E+00 
    9.8839948425985042E+00 
    8.2673059191838423E+00 
    6.6362126033779223E+00 
    1.3472268088608818E+01 
    9.2028779063914481E+00 
    6.4716880608550591E+00 
    1.3121160310695990E+01 
    1.3783019765676974E+01 
    9.8066139237591869E+00 
    9.4681424987753218E+00 
    1.6159961700991250E+01 
    1.0101059876891931E+01 
    1.3490397398098214E+01 
    7.8484022363622925E+00 
    1.6307835406181081E+01 
    6.4009639536325329E+00 
    8.6677674023954907E+00 
    7.1785263828707349E+00 
    1.0321070143248043E+01 
    8.2224537100744843E+00 
    1.6291429623337773E+01 
    1.0146853835806601E+01 
    1.2814269367018619E+01 
    6.5852846737498760E+00 
    9.6960885802415024E+00 
    1.3339020209897738E+01 
    8.2529061487417739E+00 
    6.8981237969593590E+00 
    1.0672460339818905E+01 
    1.3561738079032049E+01 
    7.0664397067469391E+00 
    9.1304982437019078E+00 
    9.4956738390663755E+00 
    1.3084017237120003E+01 
    9.3037557320722541E+00 
    1.3535224691562485E+01 
    1.4135869040091288E+01 
    8.2929262838692317E+00 
    8.1233749582451455E+00 
    7.6642119500917110E+00 
    1.3219567658909089E+01 
    9.9620089856038536E+00 
    1.5866583086358645E+01 
    1.2440753047355193E+01 
    1.3299308059561726E+01 
    1.5558997676185166E+01 
    1.4960451908316767E+01 
    9.7448705301364811E+00 
    9.6064515464383202E+00 
    1.2885758621630305E+01 
    1.3143643333175289E+01 
    1.3639104730305492E+01 
    1.3390618344435973E+01 
    1.6179952857742979E+01 
    1.0100619497425463E+01 
    8.3907655727152779E+00 
    1.0096540252969405E+01 
    1.4052301303961292E+01 
    9.8501778255766403E+00 
    5.6988058382731248E+00 
    9.4920369864321756E+00 
    1.4457619121380420E+01 
    9.9853804460444326E+00 
    8.4007153572335618E+00 
    9.4371629935391450E+00 
    1.4565832906591510E+01 
    1.3150201406819210E+01 
    7.9614019832888445E+00 
    1.4699278255007734E+01 
    9.7781453493510941E+00 
    1.3635158392524406E+01 
    1.4578850074887072E+01 
    1.0229805464372014E+01 
    5.0689228689985137E+00 
    1.0641482675234599E+01 
    5.2464161629527304E+00 
    9.9010469692408360E+00 
    9.6849917784038109E+00 
    1.1203273112678101E+01 
    5.5489253179720057E+00 
    1.1892258976486806E+01 
    9.7086783966712602E+00 
    1.3381326016006721E+01 
    1.0203094634676377E+01 
    7.7663677068469088E+00 
    9.3173108240405913E+00 
    1.0169578806438690E+01 
    1.0200524407654319E+01 
    1.4178481135345471E+01 
    8.0083824227364921E+00 
    7.8688191262212133E+00 
    5.8396078365657562E+00 
    1.3662506259733231E+01 
    9.3563209513642143E+00 
    1.2952361939717138E+01 
    9.6545213777181793E+00 
    6.3954193971507065E+00 
    1.3177447141854518E+01 
    9.6295434320123832E+00 
    6.9848990232642185E+00 
    7.4095411000574591E+00 
    7.6780108551040422E+00 
    1.3410095770807549E+01 
    9.6232469184514162E+00 
    1.4022927019215578E+01 
    9.5879258675183188E+00 
    9.5257869414490202E+00 
    9.0505041792079162E+00 
    1.3256515417257713E+01 
    9.4437854635794469E+00 
    7.7178868375173906E+00 
    1.4948411156289271E+01 
    1.3333432595630864E+01 
    6.7091946898504267E+00 
    2.5795031892010845E+00 
    9.6128218996398580E+00 
    9.0570345016638054E+00 
    8.1164896716025403E+00 
    8.8596781766815056E+00 
    1.3301820715109377E+01 
    9.3279438763222284E+00 
    8.4445800109498634E+00 
    1.3164517140835100E+01 
    6.6485399420677256E+00 
    1.2847427887145971E+01 
    8.7527661570537827E+00 
    7.6483842226038874E+00 
    8.1964227698073007E+00 
    1.3717111074501686E+01 
    9.6740613678459884E+00 
    9.6825425683936590E+00 
    5.6312830154889326E+00 
    6.0954761128071837E+00 
    1.2213094926299869E+01 
    9.6932452952304367E+00 
    9.6522930819062545E+00 
    1.4684711387661167E+01 
    7.8716680569808402E+00 
    9.7066232137812047E+00 
    6.8770793544793172E+00 
    7.0946099673940664E+00 
    1.3249772690609305E+01 
    9.3352076562672401E+00 
    6.7317498590795433E+00 
    1.0218928004091325E+01 
    9.5717646763621005E+00 
    1.3252763474734472E+01 
    1.4775963444262674E+01 
    9.8927048118635685E-01 
    9.6176290842138314E+00 
    9.9445157254104313E+00 
    1.3314357474782874E+01 
    9.1335691750045793E+00 
    9.6479166462946466E+00 
    1.4228734542697266E+01 
    8.2310947644865671E+00 
    6.7927562697801402E+00 
    1.1728369774751595E+01 
    1.3120614826323196E+01 
    1.4106812728815353E+01 
    1.4369189782470427E+01 
    9.4630903667013371E+00 
    9.6094138974290235E+00 
    1.0891949864149542E+01 
    6.3716914100385269E+00 
    1.3242760672799800E+01 
    7.3280108496875087E+00 
    6.6386693940604236E+00 
    1.2144930418559966E+01 
    1.1422232414813363E+01 
    6.5093184337553698E+00 
    1.3154997943899170E+01 
    1.4093130937376648E+01 
    1.0115684123268883E+01 
    1.4875632675178235E+01 
    1.3186301467815936E+01 
    9.2010548723300580E+00 
    1.3840559467200672E+01 
    7.0993305007080387E+00 
    1.3138317065218969E+01 
    9.6166305193031025E+00 
    9.5783924480974765E+00 
    1.4851041751464859E+01 
    9.3884315425615288E+00 
    1.1869329974129798E+01 
    8.1812533121097193E+00 
    1.4207423729887733E+01 
    1.3049495155325845E+01 
    8.5423005034197228E+00 
    1.3097365461115139E+01 
    8.7658858975853917E+00 
    9.6582194911819030E+00 
    1.4054140201151988E+01 
    1.3384951773287307E+01 
    1.4096255406947417E+01 
    1.3317407490951377E+01 
    8.7531264556540886E+00 
    8.9654103708304085E+00 
    1.4102843641229878E+01 
    9.0868484701195609E+00 
    1.2985321668609215E+01 
    9.3789996193099565E+00 
    3.7910110259447345E+00 
    6.7095744662951411E+00 
    6.2091416257022223E+00 
    1.4057532384398291E+01 
    1.4782004160913925E+01 
    1.3114814962837727E+01 
    1.1213844745709064E+01 
    1.3389501568670289E+01 
    1.3162058612199512E+01 
    1.3721681568235596E+01 
    5.4361860059950455E+00 
    3.5341710988312172E+00 
    1.1014555281403780E+01 
    9.2903696059212653E+00 
    1.3303266771324362E+01 
    1.3300861722049461E+01 
    9.9647963964323356E+00 
    1.3336405913090530E+01 
    9.6038778755765062E+00 
    9.5292014030811689E+00 
    4.9035932245813720E+00 
    3.5204464832436151E+00 
    1.4562896856351973E+01 
    7.5384502598277487E+00 
    8.4857825703511107E+00 
    9.8585761233609208E+00 
    1.6161406919706572E+01 
    9.9538575369565514E+00 
    9.9360384087556550E+00 
    4.0059963941566670E+00 
    9.9548665427979124E+00 
    9.9684390238696849E+00 
    1.3608586609229899E+01 
    8.2012038552671438E+00 
    9.2450527125115070E+00 
    1.4727387940685650E+01 
    9.6257785142964600E+00 
    1.3130199349973054E+01 
    1.3378924787383900E+01 
    1.1952439354254603E+01 
    8.1902656156918336E+00 
    1.3316865607225282E+01 
    9.4238174224574784E+00 
    1.3319939116745765E+01 
    1.3071000506038432E+01 
    1.4076028727138285E+01 
    1.3315637722361018E+01 
    1.2509748960694182E+01 
    9.6147716287513845E+00 
    6.4591210494909719E+00 
    1.6035132075115882E+01 
    7.4790344927391939E+00 
    1.4008972069012154E+01 
    9.6122305372099852E+00 
    7.9120073884286830E+00 
    4.7354878465311847E+00 
    1.0002838831494245E+01 
    1.3304409415592025E+01 
    1.3300558375334523E+01 
    9.6388038063365684E+00 
    9.6065122492243677E+00 
    1.4930744572004587E+01 
    1.4313567411066435E+01 
    9.9716484437479309E+00 
    3.2886249815736002E+00 
    1.2472875303994778E+01 
    1.6289176867751205E+01 
    9.6180297358406825E+00 
    1.1577290481296318E+01 
    9.1310527824226728E+00 
    1.5893191319869246E+01 
    1.4390659277949180E+01 
    1.4132385296896356E+01 
    9.9923583370768743E+00 
    4.4153019476798887E+00 
    9.0893756781219910E+00 
    9.1560987785114616E+00 
    9.1982831751286351E+00 
    3.5796301020193471E+00 