# vtk DataFile Version 2.0
Pressure Field Data 
ASCII 
DATASET UNSTRUCTURED_GRID 

POINTS 2860 double 

    0.0000000000000000E+00     0.0000000000000000E+00     0.0000000000000000E+00 
    1.0000000000000000E+00     0.0000000000000000E+00     0.0000000000000000E+00 
    1.0000000000000000E+00     1.0000000000000000E+00     0.0000000000000000E+00 
    0.0000000000000000E+00     1.0000000000000000E+00     0.0000000000000000E+00 
    2.5000000000000000E-01     2.5000000000000000E-01     0.0000000000000000E+00 
    7.5000000000000000E-01     2.5000000000000000E-01     0.0000000000000000E+00 
    7.5000000000000000E-01     7.5000000000000000E-01     0.0000000000000000E+00 
    2.5000000000000000E-01     7.5000000000000000E-01     0.0000000000000000E+00 
    3.1249999999942091E-02     0.0000000000000000E+00     0.0000000000000000E+00 
    6.2499999999873469E-02     0.0000000000000000E+00     0.0000000000000000E+00 
    9.3749999999826514E-02     0.0000000000000000E+00     0.0000000000000000E+00 
    1.2499999999977961E-01     0.0000000000000000E+00     0.0000000000000000E+00 
    1.5624999999968961E-01     0.0000000000000000E+00     0.0000000000000000E+00 
    1.8749999999959971E-01     0.0000000000000000E+00     0.0000000000000000E+00 
    2.1874999999950970E-01     0.0000000000000000E+00     0.0000000000000000E+00 
    2.4999999999941969E-01     0.0000000000000000E+00     0.0000000000000000E+00 
    2.8124999999932920E-01     0.0000000000000000E+00     0.0000000000000000E+00 
    3.1249999999923850E-01     0.0000000000000000E+00     0.0000000000000000E+00 
    3.4374999999914790E-01     0.0000000000000000E+00     0.0000000000000000E+00 
    3.7499999999905720E-01     0.0000000000000000E+00     0.0000000000000000E+00 
    4.0624999999896660E-01     0.0000000000000000E+00     0.0000000000000000E+00 
    4.3749999999887590E-01     0.0000000000000000E+00     0.0000000000000000E+00 
    4.6874999999878530E-01     0.0000000000000000E+00     0.0000000000000000E+00 
    4.9999999999869471E-01     0.0000000000000000E+00     0.0000000000000000E+00 
    5.3124999999877620E-01     0.0000000000000000E+00     0.0000000000000000E+00 
    5.6249999999885780E-01     0.0000000000000000E+00     0.0000000000000000E+00 
    5.9374999999893940E-01     0.0000000000000000E+00     0.0000000000000000E+00 
    6.2499999999902101E-01     0.0000000000000000E+00     0.0000000000000000E+00 
    6.5624999999910261E-01     0.0000000000000000E+00     0.0000000000000000E+00 
    6.8749999999918421E-01     0.0000000000000000E+00     0.0000000000000000E+00 
    7.1874999999926570E-01     0.0000000000000000E+00     0.0000000000000000E+00 
    7.4999999999934730E-01     0.0000000000000000E+00     0.0000000000000000E+00 
    7.8124999999942890E-01     0.0000000000000000E+00     0.0000000000000000E+00 
    8.1249999999951039E-01     0.0000000000000000E+00     0.0000000000000000E+00 
    8.4374999999959199E-01     0.0000000000000000E+00     0.0000000000000000E+00 
    8.7499999999967359E-01     0.0000000000000000E+00     0.0000000000000000E+00 
    9.0624999999975520E-01     0.0000000000000000E+00     0.0000000000000000E+00 
    9.3749999999983680E-01     0.0000000000000000E+00     0.0000000000000000E+00 
    9.6874999999991840E-01     0.0000000000000000E+00     0.0000000000000000E+00 
    1.0000000000000000E+00     3.1249999999942091E-02     0.0000000000000000E+00 
    1.0000000000000000E+00     6.2499999999873469E-02     0.0000000000000000E+00 
    1.0000000000000000E+00     9.3749999999826514E-02     0.0000000000000000E+00 
    1.0000000000000000E+00     1.2499999999977961E-01     0.0000000000000000E+00 
    1.0000000000000000E+00     1.5624999999968961E-01     0.0000000000000000E+00 
    1.0000000000000000E+00     1.8749999999959971E-01     0.0000000000000000E+00 
    1.0000000000000000E+00     2.1874999999950970E-01     0.0000000000000000E+00 
    1.0000000000000000E+00     2.4999999999941969E-01     0.0000000000000000E+00 
    1.0000000000000000E+00     2.8124999999932920E-01     0.0000000000000000E+00 
    1.0000000000000000E+00     3.1249999999923850E-01     0.0000000000000000E+00 
    1.0000000000000000E+00     3.4374999999914790E-01     0.0000000000000000E+00 
    1.0000000000000000E+00     3.7499999999905720E-01     0.0000000000000000E+00 
    1.0000000000000000E+00     4.0624999999896660E-01     0.0000000000000000E+00 
    1.0000000000000000E+00     4.3749999999887590E-01     0.0000000000000000E+00 
    1.0000000000000000E+00     4.6874999999878530E-01     0.0000000000000000E+00 
    1.0000000000000000E+00     4.9999999999869471E-01     0.0000000000000000E+00 
    1.0000000000000000E+00     5.3124999999877620E-01     0.0000000000000000E+00 
    1.0000000000000000E+00     5.6249999999885780E-01     0.0000000000000000E+00 
    1.0000000000000000E+00     5.9374999999893940E-01     0.0000000000000000E+00 
    1.0000000000000000E+00     6.2499999999902101E-01     0.0000000000000000E+00 
    1.0000000000000000E+00     6.5624999999910261E-01     0.0000000000000000E+00 
    1.0000000000000000E+00     6.8749999999918421E-01     0.0000000000000000E+00 
    1.0000000000000000E+00     7.1874999999926570E-01     0.0000000000000000E+00 
    1.0000000000000000E+00     7.4999999999934730E-01     0.0000000000000000E+00 
    1.0000000000000000E+00     7.8124999999942890E-01     0.0000000000000000E+00 
    1.0000000000000000E+00     8.1249999999951039E-01     0.0000000000000000E+00 
    1.0000000000000000E+00     8.4374999999959199E-01     0.0000000000000000E+00 
    1.0000000000000000E+00     8.7499999999967359E-01     0.0000000000000000E+00 
    1.0000000000000000E+00     9.0624999999975520E-01     0.0000000000000000E+00 
    1.0000000000000000E+00     9.3749999999983680E-01     0.0000000000000000E+00 
    1.0000000000000000E+00     9.6874999999991840E-01     0.0000000000000000E+00 
    9.6875000000003686E-01     1.0000000000000000E+00     0.0000000000000000E+00 
    9.3750000000011691E-01     1.0000000000000000E+00     0.0000000000000000E+00 
    9.0625000000015765E-01     1.0000000000000000E+00     0.0000000000000000E+00 
    8.7500000000017863E-01     1.0000000000000000E+00     0.0000000000000000E+00 
    8.4375000000028044E-01     1.0000000000000000E+00     0.0000000000000000E+00 
    8.1250000000040856E-01     1.0000000000000000E+00     0.0000000000000000E+00 
    7.8125000000054956E-01     1.0000000000000000E+00     0.0000000000000000E+00 
    7.5000000000066480E-01     1.0000000000000000E+00     0.0000000000000000E+00 
    7.1875000000086831E-01     1.0000000000000000E+00     0.0000000000000000E+00 
    6.8750000000102829E-01     1.0000000000000000E+00     0.0000000000000000E+00 
    6.5625000000114431E-01     1.0000000000000000E+00     0.0000000000000000E+00 
    6.2500000000129829E-01     1.0000000000000000E+00     0.0000000000000000E+00 
    5.9375000000147926E-01     1.0000000000000000E+00     0.0000000000000000E+00 
    5.6250000000168354E-01     1.0000000000000000E+00     0.0000000000000000E+00 
    5.3125000000188671E-01     1.0000000000000000E+00     0.0000000000000000E+00 
    5.0000000000205835E-01     1.0000000000000000E+00     0.0000000000000000E+00 
    4.6875000000192979E-01     1.0000000000000000E+00     0.0000000000000000E+00 
    4.3750000000180111E-01     1.0000000000000000E+00     0.0000000000000000E+00 
    4.0625000000167238E-01     1.0000000000000000E+00     0.0000000000000000E+00 
    3.7500000000154382E-01     1.0000000000000000E+00     0.0000000000000000E+00 
    3.4375000000141509E-01     1.0000000000000000E+00     0.0000000000000000E+00 
    3.1250000000128642E-01     1.0000000000000000E+00     0.0000000000000000E+00 
    2.8125000000115769E-01     1.0000000000000000E+00     0.0000000000000000E+00 
    2.5000000000102918E-01     1.0000000000000000E+00     0.0000000000000000E+00 
    2.1875000000090050E-01     1.0000000000000000E+00     0.0000000000000000E+00 
    1.8750000000077180E-01     1.0000000000000000E+00     0.0000000000000000E+00 
    1.5625000000064329E-01     1.0000000000000000E+00     0.0000000000000000E+00 
    1.2500000000051459E-01     1.0000000000000000E+00     0.0000000000000000E+00 
    9.3750000000385914E-02     1.0000000000000000E+00     0.0000000000000000E+00 
    6.2500000000257239E-02     1.0000000000000000E+00     0.0000000000000000E+00 
    3.1250000000128557E-02     1.0000000000000000E+00     0.0000000000000000E+00 
    0.0000000000000000E+00     9.6875000000003686E-01     0.0000000000000000E+00 
    0.0000000000000000E+00     9.3750000000011691E-01     0.0000000000000000E+00 
    0.0000000000000000E+00     9.0625000000015765E-01     0.0000000000000000E+00 
    0.0000000000000000E+00     8.7500000000017863E-01     0.0000000000000000E+00 
    0.0000000000000000E+00     8.4375000000028044E-01     0.0000000000000000E+00 
    0.0000000000000000E+00     8.1250000000040856E-01     0.0000000000000000E+00 
    0.0000000000000000E+00     7.8125000000054956E-01     0.0000000000000000E+00 
    0.0000000000000000E+00     7.5000000000066480E-01     0.0000000000000000E+00 
    0.0000000000000000E+00     7.1875000000086831E-01     0.0000000000000000E+00 
    0.0000000000000000E+00     6.8750000000102829E-01     0.0000000000000000E+00 
    0.0000000000000000E+00     6.5625000000114431E-01     0.0000000000000000E+00 
    0.0000000000000000E+00     6.2500000000129829E-01     0.0000000000000000E+00 
    0.0000000000000000E+00     5.9375000000147926E-01     0.0000000000000000E+00 
    0.0000000000000000E+00     5.6250000000168354E-01     0.0000000000000000E+00 
    0.0000000000000000E+00     5.3125000000188671E-01     0.0000000000000000E+00 
    0.0000000000000000E+00     5.0000000000205835E-01     0.0000000000000000E+00 
    0.0000000000000000E+00     4.6875000000192979E-01     0.0000000000000000E+00 
    0.0000000000000000E+00     4.3750000000180111E-01     0.0000000000000000E+00 
    0.0000000000000000E+00     4.0625000000167238E-01     0.0000000000000000E+00 
[...]
CELL_DATA 2795 
SCALARS Pressure double 1 
LOOKUP_TABLE default 

    7.7724728012336763E+00 
    2.1497050511563494E+01 
    1.3082688706385623E+01 
    1.2553864365568485E+01 
    9.6764907347732194E+00 
    2.0578839857658139E+01 
    2.2331368834528558E+01 
    6.8845880496178227E+00 
    1.3869952625693024E+01 
    1.0363807605082147E+01 
    8.7143862800968925E+00 
    2.0069726523514902E+01 
    2.1081037422572990E+01 
    2.0515593419891115E+01 
    1.1947398849644918E+01 
    6.7618119070831177E+00 
    1.1367238556277565E+01 
    9.3261556846996072E+00 
    1.9300564527755387E+01 
    1.3063906873486815E+01 
    1.2908341509545345E+01 
    2.0359222278380884E+01 
    1.2134173733994722E+01 
    4.4729129499288145E-01 
    2.0366017190348032E+01 
    2.1186187643316533E+01 
    2.2411853777457935E+01 
    8.3534970904026853E+00 
    1.9897856030158099E+01 
    2.2988964647162771E+01 
    1.3346589985231287E+01 
    1.3377767162804336E+01 
    9.0460649993169113E+00 
    1.3027432495538054E+01 
    4.0278176468415490E+00 
    1.1372707395517180E+01 
    1.3010010286379805E+01 
    2.3127061444987770E+01 
    2.2255184520932232E+01 
    2.0094665048200405E+01 
    9.5902201522467507E+00 
    2.0465589146043985E+01 
    9.2843326637792267E-01 
    1.2958381992358458E+01 
    2.2189415973875487E+01 
    2.1590710220554040E+01 
    2.0049482995058618E+01 
    1.4470937623711608E+01 
    2.0081175548818386E+01 
    1.1668384258186206E+01 
    1.1034816002649011E+01 
    1.3329315906422909E+01 
    1.2781685992898749E+01 
    1.1445593924846069E+01 
    1.3475238601860491E+01 
    1.8873719982515993E+01 
    1.6128503470441046E+01 
    9.7316583828145244E+00 
    2.0385261945728168E+01 
    2.0207993398436017E+01 
    1.2615127769086358E+01 
    1.2529599225793852E+01 
    1.2401363458630277E+01 
    2.2749372052786608E+01 
    2.3197344386833759E+01 
    1.1383975588319862E+01 
    1.3327939662073581E+01 
    1.9638968299237959E+01 
    1.5880977524618727E+01 
    1.2578847634490799E+01 
    2.2865635197960934E+01 
    2.0715174862416792E+01 
    1.1196305922039576E+01 
    2.1742274648611609E+01 
    1.3879561005128595E+01 
    2.0134977279071414E+01 
    2.3195987006209958E+01 
    1.3890547434219949E+01 
    7.9198688452076071E+00 
    1.3354205021492525E+01 
    2.2285373714655019E+01 
    2.3527452818703381E+01 
    1.1424343192903258E+01 
    1.3235316184083603E+01 
    2.3409179259019204E+01 
    1.3012476668864011E+01 
    1.2268670942136595E+01 
    1.6637109925814947E+01 
    7.5392085881819693E+00 
    1.1068113001061599E+01 
    1.3234190792517776E+01 
    1.4092867653759521E+01 
    2.6457450486043840E+01 
    9.3880926011131258E+00 
    1.3339372464207523E+01 
    2.0013105727269295E+01 
    2.0965268045434492E+01 
    8.1909530408920190E+00 
    1.2820383536952081E+01 
    1.3278487341061334E+01 
    2.1023056399268128E+01 
    1.3278263499016706E+01 
    2.0856957689315493E+01 
    4.8590865399328989E+00 
    8.4619584694054470E+00 
    1.3655646923392615E+01 
    2.1543403836669139E+01 
    1.1314471997880243E+01 
    1.2285010064064691E+01 
    1.3255617821967045E+01 
    1.2226688206445411E+01 
    1.5536161885844512E+01 
    1.1879991602903869E+01 
    1.1206430019907561E+01 
    8.6447824833940938E+00 
    1.6724838386913856E+01 
    1.3380903262452875E+01 
    2.2631574132441031E+01 
    1.1341539741473335E+01 
    1.2532126728426926E+01 
    2.0722490641848736E+01 
    1.0178913484933839E+01 
    2.1782405464547889E+01 
    1.3124542304198382E+01 
    1.2417515350867095E+01 
    2.0981487922742602E+01 
    1.3371982256605531E+01 
    2.2804851653674305E+01 
    1.6678114438501868E+01 
    1.8541643857291909E+01 
    2.2465239401936589E+01 
    9.4062311001399763E+00 
    1.3684121760344244E+01 
    2.1083258545667967E+01 
    3.6119170814917294E+00 
    1.3436804207717612E+01 
    2.2354778204464189E+01 
    1.2469367543658281E+01 
    1.5103604066941468E+01 
    8.1196026798816572E+00 
    2.0052910064837562E+01 
    2.7337159643987373E+01 
    1.7546726928062931E+01 
    1.2460550126311411E+01 
    1.0927972197434775E+01 
    1.4581264507571962E+01 
    1.3149344930360085E+01 
    8.8048072485324713E+00 
    2.2581531434752147E+01 
    2.0848959879174203E+01 
    2.0019076116778173E+01 
    1.4108032084471271E+01 
    1.1162835398609033E+01 
    1.2905014322191919E+01 
    2.1727877021224618E+01 
    1.1514575498184037E+01 
    1.3235262845927382E+01 
    1.1772551597934935E+01 
    1.6336443708234704E+01 
    2.7318155438142991E+01 
    1.9990521186792062E+01 
    1.1102387949717203E+01 
    2.1407509603802069E+01 
    2.1422752819854477E+01 
    2.1642946526357914E+01 
    2.4097902726992750E+01 
    2.5216260399946929E+01 
    2.1434515988117671E+01 
    1.3316115101839618E+01 
    1.4791142412655502E+01 
    2.0941678926586942E+01 
    2.2417388601305635E+01 
    9.2060736898248425E+00 
    2.0040537657150015E+01 
    2.1582624016298858E+01 
    8.9569104136811060E+00 
    2.3758366361296119E+01 
    2.3865231035686488E+01 
    1.9431403680385447E+01 
    1.3788902962083538E+01 
    3.3271052559586427E+00 
    2.2503197034715669E+01 
    1.3564480120303347E+01 
    2.3305245461183880E+01 
    1.2366685910298793E+01 
    2.2078831402633746E+01 
    1.1627851232580038E+00 
    1.8532530810470313E+01 
    1.2592476977178601E+01 
    1.1099059388602191E+01 
    1.0778653922878643E+01 
    1.3079720650856597E+01 
    1.4902091970274268E+01 
    1.3978223570895040E+01 
    8.7816510194633537E+00 
    2.2528314543515783E+01 
    2.1179812323690783E+01 
    1.6080780358769982E+01 
    1.3641918034903805E+01 
    1.8146038066696220E+00 
    9.8710892690772170E+00 
    6.6983663127564634E+00 
    2.3100221860072892E+01 
    1.5399085515224506E+01 
    2.0718151285602623E+01 
    2.1328671972985177E+01 
    1.1680371218424185E+01 
    1.6337752235390301E+01 
    1.9983348569227207E+01 
    2.3822061251036004E+01 
    8.0887483847314474E+00 
    1.7763625253462280E+01 
    1.3946758209609516E+01 
    7.1515458621992458E+00 
    1.1636872819001169E+01 
    1.7355183547882998E+01 
    2.1245232043279891E+01 
    1.3158795446313130E+01 
    2.1556358630572934E+01 
    2.0910872253773977E+01 
    2.0802485219995720E+01 
    1.2913868825687674E+01 
    1.1059874048240726E+01 
    2.0040243048771927E+01 
    1.1193579804650859E+01 
    1.3285203373888910E+01 
    1.0938174079858191E+01 
    1.3155090368998634E+01 
    2.1334704199423477E+01 
    7.9646917082295632E+00 
    1.1505980790384976E+01 
    2.2590609333498627E+01 
    1.2932067426938529E+01 
    1.5215892570926295E+01 
    8.1705817963028959E+00 
    1.1286636505175503E+01 
    2.0853560848204495E+01 
    2.1709588728143224E+01 
    6.6657848304810416E+00 
    1.2940752586620340E+01 
    1.1011891511219698E+01 
    2.4754786252510364E+01 
    2.3555359269850467E+01 
    2.5296960685565928E+01 
    1.2970907773566543E+01 
    2.1291993524978924E+01 
    1.9870856628012028E+01 
    1.2782789158709011E+01 
    2.0013015396746102E+01 
    1.3642019633627294E+01 
    7.2516449409374095E+00 
    1.3473591737862790E+01 
    2.2864058950112241E+01 
    2.0004446043052969E+01 
    8.6599477290431910E+00 
    2.0058784144255654E+01 
    1.4947429042915873E+01 
    1.3407476782944444E+01 
    1.2601737562558666E+01 
    1.9712303380490159E+01 
    1.4295786691390722E+01 
    2.0044280139375445E+01 
    1.2854275315302527E+01 
    7.5230899200541836E+00 
    1.3386449093822570E+01 
    1.0798429887723055E+01 
    1.7587057394156833E+01 
    2.2853589045699785E+01 
    2.0049421208659240E+01 
    2.2347958060494758E+01 
    1.2855662800913118E+01 
    8.4362246630263282E+00 
    8.5610725324547587E+00 
    1.3723187382414819E+01 
    1.3250836522708202E+01 
    1.8267963498662854E+00 
    1.8932319654436821E+01 
    2.4107167424724430E+01 
    1.2380606072442928E+01 
    7.5740947451649800E+00 
    1.6067270881734380E+01 
    2.0046214168032517E+01 
    9.0778711900355464E+00 
    6.0340702854324970E+00 
    1.3217570650842569E+01 
    2.0294488223744001E+01 
    2.2412361531201931E+01 
    2.1384605672742033E+01 
    2.1755597890985324E+01 
    8.8456163776280903E+00 
    1.3389885119939407E+01 
    1.9534694109070312E+01 
    1.0161050463336995E+01 
    2.1053520050311420E+01 
    1.6750235944265835E+01 
    8.6895175175461947E+00 
    2.0174694975883757E+01 
    2.2931695657377755E+01 
    2.0634866997477836E+01 
    8.7257673457744360E+00 
    1.3322486356459951E+01 
    9.6454711799849040E+00 
    1.2515139756490719E+01 
    2.0038996356887250E+01 
    2.0018835065566037E+01 
    8.7775825298536283E+00 
    2.2082646265017324E+01 
    1.4187207517261527E+01 
    2.0167956503200344E+01 
    2.2577575861114720E+01 
    2.0098215488033016E+01 
    1.7989342539948947E+01 
    2.4911712996173602E+01 
    1.2333006334706093E+01 
    2.2254175376741724E+01 
    2.0177693052468381E+01 
    2.2500979071942414E+01 
    2.2018744204571284E+01 
    1.2484995783722544E+01 
    1.3069710942147035E+01 
    1.2364030585066830E+01 
    1.7033551384358873E+01 
    4.8822444205809861E+00 
    1.3614353824821706E+01 
    2.5152958893968631E+01 
    1.3650815013111677E+01 
    1.3971832059920178E+01 
    2.2435223827756445E+01 
    2.3000931663232620E+01 
    1.2287301010821478E+01 
    2.0063639716262557E+01 
    2.0024456088304674E+01 
    1.3950150138909560E+01 
    2.1880973807069203E+01 
    9.1525784932410748E+00 
    5.7997593261090330E+00 
    1.4438676298949478E+01 
    1.3670435831700813E+01 
    2.0001258398300781E+01 
    8.1699621024970064E+00 
    2.1184744961588038E+01 
    5.9139070550870727E+00 
    1.3575140224768692E+01 
    1.2612001648454612E+01 
    1.3288988304252749E+01 
    2.7396553856330335E+01 
    4.7354176151307632E+00 
    1.3468951697431843E+01 
    1.7150637022419971E+01 
    1.2713618655799300E+01 
    9.7324550318374339E+00 
    2.1500508567579232E+01 
    2.6586202730021178E+01 
    2.2152390604713933E+01 
    1.3370367894827693E+01 
    7.1090588006372277E+00 
    2.6429921233642190E+01 
    2.1109686210947849E+01 
    9.2844839534450578E+00 
    1.2695862380809018E+01 
    2.4056550770737520E+01 
    4.0138626560211792E+00 
    1.3759703025285981E+01 
    2.2295431436096081E+01 
    1.3307983856535717E+01 
    1.1461051496091825E+01 
    1.3538707945072696E+01 
    1.9716729381597617E+01 
    1.3280930163527248E+01 
    6.2916668260598696E+00 
    1.1483018708397226E+00 
    9.6423308774312027E+00 
    2.4534347373329233E+01 
    1.2361186269938639E+01 
    1.5730740525349887E+01 
    1.4842484638768417E+01 
    1.7857992687386204E+01 
    1.3327054312020346E+01 
    2.0874963251760676E+01 
    2.7417550642616838E+01 
    1.6491597578665438E+01 
    2.2184315674497416E+01 
    6.6960644751870046E-01 
    2.0018685700883566E+01 
    7.0139421218887303E+00 
    2.5464743749471349E+01 
    1.3492849234589334E+01 
    1.1653197812461391E+01 
    9.8511277994749751E+00 
    6.6280355173376568E+00 
    1.5242237218857669E+01 
    1.0262068764263145E+01 
    1.7389341757475133E+01 
    2.7912472598672489E+00 
    1.5012169385227407E+01 
    1.9853858071793134E+01 
    7.7571454078384008E+00 
    2.1104068389348807E+01 
    2.4650133764664140E+01 
    2.0898404918470003E+01 
    1.3270650783957944E+01 
    1.3281496731144882E+01 
    1.3479991344602862E+01 
    7.2083540566417472E+00 
    1.1935065107826254E+01 
    1.1692824842872602E+01 
    1.3460922381369615E+01 
    1.2263282167799158E+01 
    8.5870555898644019E-01 
    8.0878679024919276E+00 
    1.2890663929406044E+01 
    1.3419463343745976E+01 
    1.8047161272442530E+01 
    2.6219250383414558E+00 
    1.3880587327970256E+01 
    1.3682548355475657E+01 
    4.5508812029479238E+00 
    2.0508166866874912E+01 
    1.1243632671480139E+01 
    1.3473972132410134E+01 
    2.1057363758131757E+01 
    6.6479473034687855E+00 
    2.0721395640320075E+01 
    1.1380443025094804E+01 
    1.1801817732855211E+00 
    1.2459102456638789E+01 
    2.2354122952509442E+01 
    2.0031230068011691E+01 
    2.0080557471643310E+01 
    1.4086512162870735E+01 
    1.3579221174603758E+01 
    1.1197786863121369E+01 
    8.8278191188310693E+00 
    2.1262508718922867E+01 
    1.2689984287398998E+01 
    8.5895947160860899E+00 
    2.0060526122022644E+01 
    2.1928157463473646E+01 
    1.3760182103818785E+01 
    1.3000857086817105E+01 
    2.7225284588290304E+01 
    1.3951821164060307E+01 
    2.1414399225918665E+01 
    1.0574044186375719E+01 
    2.7453698751247476E+01 
    8.5109376017890011E+00 
    1.1887269853320575E+01 
    9.5807236121289439E+00 
    1.4353489306565773E+01 
    1.1111577222845828E+01 
    2.7431104756621707E+01 
    1.4035161790699389E+01 
    1.9696776478811415E+01 
    8.7556206812691304E+00 
    1.3322198717637725E+01 
    2.1040808088674552E+01 
    1.1150086012077287E+01 
    9.2066010835136058E+00 
    1.5523222232044423E+01 
    2.1039436110745996E+01 
    9.4529439749222579E+00 
    1.2641477786216790E+01 
    1.3046074228072671E+01 
    1.9973761779667736E+01 
    1.2753209482829661E+01 
    2.1657268730410614E+01 
    2.2592349461550981E+01 
    1.1227976434256879E+01 
    1.0979292210460992E+01 
    1.0329702901756455E+01 
    2.0250937427094836E+01 
    1.3694513361417513E+01 
    2.6660115619754453E+01 
    1.8275131756645198E+01 
    2.0915276009672080E+01 
    2.6196337524286125E+01 
    2.4667849624103745E+01 
    1.3388209424761618E+01 
    1.3435608934456596E+01 
    1.9453145693787974E+01 
    2.0089515200076093E+01 
    2.1635300879775325E+01 
    2.1143663687693142E+01 
    2.7263869369404055E+01 
    1.3950981651841758E+01 
    1.1393905072541500E+01 
    1.3892892170198254E+01 
    2.2299539877675546E+01 
    1.3526943195596370E+01 
    7.5641699927257902E+00 
    1.3244202636720596E+01 
    2.3971354905881547E+01 
    1.3742794110074056E+01 
    1.1391525367359044E+01 
    1.2958914874018925E+01 
    2.4239744241952401E+01 
    2.0603069433046084E+01 
    1.0748426249353741E+01 
    2.4513474186470315E+01 
    1.3430056560566173E+01 
    2.1892451214515056E+01 
    2.4221388942838466E+01 
    1.4470277537276674E+01 
    6.6615772697705067E+00 
    1.5268536489289859E+01 
    6.8991808796482825E+00 
    1.3599707442411892E+01 
    1.3310465088147829E+01 
    1.6399343472796918E+01 
    7.3153680041986524E+00 
    1.7838996672274423E+01 
    1.3339212022461124E+01 
    2.1129401234272336E+01 
    1.4638709075902021E+01 
    1.0462400392309094E+01 
    1.2772758848503797E+01 
    1.4356480290979841E+01 
    1.4130687443537916E+01 
    2.3182414236059248E+01 
    1.0802028035671931E+01 
    1.0593279281548158E+01 
    7.7175299027224789E+00 
    2.1766771805495424E+01 
    1.2833951533193371E+01 
    2.0133532549868796E+01 
    1.3268071841120898E+01 
    8.4943350325060365E+00 
    2.0632294305483565E+01 
    1.3232456145561459E+01 
    9.3293425630412585E+00 
    9.9355831566978612E+00 
    1.0321132264324572E+01 
    2.1176706356296560E+01 
    1.3464297921909685E+01 
    2.2214904137775498E+01 
    1.3172460729882978E+01 
    1.3082337628703950E+01 
    1.2504620667803676E+01 
    2.0810177545212103E+01 
    1.2961366596182010E+01 
    1.0372752539951462E+01 
    2.4684534350946471E+01 
    2.0976294353723933E+01 
    8.9272503232011182E+00 
    3.3108145720838640E+00 
    1.3445620354360251E+01 
    1.2375861519161949E+01 
    1.0967375929781319E+01 
    1.2191205738173345E+01 
    2.0401427614991029E+01 
    1.2966228063430060E+01 
    1.1500172576294977E+01 
    2.0136095689323046E+01 
    8.8472904289666996E+00 
    1.9388208035061716E+01 
    1.1929632937788055E+01 
    1.0291190136040925E+01 
    1.1094512933785596E+01 
    2.2113675789260981E+01 
    1.3293270270823609E+01 
    1.3304839843354205E+01 
    7.4335483854699635E+00 
    8.0817799467116629E+00 
    1.8324022444086264E+01 
    1.3318918626065143E+01 
    1.3515088533691040E+01 
    2.4515707965092531E+01 
    1.0599048125706615E+01 
    1.3336597358202692E+01 
    9.1749822651447612E+00 
    9.4900596719778765E+00 
    2.0735231877669911E+01 
    1.2798671761562943E+01 
    8.9716390764691543E+00 
    1.4108513545716018E+01 
    1.3154812442749346E+01 
    2.0767725028885167E+01 
    2.4710600562178861E+01 
    1.2473478023276445E+00 
    1.3453910989534346E+01 
    1.3668661203544993E+01 
    2.0944720473828017E+01 
    1.2576447801110143E+01 
    1.3255722261619020E+01 
    2.3162003470990356E+01 
    1.1130115310899482E+01 
    9.0566975046940463E+00 
    1.6841776559174210E+01 
    2.0053921076323171E+01 
    2.2446229431783784E+01 
    2.3760489461388474E+01 
    1.3188767613383600E+01 
    1.3440440233024361E+01 
    1.5328155681842611E+01 
    8.4605936065347311E+00 
    2.0292646012994350E+01 
    9.8116236154029988E+00 
    8.8299757523292115E+00 
    1.7698380285160660E+01 
    1.6321238856544543E+01 
    8.6502961008835797E+00 
    2.0121377642012874E+01 
    2.2418718757545893E+01 
    1.3978362987432645E+01 
    2.4927200754304256E+01 
    2.0181326371726271E+01 
    1.2720344751284232E+01 
    2.1707923652466263E+01 
    9.4885518066318451E+00 
    2.0076084986312519E+01 
    1.3452544033980431E+01 
    1.3382715992086574E+01 
    2.4898411933535030E+01 
    1.2884460392751659E+01 
    1.7201759428335972E+01 
    1.1061779513084659E+01 
    2.2851959641281127E+01 
    1.9876380725658464E+01 
    1.1611559891966170E+01 
    2.0038097631318525E+01 
    1.1922240747750173E+01 
    1.3269300829647362E+01 
    2.2297006106884741E+01 
    2.1054204850063858E+01 
    2.2425614039628279E+01 
    2.0946455087407159E+01 
    1.1963617362153157E+01 
    1.2335466266641326E+01 
    2.2462600884807149E+01 
    1.2532503414343815E+01 
    1.9676037719197414E+01 
    1.2867341807072068E+01 
    4.9322836512876886E+00 
    8.9332517373765459E+00 
    8.2550893873625419E+00 
    2.2312908059891306E+01 
    2.4735756150571316E+01 
    2.0055949913312300E+01 
    1.5908556043969476E+01 
    2.0622607524090004E+01 
    2.0126243379598460E+01 
    2.1441230109202525E+01 
    7.1575318054945454E+00 
    4.5812780024733035E+00 
    1.5523504778920724E+01 
    1.2842652662485857E+01 
    2.0420934337030886E+01 
    2.0418077150215623E+01 
    1.3697308427702762E+01 
    2.0490013569062686E+01 
    1.3431006740785008E+01 
    1.3241113563444792E+01 
    6.4296554818860789E+00 
    4.5544997701037921E+00 
    2.4230099123850199E+01 
    1.0131980387392684E+01 
    1.1519657746655906E+01 
    1.3545143721054643E+01 
    2.7234270087686969E+01 
    1.3683568080734638E+01 
    1.3933985414296322E+01 
    5.2503154691183171E+00 
    1.3683310159860351E+01 
    1.3704856023633216E+01 
    2.1136598609240071E+01 
    1.1107810616751774E+01 
    1.2661683457986381E+01 
    2.4600862695646018E+01 
    1.3467938176885635E+01 
    2.0079999130582706E+01 
    2.0589619289385098E+01 
    1.7313575505627416E+01 
    1.1104252169372398E+01 
    2.0937661067081429E+01 
    1.3102498447063114E+01 
    2.0488768329472133E+01 
    1.9941672636429509E+01 
    2.2366803137092152E+01 
    2.0962799710387209E+01 
    1.8575298891859195E+01 
    1.3449451678027678E+01 
    8.5868848783949208E+00 
    2.7029156400226807E+01 
    1.0034604012543062E+01 
    2.2846719519441955E+01 
    1.3444922223208826E+01 
    1.0686241134610935E+01 
    6.2296041479363629E+00 
    1.3761153353912274E+01 
    2.0917750154278071E+01 
    2.0887155171312909E+01 
    1.3241721231589382E+01 
    1.3434709849038214E+01 
    2.4969092760631455E+01 
    2.3597374745274774E+01 
    1.3714487595582703E+01 
    4.2635209649536856E+00 
    1.8409485123879030E+01 
    2.7420672817002398E+01 
    1.3455273333436928E+01 
    1.6581312644420965E+01 
    1.2569664041594780E+01 
    2.6784364566638835E+01 
    2.3748434884099712E+01 
    2.2898303393387835E+01 
    1.3749220893385040E+01 
    5.8404938361274041E+00 
    1.2501304657836604E+01 
    1.2612867317408689E+01 
    1.2696151329870387E+01 
    4.6772601083135665E+00 