# vtk DataFile Version 2.0
Pressure Field Data 
ASCII 
DATASET UNSTRUCTURED_GRID 

POINTS 2860 double 

    0.0000000000000000E+00     0.0000000000000000E+00     0.0000000000000000E+00 
    1.0000000000000000E+00     0.0000000000000000E+00     0.0000000000000000E+00 
    1.0000000000000000E+00     1.0000000000000000E+00     0.0000000000000000E+00 
    0.0000000000000000E+00     1.0000000000000000E+00     0.0000000000000000E+00 
    2.5000000000000000E-01     2.5000000000000000E-01     0.0000000000000000E+00 
    7.5000000000000000E-01     2.5000000000000000E-01     0.0000000000000000E+00 
    7.5000000000000000E-01     7.5000000000000000E-01     0.0000000000000000E+00 
    2.5000000000000000E-01     7.5000000000000000E-01     0.0000000000000000E+00 
    3.1249999999942091E-02     0.0000000000000000E+00     0.0000000000000000E+00 
    6.2499999999873469E-02     0.0000000000000000E+00     0.0000000000000000E+00 
    9.3749999999826514E-02     0.0000000000000000E+00     0.0000000000000000E+00 
    1.2499999999977961E-01     0.0000000000000000E+00     0.0000000000000000E+00 
    1.5624999999968961E-01     0.0000000000000000E+00     0.0000000000000000E+00 
    1.8749999999959971E-01     0.0000000000000000E+00     0.0000000000000000E+00 
    2.1874999999950970E-01     0.0000000000000000E+00     0.0000000000000000E+00 
    2.4999999999941969E-01     0.0000000000000000E+00     0.0000000000000000E+00 
    2.8124999999932920E-01     0.0000000000000000E+00     0.0000000000000000E+00 
    3.1249999999923850E-01     0.0000000000000000E+00     0.0000000000000000E+00 
    3.4374999999914790E-01     0.0000000000000000E+00     0.0000000000000000E+00 
    3.7499999999905720E-01     0.0000000000000000E+00     0.0000000000000000E+00 
    4.0624999999896660E-01     0.0000000000000000E+00     0.0000000000000000E+00 
    4.3749999999887590E-01     0.0000000000000000E+00     0.0000000000000000E+00 
    4.6874999999878530E-01     0.0000000000000000E+00     0.0000000000000000E+00 
    4.9999999999869471E-01     0.0000000000000000E+00     0.0000000000000000E+00 
    5.3124999999877620E-01     0.0000000000000000E+00     0.0000000000000000E+00 
    5.6249999999885780E-01     0.0000000000000000E+00     0.0000000000000000E+00 
    5.9374999999893940E-01     0.0000000000000000E+00     0.0000000000000000E+00 
    6.2499999999902101E-01     0.0000000000000000E+00     0.0000000000000000E+00 
    6.5624999999910261E-01     0.0000000000000000E+00     0.0000000000000000E+00 
    6.8749999999918421E-01     0.0000000000000000E+00     0.0000000000000000E+00 
    7.1874999999926570E-01     0.0000000000000000E+00     0.0000000000000000E+00 
    7.4999999999934730E-01     0.0000000000000000E+00     0.0000000000000000E+00 
    7.8124999999942890E-01     0.0000000000000000E+00     0.0000000000000000E+00 
    8.1249999999951039E-01     0.0000000000000000E+00     0.0000000000000000E+00 
    8.4374999999959199E-01     0.0000000000000000E+00     0.0000000000000000E+00 
    8.7499999999967359E-01     0.0000000000000000E+00     0.0000000000000000E+00 
    9.0624999999975520E-01     0.0000000000000000E+00     0.0000000000000000E+00 
    9.3749999999983680E-01     0.0000000000000000E+00     0.0000000000000000E+00 
    9.6874999999991840E-01     0.0000000000000000E+00     0.0000000000000000E+00 
    1.0000000000000000E+00     3.1249999999942091E-02     0.0000000000000000E+00 
    1.0000000000000000E+00     6.2499999999873469E-02     0.0000000000000000E+00 
    1.0000000000000000E+00     9.3749999999826514E-02     0.0000000000000000E+00 
    1.0000000000000000E+00     1.2499999999977961E-01     0.0000000000000000E+00 
    1.0000000000000000E+00     1.5624999999968961E-01     0.0000000000000000E+00 
    1.0000000000000000E+00     1.8749999999959971E-01     0.0000000000000000E+00 
    1.0000000000000000E+00     2.1874999999950970E-01     0.0000000000000000E+00 
    1.0000000000000000E+00     2.4999999999941969E-01     0.0000000000000000E+00 
    1.0000000000000000E+00     2.8124999999932920E-01     0.0000000000000000E+00 
    1.0000000000000000E+00     3.1249999999923850E-01     0.0000000000000000E+00 
    1.0000000000000000E+00     3.4374999999914790E-01     0.0000000000000000E+00 
    1.0000000000000000E+00     3.7499999999905720E-01     0.0000000000000000E+00 
    1.0000000000000000E+00     4.0624999999896660E-01     0.0000000000000000E+00 
    1.0000000000000000E+00     4.3749999999887590E-01     0.0000000000000000E+00 
    1.0000000000000000E+00     4.6874999999878530E-01     0.0000000000000000E+00 
    1.0000000000000000E+00     4.9999999999869471E-01     0.0000000000000000E+00 
    1.0000000000000000E+00     5.3124999999877620E-01     0.0000000000000000E+00 
    1.0000000000000000E+00     5.6249999999885780E-01     0.0000000000000000E+00 
    1.0000000000000000E+00     5.9374999999893940E-01     0.0000000000000000E+00 
    1.0000000000000000E+00     6.2499999999902101E-01     0.0000000000000000E+00 
    1.0000000000000000E+00     6.5624999999910261E-01     0.0000000000000000E+00 
    1.0000000000000000E+00     6.8749999999918421E-01     0.0000000000000000E+00 
    1.0000000000000000E+00     7.1874999999926570E-01     0.0000000000000000E+00 
    1.0000000000000000E+00     7.4999999999934730E-01     0.0000000000000000E+00 
    1.0000000000000000E+00     7.8124999999942890E-01     0.0000000000000000E+00 
    1.0000000000000000E+00     8.1249999999951039E-01     0.0000000000000000E+00 
    1.0000000000000000E+00     8.4374999999959199E-01     0.0000000000000000E+00 
    1.0000000000000000E+00     8.7499999999967359E-01     0.0000000000000000E+00 
    1.0000000000000000E+00     9.0624999999975520E-01     0.0000000000000000E+00 
    1.0000000000000000E+00     9.3749999999983680E-01     0.0000000000000000E+00 
    1.0000000000000000E+00     9.6874999999991840E-01     0.0000000000000000E+00 
    9.6875000000003686E-01     1.0000000000000000E+00     0.0000000000000000E+00 
    9.3750000000011691E-01     1.0000000000000000E+00     0.0000000000000000E+00 
    9.0625000000015765E-01     1.0000000000000000E+00     0.0000000000000000E+00 
    8.7500000000017863E-01     1.0000000000000000E+00     0.0000000000000000E+00 
    8.4375000000028044E-01     1.0000000000000000E+00     0.0000000000000000E+00 
    8.1250000000040856E-01     1.0000000000000000E+00     0.0000000000000000E+00 
    7.8125000000054956E-01     1.0000000000000000E+00     0.0000000000000000E+00 
    7.5000000000066480E-01     1.0000000000000000E+00     0.0000000000000000E+00 
    7.1875000000086831E-01     1.0000000000000000E+00     0.0000000000000000E+00 
    6.8750000000102829E-01     1.0000000000000000E+00     0.0000000000000000E+00 
    6.5625000000114431E-01     1.0000000000000000E+00     0.0000000000000000E+00 
    6.2500000000129829E-01     1.0000000000000000E+00     0.0000000000000000E+00 
    5.9375000000147926E-01     1.0000000000000000E+00     0.0000000000000000E+00 
    5.6250000000168354E-01     1.0000000000000000E+00     0.0000000000000000E+00 
    5.3125000000188671E-01     1.0000000000000000E+00     0.0000000000000000E+00 
    5.0000000000205835E-01     1.0000000000000000E+00     0.0000000000000000E+00 
    4.6875000000192979E-01     1.0000000000000000E+00     0.0000000000000000E+00 
    4.3750000000180111E-01     1.0000000000000000E+00     0.0000000000000000E+00 
    4.0625000000167238E-01     1.0000000000000000E+00     0.0000000000000000E+00 
    3.7500000000154382E-01     1.0000000000000000E+00     0.0000000000000000E+00 
    3.4375000000141509E-01     1.0000000000000000E+00     0.0000000000000000E+00 
    3.1250000000128642E-01     1.0000000000000000E+00     0.0000000000000000E+00 
    2.8125000000115769E-01     1.0000000000000000E+00     0.0000000000000000E+00 
    2.5000000000102918E-01     1.0000000000000000E+00     0.0000000000000000E+00 
    2.1875000000090050E-01     1.0000000000000000E+00     0.0000000000000000E+00 
    1.8750000000077180E-01     1.0000000000000000E+00     0.0000000000000000E+00 
    1.5625000000064329E-01     1.0000000000000000E+00     0.0000000000000000E+00 
    1.2500000000051459E-01     1.0000000000000000E+00     0.0000000000000000E+00 
    9.3750000000385914E-02     1.0000000000000000E+00     0.0000000000000000E+00 
    6.2500000000257239E-02     1.0000000000000000E+00     0.0000000000000000E+00 
    3.1250000000128557E-02     1.0000000000000000E+00     0.0000000000000000E+00 
    0.0000000000000000E+00     9.6875000000003686E-01     0.0000000000000000E+00 
    0.0000000000000000E+00     9.3750000000011691E-01     0.0000000000000000E+00 
    0.0000000000000000E+00     9.0625000000015765E-01     0.0000000000000000E+00 
    0.0000000000000000E+00     8.7500000000017863E-01     0.0000000000000000E+00 
    0.0000000000000000E+00     8.4375000000028044E-01     0.0000000000000000E+00 
    0.0000000000000000E+00     8.1250000000040856E-01     0.0000000000000000E+00 
    0.0000000000000000E+00     7.8125000000054956E-01     0.0000000000000000E+00 
    0.0000000000000000E+00     7.5000000000066480E-01     0.0000000000000000E+00 
    0.0000000000000000E+00     7.1875000000086831E-01     0.0000000000000000E+00 
    0.0000000000000000E+00     6.8750000000102829E-01     0.0000000000000000E+00 
    0.0000000000000000E+00     6.5625000000114431E-01     0.0000000000000000E+00 
    0.0000000000000000E+00     6.2500000000129829E-01     0.0000000000000000E+00 
    0.0000000000000000E+00     5.9375000000147926E-01     0.0000000000000000E+00 
    0.0000000000000000E+00     5.6250000000168354E-01     0.0000000000000000E+00 
    0.0000000000000000E+00     5.3125000000188671E-01     0.0000000000000000E+00 
    0.0000000000000000E+00     5.0000000000205835E-01     0.0000000000000000E+00 
    0.0000000000000000E+00     4.6875000000192979E-01     0.0000000000000000E+00 
    0.0000000000000000E+00     4.3750000000180111E-01     0.0000000000000000E+00 
    0.0000000000000000E+00     4.0625000000167238E-01     0.0000000000000000E+00 
[...]
CELL_DATA 2795 
SCALARS Pressure double 1 
LOOKUP_TABLE default 

    6.3897600659636726E+00 
    1.4583604137897897E+01 
    1.0270074253239414E+01 
    9.8810276258142871E+00 
    7.8530024149597306E+00 
    1.4450137151362281E+01 
    1.5184624469522147E+01 
    5.7088039611234329E+00 
    1.0831098166225756E+01 
    8.3038079081220868E+00 
    7.0883978604397369E+00 
    1.4190020956567800E+01 
    1.4491499353672435E+01 
    1.4418783756878542E+01 
    9.4835665034502981E+00 
    5.6148577044224179E+00 
    9.0856301447488672E+00 
    7.5459453792252580E+00 
    1.3820954419496395E+01 
    1.0258049126151640E+01 
    1.0152967503730483E+01 
    1.4352616429701461E+01 
    9.6095488141727987E+00 
    3.7546412299100818E-01 
    1.4189407401000350E+01 
    1.4459869888135959E+01 
    1.5215998191216604E+01 
    6.8161926137596867E+00 
    1.4109237468506121E+01 
    1.5209666619874866E+01 
    1.0323857013533068E+01 
    1.0473592423013889E+01 
    7.3689379307409499E+00 
    1.0232703021471611E+01 
    3.3084577788079459E+00 
    9.0913760089561553E+00 
    1.0221247118954691E+01 
    1.5249603712193586E+01 
    1.5161411353836774E+01 
    1.4203019822629445E+01 
    7.7977982799028904E+00 
    1.4163526305803632E+01 
    7.8106342959784236E-01 
    1.0131991905397117E+01 
    1.4975452242239410E+01 
    1.4801331886286340E+01 
    1.4179183266019718E+01 
    1.1200894298156626E+01 
    1.4250058488830408E+01 
    9.2950902973978131E+00 
    8.8556640145434358E+00 
    1.0439256907501395E+01 
    1.0020813857318945E+01 
    9.1384734468743432E+00 
    1.0392643114030070E+01 
    1.3607427066159579E+01 
    1.2208130111322696E+01 
    7.8954503382778158E+00 
    1.4357018043882436E+01 
    1.4278537784457408E+01 
    9.8665725773518282E+00 
    9.8806589129935496E+00 
    9.7818514242546613E+00 
    1.5111260218628010E+01 
    1.5366901669023315E+01 
    9.0960923760090608E+00 
    1.0438361262766948E+01 
    1.4073380488943993E+01 
    1.2031510328549869E+01 
    9.9268524149406581E+00 
    1.5375759149493948E+01 
    1.4302377411634739E+01 
    8.9694376014777593E+00 
    1.4904840723264583E+01 
    1.0625209730493294E+01 
    1.4039477466543609E+01 
    1.5260210172413794E+01 
    1.0677860522388320E+01 
    6.5591771747959147E+00 
    1.0456836343351300E+01 
    1.5170540736901852E+01 
    1.5405488099183485E+01 
    9.1112675126014722E+00 
    1.0374968325871064E+01 
    1.5450564391404560E+01 
    1.0223239870260803E+01 
    9.6970686692857306E+00 
    1.2460911921339180E+01 
    6.2402505291227950E+00 
    8.8789438965025838E+00 
    1.0374160835322513E+01 
    1.0994278753974399E+01 
    1.6925763229707982E+01 
    7.6318994803844475E+00 
    1.0446453975786149E+01 
    1.4156731562667041E+01 
    1.4442258792853309E+01 
    6.7229463060681658E+00 
    1.0093085717283344E+01 
    1.0404690528362735E+01 
    1.4462946912414878E+01 
    1.0403945927515831E+01 
    1.4393810006730435E+01 
    4.0884561865581253E+00 
    6.8922011797725107E+00 
    1.0677726555872930E+01 
    1.4591769384308140E+01 
    9.0559203889998869E+00 
    9.6431323573766914E+00 
    1.0387074545149186E+01 
    9.6628398162234799E+00 
    1.1784499295689585E+01 
    9.3804670899851725E+00 
    8.9776184730790565E+00 
    7.1071078073013085E+00 
    1.2219569411964869E+01 
    1.0475614097948920E+01 
    1.5022416736572900E+01 
    9.0065452347056549E+00 
    9.8619963025968627E+00 
    1.4290302813737290E+01 
    8.2278609901648032E+00 
    1.4742906714561780E+01 
    1.0299281875202253E+01 
    9.7905869193155635E+00 
    1.4444319587362589E+01 
    1.0469015021660097E+01 
    1.5271704748867542E+01 
    1.2474317915771646E+01 
    1.3450734950183804E+01 
    1.5232852287951198E+01 
    7.6473200077016861E+00 
    1.0704560830850417E+01 
    1.4444391569512113E+01 
    3.0628876629644943E+00 
    1.0371250438664646E+01 
    1.5199011344333154E+01 
    9.8197191738112206E+00 
    1.1352078537336686E+01 
    6.7018381187108833E+00 
    1.4154690632798586E+01 
    1.7420019823065619E+01 
    1.2956796664744051E+01 
    9.8189894194856091E+00 
    8.7771783092773177E+00 
    1.1032434498779594E+01 
    1.0316150145524986E+01 
    7.1632245885478305E+00 
    1.5228698059227026E+01 
    1.4515867922649086E+01 
    1.4158428125465710E+01 
    1.0998409314088294E+01 
    8.9392640571611306E+00 
    1.0151126695651959E+01 
    1.4933084466598689E+01 
    9.1976042740539601E+00 
    1.0299278945844657E+01 
    9.3666838280694869E+00 
    1.1953122713015865E+01 
    1.7408135168033759E+01 
    1.4149914141482363E+01 
    8.9097683964882197E+00 
    1.4639477482171444E+01 
    1.4550638540479577E+01 
    1.4631448336729637E+01 
    1.5650803480155115E+01 
    1.6198014795478553E+01 
    1.4799054627902784E+01 
    1.0430095139551433E+01 
    1.1213291766977553E+01 
    1.4623571815579014E+01 
    1.5034630298261682E+01 
    7.4760317076783123E+00 
    1.4178830810480708E+01 
    1.4894686454179761E+01 
    7.2800146632902294E+00 
    1.5569245552766830E+01 
    1.5549194057419781E+01 
    1.3891929306201607E+01 
    1.0776765845659103E+01 
    2.6964117539844490E+00 
    1.5199836752574468E+01 
    1.0609523265574909E+01 
    1.5321466593851071E+01 
    9.7488226224342096E+00 
    1.5034291317611775E+01 
    9.5958494485901413E-01 
    1.3468199417554418E+01 
    9.9256386852278720E+00 
    8.8979391492679607E+00 
    8.6709776214110068E+00 
    1.0268904852376920E+01 
    1.1426665767512628E+01 
    1.0708654331627837E+01 
    7.2241315996949655E+00 
    1.5029133633429261E+01 
    1.4468592053614413E+01 
    1.2160769565405253E+01 
    1.0672032622592786E+01 
    1.5641856157643654E+00 
    7.9999764543978378E+00 
    5.5575404617661173E+00 
    1.5220378330319669E+01 
    1.1539216262234953E+01 
    1.4518231844805690E+01 
    1.4535744137231676E+01 
    9.2772865727471405E+00 
    1.2145555773793591E+01 
    1.4153897505571251E+01 
    1.5531253931227669E+01 
    6.6631383734033136E+00 
    1.2793490102045084E+01 
    1.0731068463377333E+01 
    5.9320867185113055E+00 
    9.2703918169313511E+00 
    1.2743770113964704E+01 
    1.4497064222812726E+01 
    1.0322675313665467E+01 
    1.4608983647964843E+01 
    1.4371472472345161E+01 
    1.4319757387215756E+01 
    1.0157172889723707E+01 
    8.8330681073411323E+00 
    1.4166345971156270E+01 
    8.9632053115005679E+00 
    1.0409130599765451E+01 
    8.7861807364073155E+00 
    1.0244638473054112E+01 
    1.4544768172516013E+01 
    6.4826691572686430E+00 
    9.1770675783604858E+00 
    1.5133889274465941E+01 
    1.0169011851786353E+01 
    1.1433881764568776E+01 
    6.6513409450156367E+00 
    9.0291654185454870E+00 
    1.4349247024643610E+01 
    1.4665398363770151E+01 
    5.4242763426140623E+00 
    1.0175163375818288E+01 
    8.8307145436410490E+00 
    1.5961112474588482E+01 
    1.5413487853520119E+01 
    1.6225762300427764E+01 
    1.0195305541257769E+01 
    1.4517825052234127E+01 
    1.4109784701519969E+01 
    1.0065846449153835E+01 
    1.4158848939885685E+01 
    1.0671409310949675E+01 
    6.0175218175047327E+00 
    1.0445598771224732E+01 
    1.5119340366573596E+01 
    1.4155606551807111E+01 
    7.0517965849728501E+00 
    1.4185931554570255E+01 
    1.1439534332501093E+01 
    1.0351327990654324E+01 
    9.8954292741504872E+00 
    1.4019488169195551E+01 
    1.0876528299990746E+01 
    1.4171907431941449E+01 
    1.0065440464667947E+01 
    6.2400105371690886E+00 
    1.0479504301675464E+01 
    8.6814267121107473E+00 
    1.2960121353677888E+01 
    1.5320736738726438E+01 
    1.4164610561897730E+01 
    1.5192560639879737E+01 
    1.0116418224348092E+01 
    6.8679094775340870E+00 
    6.9651419541530784E+00 
    1.0536811202199484E+01 
    1.0384880386279937E+01 
    1.4923600956356189E+00 
    1.3657363235902318E+01 
    1.5679231065550548E+01 
    9.7630596026007268E+00 
    6.2596536506995060E+00 
    1.1909080892106344E+01 
    1.4184474429806517E+01 
    7.3995089069405005E+00 
    5.0233637232442385E+00 
    1.0362757768641142E+01 
    1.4265966652602838E+01 
    1.4932049741419503E+01 
    1.4820623919584850E+01 
    1.4668961499398609E+01 
    7.2428285399972481E+00 
    1.0345568153797325E+01 
    1.3697397882674357E+01 
    8.1522759952102977E+00 
    1.4478301846957194E+01 
    1.2399702184140400E+01 
    7.0705183551912540E+00 
    1.4294520837157805E+01 
    1.5226806089529802E+01 
    1.4312462734186337E+01 
    7.1246919878054928E+00 
    1.0434557991184050E+01 
    7.8269403662258377E+00 
    9.8529859491431040E+00 
    1.4175694489756133E+01 
    1.4163562518345891E+01 
    7.1660303293072927E+00 
    1.5074370119152917E+01 
    1.0992836177613810E+01 
    1.4196555053405147E+01 
    1.5041002569862107E+01 
    1.4183648705913347E+01 
    1.3209076280419783E+01 
    1.6016745470649347E+01 
    9.7163643670623383E+00 
    1.5161379833102167E+01 
    1.4224753628275527E+01 
    1.5235081392150022E+01 
    1.5067310222447704E+01 
    9.8186281479187212E+00 
    1.0261616414606966E+01 
    9.7534400195726114E+00 
    1.2698442488307949E+01 
    4.1018367744624902E+00 
    1.0472604231850177E+01 
    1.6144128027693327E+01 
    1.0672991718314300E+01 
    1.0865818372249937E+01 
    1.5207802964168224E+01 
    1.5441866303956036E+01 
    9.6422627068691718E+00 
    1.4190399458601615E+01 
    1.4159540611730176E+01 
    1.0853100605124750E+01 
    1.5021584625702108E+01 
    7.4264396334229978E+00 
    4.7257036128233958E+00 
    1.1141466645015599E+01 
    1.0688920524918617E+01 
    1.4165795704828039E+01 
    6.7030355632527172E+00 
    1.4734338929085428E+01 
    4.8107391258054752E+00 
    1.0618302317791283E+01 
    9.8497153230175449E+00 
    1.0411260604782786E+01 
    1.7459759296475273E+01 
    3.9838377188087515E+00 
    1.0388869907150177E+01 
    1.2425384516067373E+01 
    1.0017304932473824E+01 
    7.9270784354234411E+00 
    1.4849202871769021E+01 
    1.7013692606451357E+01 
    1.5001879722005972E+01 
    1.0328028413375073E+01 
    5.8954239897707934E+00 
    1.6865674031774489E+01 
    1.4457705254921242E+01 
    7.6085042730329189E+00 
    9.9705649470326865E+00 
    1.5634351630809416E+01 
    3.3896666573242804E+00 
    1.0739825277944647E+01 
    1.4967950032499232E+01 
    1.0424716064432021E+01 
    9.0917453725634694E+00 
    1.0429199916500759E+01 
    1.3920688319686317E+01 
    1.0406091366438043E+01 
    5.2447468293100883E+00 
    9.3224426419307005E-01 
    7.7823057724228919E+00 
    1.5856348516146165E+01 
    9.7529156997497690E+00 
    1.1748341150593701E+01 
    1.1186217110849407E+01 
    1.3024155225738047E+01 
    1.0438031723837259E+01 
    1.4364846546608941E+01 
    1.7474157911320873E+01 
    1.2365901159022835E+01 
    1.5133478959930963E+01 
    5.5816043298974582E-01 
    1.4165645253395644E+01 
    5.8215194362677183E+00 
    1.6314808679674520E+01 
    1.0402684800176809E+01 
    9.2462248916265271E+00 
    7.9826371185972098E+00 
    5.4992440309566959E+00 
    1.1666885250589958E+01 
    8.2418263806862591E+00 
    1.2850970627522784E+01 
    2.2612192849813058E+00 
    1.1475178284730998E+01 
    1.4096582535610393E+01 
    6.3235938064652171E+00 
    1.4665460581691134E+01 
    1.6112611762894318E+01 
    1.4500503086855490E+01 
    1.0265585811576427E+01 
    1.0405917562090384E+01 
    1.0395314964653291E+01 
    5.9622896988240592E+00 
    9.4792162947078964E+00 
    9.3183371675247670E+00 
    1.0384174646770969E+01 
    9.6822166502769793E+00 
    7.0672098498670977E-01 
    6.6974557825809864E+00 
    1.0090098185599796E+01 
    1.0358670114693744E+01 
    1.3207795242968889E+01 
    2.2309275667820514E+00 
    1.0811788116800580E+01 
    1.0693254018499621E+01 
    3.8329738721176252E+00 
    1.4356980808342467E+01 
    8.9846888317695921E+00 
    1.0543995174278557E+01 
    1.4454463171170200E+01 
    5.5241204763164991E+00 
    1.4484158525920696E+01 
    9.1031321320713570E+00 
    1.0230147443844833E+00 
    9.8166098984969299E+00 
    1.5086170334771525E+01 
    1.4165454197716736E+01 
    1.4184214206694991E+01 
    1.0743973155607847E+01 
    1.0621022041124268E+01 
    8.9628305105111803E+00 
    7.2691370420805796E+00 
    1.4566783779391985E+01 
    9.9674296445477477E+00 
    7.0772057915341477E+00 
    1.4179875102168010E+01 
    1.4889817179642570E+01 
    1.0562006579406415E+01 
    1.0215478740799252E+01 
    1.7352254281775817E+01 
    1.0853990623654225E+01 
    1.4584045789061022E+01 
    8.5158319129038507E+00 
    1.7502848452556929E+01 
    6.9245329274069336E+00 
    9.3826260424173000E+00 
    7.7572811369288637E+00 
    1.1089835711105412E+01 
    8.8789847439821088E+00 
    1.7486239515380746E+01 
    1.0903044091727386E+01 
    1.3859285371438313E+01 
    7.1220304334382529E+00 
    1.0434327686725988E+01 
    1.4423246184265363E+01 
    8.9139448825671703E+00 
    7.5412982450985995E+00 
    1.1555276657138011E+01 
    1.4653643759034505E+01 
    7.6349700793099995E+00 
    9.8708624018467610E+00 
    1.0245676310154792E+01 
    1.4140377056600402E+01 
    1.0043475129169886E+01 
    1.4629305583607719E+01 
    1.5264437190522079E+01 
    8.9902326926584273E+00 
    8.8091723857477042E+00 
    8.2727317927657218E+00 
    1.4285658719668286E+01 
    1.0698186032757345E+01 
    1.7053509954749401E+01 
    1.3388609176135914E+01 
    1.4381514278356489E+01 
    1.6737665257468461E+01 
    1.6120265025524571E+01 
    1.0480859826794967E+01 
    1.0368774565870199E+01 
    1.3924058469207841E+01 
    1.4204551026571510E+01 
    1.4743830713870475E+01 
    1.4478578487053651E+01 
    1.7373537762946597E+01 
    1.0853516918607284E+01 
    9.0955932152178640E+00 
    1.0847506900250174E+01 
    1.5176383949027304E+01 
    1.0581316078715892E+01 
    6.1756296574498002E+00 
    1.0249197782330780E+01 
    1.5600674240621917E+01 
    1.0730204149957117E+01 
    9.1062864472792100E+00 
    1.0187071806366832E+01 
    1.5713408348370802E+01 
    1.4221417844984051E+01 
    8.6470352265755750E+00 
    1.5852167704798799E+01 
    1.0510065150516601E+01 
    1.4735338807304807E+01 
    1.5727046493649778E+01 
    1.1043983937262004E+01 
    5.5303785399081233E+00 
    1.1502421954123056E+01 
    5.7252234336625296E+00 
    1.0639097043692436E+01 
    1.0426654061029131E+01 
    1.2119625183251367E+01 
    6.0533973187094627E+00 
    1.2866372688275421E+01 
    1.0446358052733183E+01 
    1.4468548839179372E+01 
    1.1048542494784575E+01 
    8.4658073064650203E+00 
    1.0060505635729973E+01 
    1.0904217344192281E+01 
    1.0960188763547780E+01 
    1.5309610851310580E+01 
    8.6848418635997326E+00 
    8.5352932430603339E+00 
    6.3676964664005409E+00 
    1.4767394556166298E+01 
    1.0101914726846484E+01 
    1.4009424354366491E+01 
    1.0397207903702304E+01 
    6.9665831488893533E+00 
    1.4251076157564430E+01 
    1.0372827930358621E+01 
    7.5956677135956934E+00 
    8.0467034690279604E+00 
    8.3324107991768042E+00 
    1.4499550207393579E+01 
    1.0386193235821363E+01 
    1.5145401438050770E+01 
    1.0331855634119846E+01 
    1.0270345915235380E+01 
    9.7879753002052006E+00 
    1.4335840289793046E+01 
    1.0187492953840637E+01 
    8.3737791701290529E+00 
    1.6108282409545694E+01 
    1.4418315475750203E+01 
    7.2546937108529619E+00 
    2.8128042524168553E+00 
    1.0375565485596935E+01 
    9.7802085713449642E+00 
    8.8008074561355532E+00 
    9.5870967226454678E+00 
    1.4374856961392066E+01 
    1.0078534400907277E+01 
    9.1513579386902588E+00 
    1.4226920058044268E+01 
    7.1903031267038822E+00 
    1.3883161876183664E+01 
    9.4458504212854120E+00 
    8.3262877280836793E+00 
    8.8868852075665021E+00 
    1.4821783758251270E+01 
    1.0414158149603766E+01 
    1.0422257565814103E+01 
    6.1342834898953500E+00 
    6.6329340266770744E+00 
    1.3203437544126457E+01 
    1.0432048431844494E+01 
    1.0416024981908771E+01 
    1.5837545007970977E+01 
    8.5389137473140551E+00 
    1.0444339725464918E+01 
    7.4361232821648109E+00 
    7.6702672180525457E+00 
    1.4329324304289722E+01 
    1.0073668952804240E+01 
    7.3159236522857354E+00 
    1.1007160682021803E+01 
    1.0319701345760199E+01 
    1.4332265259580501E+01 
    1.5932098201518887E+01 
    1.0745851464610638E+00 
    1.0380531710377976E+01 
    1.0686788109246093E+01 
    1.4397677804304964E+01 
    9.8909447163246274E+00 
    1.0387874122667514E+01 
    1.5363678034466616E+01 
    8.9241270941293340E+00 
    7.3818804908294497E+00 
    1.2597331974236580E+01 
    1.4179573850088806E+01 
    1.5233572334881185E+01 
    1.5507036326807818E+01 
    1.0220598111079823E+01 
    1.0371898655492881E+01 
    1.1734436190295973E+01 
    6.8934637456775176E+00 
    1.4311436021339178E+01 
    7.9550867112628874E+00 
    7.1791747037874805E+00 
    1.3086536294904400E+01 
    1.2316972305130783E+01 
    7.0405914941563967E+00 
    1.4216152859770734E+01 
    1.5219369974736608E+01 
    1.0869648495374326E+01 
    1.6035514268524675E+01 
    1.4250249513180579E+01 
    9.9540595683116297E+00 
    1.4952825687400187E+01 
    7.6745779705605948E+00 
    1.4198803387028146E+01 
    1.0379434662210073E+01 
    1.0340693086862004E+01 
    1.6011005660151095E+01 
    1.0136805702171943E+01 
    1.2806433867167181E+01 
    8.8707262159679789E+00 
    1.5339477450710685E+01 
    1.4102935675680003E+01 
    9.2559779719947191E+00 
    1.4154424736081136E+01 
    9.4686158297375318E+00 
    1.0396800343400500E+01 
    1.5178164822095786E+01 
    1.4474165998022277E+01 
    1.5222583036431203E+01 
    1.4401038595145483E+01 
    9.4850081815037903E+00 
    9.7057685320931153E+00 
    1.5229689913252397E+01 
    9.8340776383776269E+00 
    1.4031744009530986E+01 
    1.0125349002026649E+01 
    4.1330471206296293E+00 
    7.2539024277237996E+00 
    6.7184078182516140E+00 
    1.5181856368219165E+01 
    1.5938757533846692E+01 
    1.4172956940311300E+01 
    1.2018291937672325E+01 
    1.4469486372256918E+01 
    1.4224417716451622E+01 
    1.4824007114118823E+01 
    5.9265306294254563E+00 
    3.8523270886014718E+00 
    1.1805262431306391E+01 
    1.0053185558472631E+01 
    1.4376560463930586E+01 
    1.4373984510186899E+01 
    1.0712819847509525E+01 
    1.4412199282447295E+01 
    1.0366151344037647E+01 
    1.0294843740615764E+01 
    5.3477450453672191E+00 
    3.8388529293164724E+00 
    1.5710119904070709E+01 
    8.1467281938185252E+00 
    9.1978140598306073E+00 
    1.0595519733005931E+01 
    1.7354162337880165E+01 
    1.0696688054611833E+01 
    1.0715202936582768E+01 
    4.3700133869546063E+00 
    1.0698436669344229E+01 
    1.0713566293587103E+01 
    1.4701279427555303E+01 
    8.8929964559488699E+00 
    9.9717052790034533E+00 
    1.5881569599409456E+01 
    1.0388950589654854E+01 
    1.4189237429671532E+01 
    1.4451862891393663E+01 
    1.2815450538688362E+01 
    8.8498958869767499E+00 
    1.4400621621413647E+01 
    1.0184007606939788E+01 
    1.4376722787869268E+01 
    1.4126360258085349E+01 
    1.5201387882929277E+01 
    1.4398772073992061E+01 
    1.3510897215617305E+01 
    1.0377487892858909E+01 
    6.9866795602230427E+00 
    1.7225549246491159E+01 
    8.1172852674070395E+00 
    1.5128860813319999E+01 
    1.0374891682582032E+01 
    8.5837834401436446E+00 
    5.1498850126930069E+00 
    1.0752317380872849E+01 
    1.4387115629411968E+01 
    1.4383428435057835E+01 
    1.0377566800220020E+01 
    1.0369052168470606E+01 
    1.6091853833919330E+01 
    1.5449054043329356E+01 
    1.0715666854653044E+01 
    3.5839776435942063E+00 
    1.3454559944096863E+01 
    1.7483607822682696E+01 
    1.0380806183015068E+01 
    1.2408775231626354E+01 
    9.8894710521857334E+00 
    1.7080118047001303E+01 
    1.5530338513139730E+01 
    1.5262959581944283E+01 
    1.0737884892147328E+01 
    4.8019414193489771E+00 
    9.8459180430855024E+00 
    9.9145819553083783E+00 
    9.9555032652693107E+00 
    3.9036391795827337E+00 