# vtk DataFile Version 2.0
Pressure Field Data 
ASCII 
DATASET UNSTRUCTURED_GRID 

POINTS 2860 double 

    0.0000000000000000E+00     0.0000000000000000E+00     0.0000000000000000E+00 
    1.0000000000000000E+00     0.0000000000000000E+00     0.0000000000000000E+00 
    1.0000000000000000E+00     1.0000000000000000E+00     0.0000000000000000E+00 
    0.0000000000000000E+00     1.0000000000000000E+00     0.0000000000000000E+00 
    2.5000000000000000E-01     2.5000000000000000E-01     0.0000000000000000E+00 
    7.5000000000000000E-01     2.5000000000000000E-01     0.0000000000000000E+00 
    7.5000000000000000E-01     7.5000000000000000E-01     0.0000000000000000E+00 
    2.5000000000000000E-01     7.5000000000000000E-01     0.0000000000000000E+00 
    3.1249999999942091E-02     0.0000000000000000E+00     0.0000000000000000E+00 
    6.2499999999873469E-02     0.0000000000000000E+00     0.0000000000000000E+00 
    9.3749999999826514E-02     0.0000000000000000E+00     0.0000000000000000E+00 
    1.2499999999977961E-01     0.0000000000000000E+00     0.0000000000000000E+00 
    1.5624999999968961E-01     0.0000000000000000E+00     0.0000000000000000E+00 
    1.8749999999959971E-01     0.0000000000000000E+00     0.0000000000000000E+00 
    2.1874999999950970E-01     0.0000000000000000E+00     0.0000000000000000E+00 
    2.4999999999941969E-01     0.0000000000000000E+00     0.0000000000000000E+00 
    2.8124999999932920E-01     0.0000000000000000E+00     0.0000000000000000E+00 
    3.1249999999923850E-01     0.0000000000000000E+00     0.0000000000000000E+00 
    3.4374999999914790E-01     0.0000000000000000E+00     0.0000000000000000E+00 
    3.7499999999905720E-01     0.0000000000000000E+00     0.0000000000000000E+00 
    4.0624999999896660E-01     0.0000000000000000E+00     0.0000000000000000E+00 
    4.3749999999887590E-01     0.0000000000000000E+00     0.0000000000000000E+00 
    4.6874999999878530E-01     0.0000000000000000E+00     0.0000000000000000E+00 
    4.9999999999869471E-01     0.0000000000000000E+00     0.0000000000000000E+00 
    5.3124999999877620E-01     0.0000000000000000E+00     0.0000000000000000E+00 
    5.6249999999885780E-01     0.0000000000000000E+00     0.0000000000000000E+00 
    5.9374999999893940E-01     0.0000000000000000E+00     0.0000000000000000E+00 
    6.2499999999902101E-01     0.0000000000000000E+00     0.0000000000000000E+00 
    6.5624999999910261E-01     0.0000000000000000E+00     0.0000000000000000E+00 
    6.8749999999918421E-01     0.0000000000000000E+00     0.0000000000000000E+00 
    7.1874999999926570E-01     0.0000000000000000E+00     0.0000000000000000E+00 
    7.4999999999934730E-01     0.0000000000000000E+00     0.0000000000000000E+00 
    7.8124999999942890E-01     0.0000000000000000E+00     0.0000000000000000E+00 
    8.1249999999951039E-01     0.0000000000000000E+00     0.0000000000000000E+00 
    8.4374999999959199E-01     0.0000000000000000E+00     0.0000000000000000E+00 
    8.7499999999967359E-01     0.0000000000000000E+00     0.0000000000000000E+00 
    9.0624999999975520E-01     0.0000000000000000E+00     0.0000000000000000E+00 
    9.3749999999983680E-01     0.0000000000000000E+00     0.0000000000000000E+00 
    9.6874999999991840E-01     0.0000000000000000E+00     0.0000000000000000E+00 
    1.0000000000000000E+00     3.1249999999942091E-02     0.0000000000000000E+00 
    1.0000000000000000E+00     6.2499999999873469E-02     0.0000000000000000E+00 
    1.0000000000000000E+00     9.3749999999826514E-02     0.0000000000000000E+00 
    1.0000000000000000E+00     1.2499999999977961E-01     0.0000000000000000E+00 
    1.0000000000000000E+00     1.5624999999968961E-01     0.0000000000000000E+00 
    1.0000000000000000E+00     1.8749999999959971E-01     0.0000000000000000E+00 
    1.0000000000000000E+00     2.1874999999950970E-01     0.0000000000000000E+00 
    1.0000000000000000E+00     2.4999999999941969E-01     0.0000000000000000E+00 
    1.0000000000000000E+00     2.8124999999932920E-01     0.0000000000000000E+00 
    1.0000000000000000E+00     3.1249999999923850E-01     0.0000000000000000E+00 
    1.0000000000000000E+00     3.4374999999914790E-01     0.0000000000000000E+00 
    1.0000000000000000E+00     3.7499999999905720E-01     0.0000000000000000E+00 
    1.0000000000000000E+00     4.0624999999896660E-01     0.0000000000000000E+00 
    1.0000000000000000E+00     4.3749999999887590E-01     0.0000000000000000E+00 
    1.0000000000000000E+00     4.6874999999878530E-01     0.0000000000000000E+00 
    1.0000000000000000E+00     4.9999999999869471E-01     0.0000000000000000E+00 
    1.0000000000000000E+00     5.3124999999877620E-01     0.0000000000000000E+00 
    1.0000000000000000E+00     5.6249999999885780E-01     0.0000000000000000E+00 
    1.0000000000000000E+00     5.9374999999893940E-01     0.0000000000000000E+00 
    1.0000000000000000E+00     6.2499999999902101E-01     0.0000000000000000E+00 
    1.0000000000000000E+00     6.5624999999910261E-01     0.0000000000000000E+00 
    1.0000000000000000E+00     6.8749999999918421E-01     0.0000000000000000E+00 
    1.0000000000000000E+00     7.1874999999926570E-01     0.0000000000000000E+00 
    1.0000000000000000E+00     7.4999999999934730E-01     0.0000000000000000E+00 
    1.0000000000000000E+00     7.8124999999942890E-01     0.0000000000000000E+00 
    1.0000000000000000E+00     8.1249999999951039E-01     0.0000000000000000E+00 
    1.0000000000000000E+00     8.4374999999959199E-01     0.0000000000000000E+00 
    1.0000000000000000E+00     8.7499999999967359E-01     0.0000000000000000E+00 
    1.0000000000000000E+00     9.0624999999975520E-01     0.0000000000000000E+00 
    1.0000000000000000E+00     9.3749999999983680E-01     0.0000000000000000E+00 
    1.0000000000000000E+00     9.6874999999991840E-01     0.0000000000000000E+00 
    9.6875000000003686E-01     1.0000000000000000E+00     0.0000000000000000E+00 
    9.3750000000011691E-01     1.0000000000000000E+00     0.0000000000000000E+00 
    9.0625000000015765E-01     1.0000000000000000E+00     0.0000000000000000E+00 
    8.7500000000017863E-01     1.0000000000000000E+00     0.0000000000000000E+00 
    8.4375000000028044E-01     1.0000000000000000E+00     0.0000000000000000E+00 
    8.1250000000040856E-01     1.0000000000000000E+00     0.0000000000000000E+00 
    7.8125000000054956E-01     1.0000000000000000E+00     0.0000000000000000E+00 
    7.5000000000066480E-01     1.0000000000000000E+00     0.0000000000000000E+00 
    7.1875000000086831E-01     1.0000000000000000E+00     0.0000000000000000E+00 
    6.8750000000102829E-01     1.0000000000000000E+00     0.0000000000000000E+00 
    6.5625000000114431E-01     1.0000000000000000E+00     0.0000000000000000E+00 
    6.2500000000129829E-01     1.0000000000000000E+00     0.0000000000000000E+00 
    5.9375000000147926E-01     1.0000000000000000E+00     0.0000000000000000E+00 
    5.6250000000168354E-01     1.0000000000000000E+00     0.0000000000000000E+00 
    5.3125000000188671E-01     1.0000000000000000E+00     0.0000000000000000E+00 
    5.0000000000205835E-01     1.0000000000000000E+00     0.0000000000000000E+00 
    4.6875000000192979E-01     1.0000000000000000E+00     0.0000000000000000E+00 
    4.3750000000180111E-01     1.0000000000000000E+00     0.0000000000000000E+00 
    4.0625000000167238E-01     1.0000000000000000E+00     0.0000000000000000E+00 
    3.7500000000154382E-01     1.0000000000000000E+00     0.0000000000000000E+00 
    3.4375000000141509E-01     1.0000000000000000E+00     0.0000000000000000E+00 
    3.1250000000128642E-01     1.0000000000000000E+00     0.0000000000000000E+00 
    2.8125000000115769E-01     1.0000000000000000E+00     0.0000000000000000E+00 
    2.5000000000102918E-01     1.0000000000000000E+00     0.0000000000000000E+00 
    2.1875000000090050E-01     1.0000000000000000E+00     0.0000000000000000E+00 
    1.8750000000077180E-01     1.0000000000000000E+00     0.0000000000000000E+00 
    1.5625000000064329E-01     1.0000000000000000E+00     0.0000000000000000E+00 
    1.2500000000051459E-01     1.0000000000000000E+00     0.0000000000000000E+00 
    9.3750000000385914E-02     1.0000000000000000E+00     0.0000000000000000E+00 
    6.2500000000257239E-02     1.0000000000000000E+00     0.0000000000000000E+00 
    3.1250000000128557E-02     1.0000000000000000E+00     0.0000000000000000E+00 
    0.0000000000000000E+00     9.6875000000003686E-01     0.0000000000000000E+00 
    0.0000000000000000E+00     9.3750000000011691E-01     0.0000000000000000E+00 
    0.0000000000000000E+00     9.0625000000015765E-01     0.0000000000000000E+00 
    0.0000000000000000E+00     8.7500000000017863E-01     0.0000000000000000E+00 
    0.0000000000000000E+00     8.4375000000028044E-01     0.0000000000000000E+00 
    0.0000000000000000E+00     8.1250000000040856E-01     0.0000000000000000E+00 
    0.0000000000000000E+00     7.8125000000054956E-01     0.0000000000000000E+00 
    0.0000000000000000E+00     7.5000000000066480E-01     0.0000000000000000E+00 
    0.0000000000000000E+00     7.1875000000086831E-01     0.0000000000000000E+00 
    0.0000000000000000E+00     6.8750000000102829E-01     0.0000000000000000E+00 
    0.0000000000000000E+00     6.5625000000114431E-01     0.0000000000000000E+00 
    0.0000000000000000E+00     6.2500000000129829E-01     0.0000000000000000E+00 
    0.0000000000000000E+00     5.9375000000147926E-01     0.0000000000000000E+00 
    0.0000000000000000E+00     5.6250000000168354E-01     0.0000000000000000E+00 
    0.0000000000000000E+00     5.3125000000188671E-01     0.0000000000000000E+00 
    0.0000000000000000E+00     5.0000000000205835E-01     0.0000000000000000E+00 
    0.0000000000000000E+00     4.6875000000192979E-01     0.0000000000000000E+00 
    0.0000000000000000E+00     4.3750000000180111E-01     0.0000000000000000E+00 
    0.0000000000000000E+00     4.0625000000167238E-01     0.0000000000000000E+00 
[...]
CELL_DATA 2795 
SCALARS Pressure double 1 
LOOKUP_TABLE default 

    8.8617032928707289E+00 
    1.9894697028154134E+01 
    1.3947240880566616E+01 
    1.3641595233268525E+01 
    1.0906655306193498E+01 
    1.9633011295756429E+01 
    2.0648258808339438E+01 
    7.9060976672098775E+00 
    1.4526081298416102E+01 
    1.1063113362917671E+01 
    9.3351577798991769E+00 
    1.9260873272498745E+01 
    1.9783968849347037E+01 
    1.9587006443672877E+01 
    1.2850678474171444E+01 
    7.7704284123864831E+00 
    1.2590245635158553E+01 
    9.9803159310565732E+00 
    1.8628093016750100E+01 
    1.3923250351052685E+01 
    1.3815786866099597E+01 
    1.9488607978482964E+01 
    1.3289839140322758E+01 
    5.3493735706031875E-01 
    1.9221883312866886E+01 
    1.9732795986959879E+01 
    2.0690525527056035E+01 
    8.9827098384792059E+00 
    1.9129559407980508E+01 
    2.0694029402250113E+01 
    1.4176185186745876E+01 
    1.4131875247952834E+01 
    9.7819903267300052E+00 
    1.3909122500712217E+01 
    4.5766200034967346E+00 
    1.2596033148703473E+01 
    1.3891923225813020E+01 
    2.0745141515873346E+01 
    2.0617385085010401E+01 
    1.9279398361768880E+01 
    1.0752174032881781E+01 
    1.9318611306065495E+01 
    1.1093352474334151E+00 
    1.3933968852825114E+01 
    2.0427530791456331E+01 
    2.0048419103274988E+01 
    1.9245229714135998E+01 
    1.4955997516227654E+01 
    1.9276319367812661E+01 
    1.2876580865842028E+01 
    1.2281198227990362E+01 
    1.4092182171683881E+01 
    1.3817490850137139E+01 
    1.2668227547440978E+01 
    1.4260599951089528E+01 
    1.8296187508525886E+01 
    1.6211626384479192E+01 
    1.0964118342907726E+01 
    1.9500552024429552E+01 
    1.9376854668968047E+01 
    1.3593883121683119E+01 
    1.3410014437948872E+01 
    1.3516918164209695E+01 
    2.0566104910976808E+01 
    2.0922698494046440E+01 
    1.2608427859626335E+01 
    1.4090072099898924E+01 
    1.8894245966444796E+01 
    1.6020918227020083E+01 
    1.3494503914973972E+01 
    2.0893148505621447E+01 
    1.9488533588542584E+01 
    1.2436874482192028E+01 
    2.0177469644445264E+01 
    1.4550961446621947E+01 
    1.9063085684331334E+01 
    2.0764596762645567E+01 
    1.4614551368774874E+01 
    8.9319470404230739E+00 
    1.4110174578083194E+01 
    2.0629216626727978E+01 
    2.0944881623234121E+01 
    1.2628833277136204E+01 
    1.4035882693954116E+01 
    2.1001765085914908E+01 
    1.3888207911082381E+01 
    1.3405337473166545E+01 
    1.6591435631412793E+01 
    8.5804980896098595E+00 
    1.2315532866143288E+01 
    1.4031650014583509E+01 
    1.4691081035176987E+01 
    2.2760287738067678E+01 
    1.0599835539472304E+01 
    1.4098715200468876E+01 
    1.9213483499089101E+01 
    1.9703482349420387E+01 
    9.3161102505011311E+00 
    1.3733864904275123E+01 
    1.4068990534136679E+01 
    1.9741700952594464E+01 
    1.4053423190522263E+01 
    1.9611253474637721E+01 
    5.6359096296834030E+00 
    9.0682677261106228E+00 
    1.4339441116721803E+01 
    1.9904525880449516E+01 
    1.2551245002042462E+01 
    1.3296150503811928E+01 
    1.4024490284428005E+01 
    1.3361013194794166E+01 
    1.5764564320478478E+01 
    1.2952976563757099E+01 
    1.2445589437661933E+01 
    9.7171975758116531E+00 
    1.6662662543524643E+01 
    1.4138251702559186E+01 
    2.0455907889239100E+01 
    1.2063857079687141E+01 
    1.3615547768599992E+01 
    1.9498357940114850E+01 
    1.1388724451841615E+01 
    2.0113267333894960E+01 
    1.3963014670918531E+01 
    1.3528797061544154E+01 
    1.9710407866196061E+01 
    1.4123855170223932E+01 
    2.0771179917675031E+01 
    1.6622428872122459E+01 
    1.8027504550982293E+01 
    2.0712742396807368E+01 
    1.0619356701285827E+01 
    1.4361600633154870E+01 
    1.9712733003073875E+01 
    4.2092110574950006E+00 
    1.4234156478964714E+01 
    2.0667476258663825E+01 
    1.3562159709487593E+01 
    1.5494520180573735E+01 
    9.1684578088022892E+00 
    1.9218333629638760E+01 
    2.3319927540626818E+01 
    1.7277497202607453E+01 
    1.3565353939937467E+01 
    1.2173674214399918E+01 
    1.5054148722422479E+01 
    1.3981009841499263E+01 
    9.4488191919773339E+00 
    2.0712945507799272E+01 
    1.9661617506929197E+01 
    1.9216562415184665E+01 
    1.4687012548317767E+01 
    1.2395124031789498E+01 
    1.3809714753723096E+01 
    2.0211156892612070E+01 
    1.2743137629273813E+01 
    1.4135598489523097E+01 
    1.2967228621966695E+01 
    1.6381553384203443E+01 
    2.3306583404919635E+01 
    1.9200537157812768E+01 
    1.2206097333379544E+01 
    1.9985755491316347E+01 
    1.9851205144472509E+01 
    1.9956072068660582E+01 
    2.1257975580376367E+01 
    2.1919464350822707E+01 
    2.0014862899241148E+01 
    1.4080852804830645E+01 
    1.5255533069097527E+01 
    1.9779137197800697E+01 
    2.0450039470652342E+01 
    9.9064330861118659E+00 
    1.9242284611731609E+01 
    2.0151488902511993E+01 
    9.6209535136937347E+00 
    2.1184312325927952E+01 
    2.1128715627545233E+01 
    1.8736957792709166E+01 
    1.4441218633002231E+01 
    3.7265490572275293E+00 
    2.0674622651543789E+01 
    1.4271256209431101E+01 
    2.0847917607924689E+01 
    1.3470729869707068E+01 
    2.0389201609956018E+01 
    1.3897333449956200E+00 
    1.8026821329895867E+01 
    1.3466279362120758E+01 
    1.2341304170458603E+01 
    1.2031992144126946E+01 
    1.3927819395313527E+01 
    1.5283626071843225E+01 
    1.4688151606215566E+01 
    9.8156134533243673E+00 
    2.0455209078288778E+01 
    1.9744366787524658E+01 
    1.6171825922787395E+01 
    1.4329343726503897E+01 
    2.1370659723592391E+00 
    1.1110392690999864E+01 
    7.6737889827175110E+00 
    2.0709576270868336E+01 
    1.5639721324977307E+01 
    1.9671414028852507E+01 
    1.9834314336698291E+01 
    1.2844681523747081E+01 
    1.6310494697422840E+01 
    1.9199881215115536E+01 
    2.1108698203809002E+01 
    9.1702802800533192E+00 
    1.7396668116093508E+01 
    1.4638619800971778E+01 
    8.1676350848056778E+00 
    1.2839243651009552E+01 
    1.7036865434346819E+01 
    1.9782056553850314E+01 
    1.3980694923418001E+01 
    1.9928263747102260E+01 
    1.9615021913704599E+01 
    1.9546099208026384E+01 
    1.3812415077653940E+01 
    1.2227797648097075E+01 
    1.9229091754431046E+01 
    1.2425470599016750E+01 
    1.4064820949975889E+01 
    1.2189850204678244E+01 
    1.4088025193429743E+01 
    1.9847558118326678E+01 
    8.5366603255265243E+00 
    1.2715671011746487E+01 
    2.0592673455510642E+01 
    1.3818089720756642E+01 
    1.5510766584360763E+01 
    8.7469976787526598E+00 
    1.2517113502072382E+01 
    1.9584251961568100E+01 
    2.0001247368124133E+01 
    7.1908797614160989E+00 
    1.3837145648840510E+01 
    1.2230282404811961E+01 
    2.1638647656712962E+01 
    2.0957433911886628E+01 
    2.1957307857885453E+01 
    1.3858214672547819E+01 
    1.9809823898757156E+01 
    1.9106432090912087E+01 
    1.3692121862083999E+01 
    1.9215640659500657E+01 
    1.4329865232351802E+01 
    8.2360013081626473E+00 
    1.4296081720992941E+01 
    2.0581730443896376E+01 
    1.9210117827715287E+01 
    9.2916428434266827E+00 
    1.9254348847878521E+01 
    1.5318391652254256E+01 
    1.4208093107655641E+01 
    1.3652117734723008E+01 
    1.8970786173119368E+01 
    1.4853723892268256E+01 
    1.9235994485243683E+01 
    1.3857696945808526E+01 
    8.4645782608568592E+00 
    1.4151225894897905E+01 
    1.2042353561373478E+01 
    1.7306466896324817E+01 
    2.0832035198682469E+01 
    1.9228374878060020E+01 
    2.0659486578114823E+01 
    1.3748353906934126E+01 
    9.0281628321184950E+00 
    9.1621904533545866E+00 
    1.4440493624283775E+01 
    1.4031373877501384E+01 
    2.1384633646706463E+00 
    1.8329982190279470E+01 
    2.1303428496220256E+01 
    1.3492324285919004E+01 
    8.6330706298111082E+00 
    1.6178626727590380E+01 
    1.9248596760372703E+01 
    1.0263297297421532E+01 
    6.9596272267510590E+00 
    1.4019232821288684E+01 
    1.9359544850680010E+01 
    2.0341009224602651E+01 
    2.0054874310392801E+01 
    2.0003928115260130E+01 
    9.9632819277809119E+00 
    1.4202647987608865E+01 
    1.8665377933540132E+01 
    1.0845449591055230E+01 
    1.9764629894471479E+01 
    1.6603254431992813E+01 
    9.3091425205842704E+00 
    1.9345601732978338E+01 
    2.0753898259489489E+01 
    1.9448677278168002E+01 
    9.8900178036830066E+00 
    1.4085650991197003E+01 
    1.0873686735540446E+01 
    1.3266805667876602E+01 
    1.9239106968482485E+01 
    1.9221853651473740E+01 
    9.9469593719141951E+00 
    2.0453327188837058E+01 
    1.4742260223107602E+01 
    1.9276579111187623E+01 
    2.0492740995465525E+01 
    1.9254980249545866E+01 
    1.7612869501653645E+01 
    2.1715892036205968E+01 
    1.3421148077425787E+01 
    2.0617250885776215E+01 
    1.9305644997610486E+01 
    2.0717626982401047E+01 
    2.0447407347775666E+01 
    1.3553907466397380E+01 
    1.3934216697845390E+01 
    1.3480828030142819E+01 
    1.6891111051337830E+01 
    5.6624568862198235E+00 
    1.4360392211863664E+01 
    2.1863555950260487E+01 
    1.4335759761606164E+01 
    1.4579046196904562E+01 
    2.0681737979298106E+01 
    2.0973900720178520E+01 
    1.3293401208659176E+01 
    1.9259868039570662E+01 
    1.9218766010352429E+01 
    1.4562614083909574E+01 
    2.0384454832093343E+01 
    9.8398715683835807E+00 
    6.2869418273214999E+00 
    1.4932809281836709E+01 
    1.4350655527929435E+01 
    1.9215297712076342E+01 
    9.2947551346563628E+00 
    1.9959046933584006E+01 
    6.4247424802107069E+00 
    1.4278268287605153E+01 
    1.3562276646699834E+01 
    1.4060319678666875E+01 
    2.3362054005409547E+01 
    5.4935602909933436E+00 
    1.4255844104852866E+01 
    1.6985163475735646E+01 
    1.3623259878495812E+01 
    1.0825622643652732E+01 
    2.0188514627890260E+01 
    2.2859478481800586E+01 
    2.0362708194335276E+01 
    1.4178163501516263E+01 
    8.1405868107309978E+00 
    2.2693581125628022E+01 
    1.9730891600681947E+01 
    1.0231772310667019E+01 
    1.3752443426774288E+01 
    2.1236027209679509E+01 
    4.6749701808583310E+00 
    1.4418289813266869E+01 
    2.0408442153900889E+01 
    1.4078506743379553E+01 
    1.2184077721132885E+01 
    1.4306241410622622E+01 
    1.8731216493920240E+01 
    1.4059866471334166E+01 
    7.2489259756774533E+00 
    1.3774262306005740E+00 
    1.0354977214353637E+01 
    2.1526697504304650E+01 
    1.3479747799814469E+01 
    1.5875721095448496E+01 
    1.5240482043698478E+01 
    1.7391583544592663E+01 
    1.4093339997274146E+01 
    1.9602794326100017E+01 
    2.3377768417571556E+01 
    1.6483610780632336E+01 
    2.0579481937906635E+01 
    8.0220520765675685E-01 
    1.9223722008946698E+01 
    7.9443623933523879E+00 
    2.2061706572715533E+01 
    1.4273108645117240E+01 
    1.2485037700403488E+01 
    1.1089809246663224E+01 
    7.6203871708452668E+00 
    1.5538504054800486E+01 
    1.1023086617301288E+01 
    1.7160930286755796E+01 
    3.1501313798675654E+00 
    1.5367565655733594E+01 
    1.9092643053513473E+01 
    8.3291010714535538E+00 
    1.9829903880179341E+01 
    2.1793427666052605E+01 
    1.9663192261441555E+01 
    1.4098037873989254E+01 
    1.4052951764219271E+01 
    1.4263917393664871E+01 
    8.2591954060785149E+00 
    1.3117328460038369E+01 
    1.2903873618721326E+01 
    1.4249957113372275E+01 
    1.3388294809590054E+01 
    1.0329479225957028E+00 
    9.0634960722456928E+00 
    1.3891907593874555E+01 
    1.4217432999961717E+01 
    1.7650992768371356E+01 
    3.0681125001190055E+00 
    1.4509898623563723E+01 
    1.4359818098930639E+01 
    5.2872575225438938E+00 
    1.9472421642352998E+01 
    1.2451010617726611E+01 
    1.4201303333733213E+01 
    1.9730387130021427E+01 
    7.6457400149376928E+00 
    1.9610277119807066E+01 
    1.2616248489610603E+01 
    1.3944696819370423E+00 
    1.3561095527372089E+01 
    2.0506646329003814E+01 
    1.9226616335486003E+01 
    1.9254778056576193E+01 
    1.4698972346385979E+01 
    1.4281466736601031E+01 
    1.2429158147362529E+01 
    9.8352137060015128E+00 
    1.9889807684364332E+01 
    1.3745276508483412E+01 
    9.5151863496489462E+00 
    1.9247257213240303E+01 
    2.0201682949428417E+01 
    1.4470250792401469E+01 
    1.3872310152380500E+01 
    2.3240998587948191E+01 
    1.4563881367981898E+01 
    1.9901583468367555E+01 
    1.1809544384624200E+01 
    2.3407446963433543E+01 
    9.1104947235059583E+00 
    1.2954065735007381E+01 
    1.0328282083477221E+01 
    1.4868305327467588E+01 
    1.1960561804683314E+01 
    2.3389635975905392E+01 
    1.4627042473149219E+01 
    1.8735613848814069E+01 
    9.3882035432605129E+00 
    1.4086331936565427E+01 
    1.9684485652883723E+01 
    1.2026238924206281E+01 
    1.0267640083936449E+01 
    1.5809413587241963E+01 
    1.9910501625244031E+01 
    1.0107934666011348E+01 
    1.3591229183451498E+01 
    1.3916843954162784E+01 
    1.9186407639179937E+01 
    1.3645927978551601E+01 
    1.9952704005547538E+01 
    2.0756042334333678E+01 
    1.2461489549371075E+01 
    1.2216716439312577E+01 
    1.1017038151269361E+01 
    1.9389253833834122E+01 
    1.4384937901095803E+01 
    2.2904254076351990E+01 
    1.7843804440555559E+01 
    1.9627078992552700E+01 
    2.2545332278960920E+01 
    2.1801350282800652E+01 
    1.4138096757512482E+01 
    1.4230395551607138E+01 
    1.8749424438004656E+01 
    1.9280340385396631E+01 
    2.0127375835137610E+01 
    1.9760442547774755E+01 
    2.3268368171905749E+01 
    1.4563244995825032E+01 
    1.2609089940467840E+01 
    1.4532647452097326E+01 
    2.0637722352751954E+01 
    1.4242302993756901E+01 
    8.1614650337705523E+00 
    1.4077113545593924E+01 
    2.1199368127600458E+01 
    1.4405476687775121E+01 
    1.2620030392524555E+01 
    1.3853516386748447E+01 
    2.1337648880189747E+01 
    1.9413068784245063E+01 
    1.1924887863196215E+01 
    2.1505739585236121E+01 
    1.4169140339016526E+01 
    2.0091481371588767E+01 
    2.1351833268185139E+01 
    1.5008374697762132E+01 
    7.6602376184604219E+00 
    1.5589942832057927E+01 
    7.9155539849121270E+00 
    1.4297241058888657E+01 
    1.4084579107899923E+01 
    1.6398473191788330E+01 
    8.3707078406551840E+00 
    1.7427565704396152E+01 
    1.4100846452354384E+01 
    1.9745987995713737E+01 
    1.5175207291418294E+01 
    1.1532167091167334E+01 
    1.3687679412926490E+01 
    1.4894495688666851E+01 
    1.4699413156330623E+01 
    2.0842467439487177E+01 
    1.2053336118968595E+01 
    1.1847946133645166E+01 
    8.7945406979625744E+00 
    2.0152340402163198E+01 
    1.3742419637094487E+01 
    1.9079431897841811E+01 
    1.4050071449254427E+01 
    9.6132162963970078E+00 
    1.9433380682670421E+01 
    1.4025827257230748E+01 
    1.0503953291312470E+01 
    1.1152674635861784E+01 
    1.1558531884851510E+01 
    1.9790946955539425E+01 
    1.4252504174969353E+01 
    2.0595355845170790E+01 
    1.3984660088081375E+01 
    1.3919921323036261E+01 
    1.3486912839053385E+01 
    1.9558885062376390E+01 
    1.3823845783358845E+01 
    1.1622733538496670E+01 
    2.1790468339819881E+01 
    1.9677622720137403E+01 
    9.5830972348145860E+00 
    3.8654279653994594E+00 
    1.4239305791063829E+01 
    1.3278564754656051E+01 
    1.2210563903782360E+01 
    1.3226322653920366E+01 
    1.9520462077160097E+01 
    1.3860368139209566E+01 
    1.2667203570882831E+01 
    1.9313248095673845E+01 
    9.4825652342499058E+00 
    1.8695518549459365E+01 
    1.2758015497948588E+01 
    1.1422374802410513E+01 
    1.2328257360891897E+01 
    2.0202793171043378E+01 
    1.4062773228888661E+01 
    1.4072402653103225E+01 
    8.5020220791040533E+00 
    9.1998093883385046E+00 
    1.7733755160587389E+01 
    1.4083366566610501E+01 
    1.4289911310992997E+01 
    2.1492448237882392E+01 
    1.1848519294408803E+01 
    1.4096911492362125E+01 
    9.8456049700244055E+00 
    1.0188277665682762E+01 
    1.9502830251604127E+01 
    1.3672460159034934E+01 
    1.0154462758799006E+01 
    1.4690488269841163E+01 
    1.3989292634173630E+01 
    1.9525706502054216E+01 
    2.1606149858554435E+01 
    1.4765822115412388E+00 
    1.4245550528587444E+01 
    1.4349303774436397E+01 
    1.9648508330720624E+01 
    1.3651042588627691E+01 
    1.4031162601861162E+01 
    2.0919837655213311E+01 
    1.2374804607744203E+01 
    1.0243937422288839E+01 
    1.6753611963207611E+01 
    1.9246328911586879E+01 
    2.0711854831943565E+01 
    2.1074011210650966E+01 
    1.4044022969223805E+01 
    1.4234448251986571E+01 
    1.5603894727940329E+01 
    9.0674336454705120E+00 
    1.9435485855638085E+01 
    1.1048936046196033E+01 
    9.4710499627321543E+00 
    1.7402258652939725E+01 
    1.6354569139112925E+01 
    9.2708118029444044E+00 
    1.9297614990511367E+01 
    2.0694575675545867E+01 
    1.4583995994369616E+01 
    2.1731813013664045E+01 
    1.9345007575706351E+01 
    1.3718271362678250E+01 
    2.0298426431918553E+01 
    1.0204115113742233E+01 
    1.9270993986662464E+01 
    1.4244079605323806E+01 
    1.4196485219506883E+01 
    2.1708014933199696E+01 
    1.3794164399653020E+01 
    1.7020450375200923E+01 
    1.2299549362998022E+01 
    2.0853991687053917E+01 
    1.9112796544424022E+01 
    1.2820068894630891E+01 
    1.9215554509244022E+01 
    1.2843503155174261E+01 
    1.4037287926367627E+01 
    2.0639768906301772E+01 
    1.9759864681449265E+01 
    2.0698283667515867E+01 
    1.9652594996848766E+01 
    1.3127802436010580E+01 
    1.3398868882604864E+01 
    2.0709115921036666E+01 
    1.3564680790067206E+01 
    1.8940011897582835E+01 
    1.3769386734234789E+01 
    5.7097686667485288E+00 
    9.5660736504285406E+00 
    8.8462638833234060E+00 
    2.0645061725625141E+01 
    2.1616674531189041E+01 
    1.9238709300497931E+01 
    1.6046514131264480E+01 
    1.9638945002543412E+01 
    1.9309258378049073E+01 
    2.0153644184645973E+01 
    8.2018428955203522E+00 
    5.3165549428610515E+00 
    1.5754336371654862E+01 
    1.3846005570505286E+01 
    1.9529001093608958E+01 
    1.9525341735563806E+01 
    1.4371315161558327E+01 
    1.9579716813279322E+01 
    1.4227153110486983E+01 
    1.4126607277321453E+01 
    7.4024270605734870E+00 
    5.2893126931711025E+00 
    2.1332010187686596E+01 
    1.0891886740290168E+01 
    1.2742564322074514E+01 
    1.4255524788148817E+01 
    2.3245125209333128E+01 
    1.4360597592818658E+01 
    1.4617527506444059E+01 
    6.0123627223162677E+00 
    1.4360409518513995E+01 
    1.4376720925288685E+01 
    1.9873800646786179E+01 
    1.2337042482375574E+01 
    1.3500843608963070E+01 
    2.1543992412373314E+01 
    1.4256131061210636E+01 
    1.9260897408580469E+01 
    1.9565683567116494E+01 
    1.7113471899823448E+01 
    1.1922228080390266E+01 
    1.9650729934473897E+01 
    1.4004877582382553E+01 
    1.9483637609531971E+01 
    1.9162538595311830E+01 
    2.0671110418745965E+01 
    1.9651204496319568E+01 
    1.8062151177081422E+01 
    1.4241587787304184E+01 
    9.1977666687793995E+00 
    2.3102085516999079E+01 
    1.1277498818684833E+01 
    2.0589290658525496E+01 
    1.4238361906321940E+01 
    1.1921568223701245E+01 
    6.9489383195557668E+00 
    1.4419319479365130E+01 
    1.9632715981530449E+01 
    1.9617235715642760E+01 
    1.4014572808003308E+01 
    1.4231120863661420E+01 
    2.1791863947306076E+01 
    2.1000296685206987E+01 
    1.4384015540035447E+01 
    4.9527126733282962E+00 
    1.7942098689735825E+01 
    2.3385019257154369E+01 
    1.4245707005053671E+01 
    1.6556956494733534E+01 
    1.3650538942119814E+01 
    2.2936456084638159E+01 
    2.1104143424068926E+01 
    2.0794224966527565E+01 
    1.4410313469044338E+01 
    6.4823256772188653E+00 
    1.3598646083108392E+01 
    1.3679351304538320E+01 
    1.3727168263107023E+01 
    5.4027453969014321E+00 