# vtk DataFile Version 2.0
Pressure Field Data 
ASCII 
DATASET UNSTRUCTURED_GRID 

POINTS 2860 double 

    0.0000000000000000E+00     0.0000000000000000E+00     0.0000000000000000E+00 
    1.0000000000000000E+00     0.0000000000000000E+00     0.0000000000000000E+00 
    1.0000000000000000E+00     1.0000000000000000E+00     0.0000000000000000E+00 
    0.0000000000000000E+00     1.0000000000000000E+00     0.0000000000000000E+00 
    2.5000000000000000E-01     2.5000000000000000E-01     0.0000000000000000E+00 
    7.5000000000000000E-01     2.5000000000000000E-01     0.0000000000000000E+00 
    7.5000000000000000E-01     7.5000000000000000E-01     0.0000000000000000E+00 
    2.5000000000000000E-01     7.5000000000000000E-01     0.0000000000000000E+00 
    3.1249999999942091E-02     0.0000000000000000E+00     0.0000000000000000E+00 
    6.2499999999873469E-02     0.0000000000000000E+00     0.0000000000000000E+00 
    9.3749999999826514E-02     0.0000000000000000E+00     0.0000000000000000E+00 
    1.2499999999977961E-01     0.0000000000000000E+00     0.0000000000000000E+00 
    1.5624999999968961E-01     0.0000000000000000E+00     0.0000000000000000E+00 
    1.8749999999959971E-01     0.0000000000000000E+00     0.0000000000000000E+00 
    2.1874999999950970E-01     0.0000000000000000E+00     0.0000000000000000E+00 
    2.4999999999941969E-01     0.0000000000000000E+00     0.0000000000000000E+00 
    2.8124999999932920E-01     0.0000000000000000E+00     0.0000000000000000E+00 
    3.1249999999923850E-01     0.0000000000000000E+00     0.0000000000000000E+00 
    3.4374999999914790E-01     0.0000000000000000E+00     0.0000000000000000E+00 
    3.7499999999905720E-01     0.0000000000000000E+00     0.0000000000000000E+00 
    4.0624999999896660E-01     0.0000000000000000E+00     0.0000000000000000E+00 
    4.3749999999887590E-01     0.0000000000000000E+00     0.0000000000000000E+00 
    4.6874999999878530E-01     0.0000000000000000E+00     0.0000000000000000E+00 
    4.9999999999869471E-01     0.0000000000000000E+00     0.0000000000000000E+00 
    5.3124999999877620E-01     0.0000000000000000E+00     0.0000000000000000E+00 
    5.6249999999885780E-01     0.0000000000000000E+00     0.0000000000000000E+00 
    5.9374999999893940E-01     0.0000000000000000E+00     0.0000000000000000E+00 
    6.2499999999902101E-01     0.0000000000000000E+00     0.0000000000000000E+00 
    6.5624999999910261E-01     0.0000000000000000E+00     0.0000000000000000E+00 
    6.8749999999918421E-01     0.0000000000000000E+00     0.0000000000000000E+00 
    7.1874999999926570E-01     0.0000000000000000E+00     0.0000000000000000E+00 
    7.4999999999934730E-01     0.0000000000000000E+00     0.0000000000000000E+00 
    7.8124999999942890E-01     0.0000000000000000E+00     0.0000000000000000E+00 
    8.1249999999951039E-01     0.0000000000000000E+00     0.0000000000000000E+00 
    8.4374999999959199E-01     0.0000000000000000E+00     0.0000000000000000E+00 
    8.7499999999967359E-01     0.0000000000000000E+00     0.0000000000000000E+00 
    9.0624999999975520E-01     0.0000000000000000E+00     0.0000000000000000E+00 
    9.3749999999983680E-01     0.0000000000000000E+00     0.0000000000000000E+00 
    9.6874999999991840E-01     0.0000000000000000E+00     0.0000000000000000E+00 
    1.0000000000000000E+00     3.1249999999942091E-02     0.0000000000000000E+00 
    1.0000000000000000E+00     6.2499999999873469E-02     0.0000000000000000E+00 
    1.0000000000000000E+00     9.3749999999826514E-02     0.0000000000000000E+00 
    1.0000000000000000E+00     1.2499999999977961E-01     0.0000000000000000E+00 
    1.0000000000000000E+00     1.5624999999968961E-01     0.0000000000000000E+00 
    1.0000000000000000E+00     1.8749999999959971E-01     0.0000000000000000E+00 
    1.0000000000000000E+00     2.1874999999950970E-01     0.0000000000000000E+00 
    1.0000000000000000E+00     2.4999999999941969E-01     0.0000000000000000E+00 
    1.0000000000000000E+00     2.8124999999932920E-01     0.0000000000000000E+00 
    1.0000000000000000E+00     3.1249999999923850E-01     0.0000000000000000E+00 
    1.0000000000000000E+00     3.4374999999914790E-01     0.0000000000000000E+00 
    1.0000000000000000E+00     3.7499999999905720E-01     0.0000000000000000E+00 
    1.0000000000000000E+00     4.0624999999896660E-01     0.0000000000000000E+00 
    1.0000000000000000E+00     4.3749999999887590E-01     0.0000000000000000E+00 
    1.0000000000000000E+00     4.6874999999878530E-01     0.0000000000000000E+00 
    1.0000000000000000E+00     4.9999999999869471E-01     0.0000000000000000E+00 
    1.0000000000000000E+00     5.3124999999877620E-01     0.0000000000000000E+00 
    1.0000000000000000E+00     5.6249999999885780E-01     0.0000000000000000E+00 
    1.0000000000000000E+00     5.9374999999893940E-01     0.0000000000000000E+00 
    1.0000000000000000E+00     6.2499999999902101E-01     0.0000000000000000E+00 
    1.0000000000000000E+00     6.5624999999910261E-01     0.0000000000000000E+00 
    1.0000000000000000E+00     6.8749999999918421E-01     0.0000000000000000E+00 
    1.0000000000000000E+00     7.1874999999926570E-01     0.0000000000000000E+00 
    1.0000000000000000E+00     7.4999999999934730E-01     0.0000000000000000E+00 
    1.0000000000000000E+00     7.8124999999942890E-01     0.0000000000000000E+00 
    1.0000000000000000E+00     8.1249999999951039E-01     0.0000000000000000E+00 
    1.0000000000000000E+00     8.4374999999959199E-01     0.0000000000000000E+00 
    1.0000000000000000E+00     8.7499999999967359E-01     0.0000000000000000E+00 
    1.0000000000000000E+00     9.0624999999975520E-01     0.0000000000000000E+00 
    1.0000000000000000E+00     9.3749999999983680E-01     0.0000000000000000E+00 
    1.0000000000000000E+00     9.6874999999991840E-01     0.0000000000000000E+00 
    9.6875000000003686E-01     1.0000000000000000E+00     0.0000000000000000E+00 
    9.3750000000011691E-01     1.0000000000000000E+00     0.0000000000000000E+00 
    9.0625000000015765E-01     1.0000000000000000E+00     0.0000000000000000E+00 
    8.7500000000017863E-01     1.0000000000000000E+00     0.0000000000000000E+00 
    8.4375000000028044E-01     1.0000000000000000E+00     0.0000000000000000E+00 
    8.1250000000040856E-01     1.0000000000000000E+00     0.0000000000000000E+00 
    7.8125000000054956E-01     1.0000000000000000E+00     0.0000000000000000E+00 
    7.5000000000066480E-01     1.0000000000000000E+00     0.0000000000000000E+00 
    7.1875000000086831E-01     1.0000000000000000E+00     0.0000000000000000E+00 
    6.8750000000102829E-01     1.0000000000000000E+00     0.0000000000000000E+00 
    6.5625000000114431E-01     1.0000000000000000E+00     0.0000000000000000E+00 
    6.2500000000129829E-01     1.0000000000000000E+00     0.0000000000000000E+00 
    5.9375000000147926E-01     1.0000000000000000E+00     0.0000000000000000E+00 
    5.6250000000168354E-01     1.0000000000000000E+00     0.0000000000000000E+00 
    5.3125000000188671E-01     1.0000000000000000E+00     0.0000000000000000E+00 
    5.0000000000205835E-01     1.0000000000000000E+00     0.0000000000000000E+00 
    4.6875000000192979E-01     1.0000000000000000E+00     0.0000000000000000E+00 
    4.3750000000180111E-01     1.0000000000000000E+00     0.0000000000000000E+00 
    4.0625000000167238E-01     1.0000000000000000E+00     0.0000000000000000E+00 
    3.7500000000154382E-01     1.0000000000000000E+00     0.0000000000000000E+00 
    3.4375000000141509E-01     1.0000000000000000E+00     0.0000000000000000E+00 
    3.1250000000128642E-01     1.0000000000000000E+00     0.0000000000000000E+00 
    2.8125000000115769E-01     1.0000000000000000E+00     0.0000000000000000E+00 
    2.5000000000102918E-01     1.0000000000000000E+00     0.0000000000000000E+00 
    2.1875000000090050E-01     1.0000000000000000E+00     0.0000000000000000E+00 
    1.8750000000077180E-01     1.0000000000000000E+00     0.0000000000000000E+00 
    1.5625000000064329E-01     1.0000000000000000E+00     0.0000000000000000E+00 
    1.2500000000051459E-01     1.0000000000000000E+00     0.0000000000000000E+00 
    9.3750000000385914E-02     1.0000000000000000E+00     0.0000000000000000E+00 
    6.2500000000257239E-02     1.0000000000000000E+00     0.0000000000000000E+00 
    3.1250000000128557E-02     1.0000000000000000E+00     0.0000000000000000E+00 
    0.0000000000000000E+00     9.6875000000003686E-01     0.0000000000000000E+00 
    0.0000000000000000E+00     9.3750000000011691E-01     0.0000000000000000E+00 
    0.0000000000000000E+00     9.0625000000015765E-01     0.0000000000000000E+00 
    0.0000000000000000E+00     8.7500000000017863E-01     0.0000000000000000E+00 
    0.0000000000000000E+00     8.4375000000028044E-01     0.0000000000000000E+00 
    0.0000000000000000E+00     8.1250000000040856E-01     0.0000000000000000E+00 
    0.0000000000000000E+00     7.8125000000054956E-01     0.0000000000000000E+00 
    0.0000000000000000E+00     7.5000000000066480E-01     0.0000000000000000E+00 
    0.0000000000000000E+00     7.1875000000086831E-01     0.0000000000000000E+00 
    0.0000000000000000E+00     6.8750000000102829E-01     0.0000000000000000E+00 
    0.0000000000000000E+00     6.5625000000114431E-01     0.0000000000000000E+00 
    0.0000000000000000E+00     6.2500000000129829E-01     0.0000000000000000E+00 
    0.0000000000000000E+00     5.9375000000147926E-01     0.0000000000000000E+00 
    0.0000000000000000E+00     5.6250000000168354E-01     0.0000000000000000E+00 
    0.0000000000000000E+00     5.3125000000188671E-01     0.0000000000000000E+00 
    0.0000000000000000E+00     5.0000000000205835E-01     0.0000000000000000E+00 
    0.0000000000000000E+00     4.6875000000192979E-01     0.0000000000000000E+00 
    0.0000000000000000E+00     4.3750000000180111E-01     0.0000000000000000E+00 
    0.0000000000000000E+00     4.0625000000167238E-01     0.0000000000000000E+00 
[...]
CELL_DATA 2795 
SCALARS Pressure double 1 
LOOKUP_TABLE default 

    8.6428611081023874E+00 
    1.9349749446733050E+01 
    1.3557401916805574E+01 
    1.3236492598983880E+01 
    1.0592844578706336E+01 
    1.9123641657647266E+01 
    2.0086810297124192E+01 
    7.7228543990918945E+00 
    1.4119321284831578E+01 
    1.0892460112586480E+01 
    9.2802033268832211E+00 
    1.8773718066182266E+01 
    1.9244493788274916E+01 
    1.9080590441861972E+01 
    1.2528458669845170E+01 
    7.5922268360526379E+00 
    1.2214818038760459E+01 
    9.8862921520734606E+00 
    1.8204861634013788E+01 
    1.3535487267822404E+01 
    1.3429240587065872E+01 
    1.8988174468453700E+01 
    1.2893036833595310E+01 
    5.2151608975364416E-01 
    1.8707836557978933E+01 
    1.9193522455791086E+01 
    2.0126837712304184E+01 
    8.9310523020218824E+00 
    1.8657353417854729E+01 
    2.0122722370756183E+01 
    1.3760409572127060E+01 
    1.3742068321918810E+01 
    9.6444434378311641E+00 
    1.3519822035111559E+01 
    4.4304387538844257E+00 
    1.2219762702873640E+01 
    1.3503644652927028E+01 
    2.0171646710775935E+01 
    2.0057191376630232E+01 
    1.8790976379935628E+01 
    1.0464479662155002E+01 
    1.8801163894676883E+01 
    1.0809042559392612E+00 
    1.3524412228194111E+01 
    1.9859892487900701E+01 
    1.9513787314743126E+01 
    1.8759182017183996E+01 
    1.4539940484950753E+01 
    1.8794846790045987E+01 
    1.2496298001951285E+01 
    1.1913957534929891E+01 
    1.3704163587965409E+01 
    1.3408883558043222E+01 
    1.2294933916386816E+01 
    1.3842929178598375E+01 
    1.7854192659507447E+01 
    1.5765552129338325E+01 
    1.0647943710709995E+01 
    1.8998892539419945E+01 
    1.8884089130172484E+01 
    1.3192749774667003E+01 
    1.3053265407239454E+01 
    1.3113915543735134E+01 
    1.9999648614138113E+01 
    2.0338402483519193E+01 
    1.2233984748231851E+01 
    1.3702290401415500E+01 
    1.8414264862266439E+01 
    1.5569653677912761E+01 
    1.3127478560475719E+01 
    2.0321741067790537E+01 
    1.8966937746206781E+01 
    1.2064748104002501E+01 
    1.9642231230834771E+01 
    1.4126197441099615E+01 
    1.8552379255130052E+01 
    2.0188955685828507E+01 
    1.4192837212921289E+01 
    8.7249613762859486E+00 
    1.3721731580308765E+01 
    2.0068762703674583E+01 
    2.0363848740170162E+01 
    1.2251438887466284E+01 
    1.3647315920991367E+01 
    2.0421169571795570E+01 
    1.3500890260824358E+01 
    1.3005386320446695E+01 
    1.6123203441779047E+01 
    8.3832408763370516E+00 
    1.1947084636601662E+01 
    1.3643736946673631E+01 
    1.4279116766866126E+01 
    2.2132046412606631E+01 
    1.0300270448081868E+01 
    1.3710666073202546E+01 
    1.8729464772439552E+01 
    1.9170621961803718E+01 
    9.0791774174643116E+00 
    1.3351569190061742E+01 
    1.3679287075392599E+01 
    1.9205065583594482E+01 
    1.3666639403935044E+01 
    1.9088376521286005E+01 
    5.5219380124607511E+00 
    9.0118359471356566E+00 
    1.3943737051238342E+01 
    1.9358801436515897E+01 
    1.2175947107110488E+01 
    1.2904228561810790E+01 
    1.3640449508716943E+01 
    1.2961614609444732E+01 
    1.5332729776295954E+01 
    1.2570886983336704E+01 
    1.2073427475738180E+01 
    9.4721629242715775E+00 
    1.6208003000013889E+01 
    1.3747551828726845E+01 
    1.9891739179352204E+01 
    1.1820271674525657E+01 
    1.3211009829889969E+01 
    1.8973382074545913E+01 
    1.1079374426985350E+01 
    1.9558991484359630E+01 
    1.3575006756190053E+01 
    1.3125551308995655E+01 
    1.9176881419902649E+01 
    1.3734949531856161E+01 
    2.0200435623167042E+01 
    1.6150056856247577E+01 
    1.7583668803305528E+01 
    2.0148007815069079E+01 
    1.0318784745423937E+01 
    1.3964833066439541E+01 
    1.9176630517441687E+01 
    4.1276734785794700E+00 
    1.3817096127267570E+01 
    2.0104975282785187E+01 
    1.3158714761878374E+01 
    1.5058390023328506E+01 
    8.9475467844678338E+00 
    1.8729146710954819E+01 
    2.2679957691750850E+01 
    1.6795391563367534E+01 
    1.3161258777895886E+01 
    1.1810038215692206E+01 
    1.4617033971525313E+01 
    1.3592582772239217E+01 
    9.3936959115934417E+00 
    2.0146025044874126E+01 
    1.9147247182510178E+01 
    1.8732046853860979E+01 
    1.4277868593322870E+01 
    1.2028522727103860E+01 
    1.3424152095187738E+01 
    1.9680905205820434E+01 
    1.2362142082388100E+01 
    1.3723457472949999E+01 
    1.2579385638155003E+01 
    1.5921619285845608E+01 
    2.2666848951211062E+01 
    1.8718555137988904E+01 
    1.1896448290626632E+01 
    1.9436816214223548E+01 
    1.9307661905929944E+01 
    1.9408592270845777E+01 
    2.0665907979446434E+01 
    2.1308767552585373E+01 
    1.9486258179470560E+01 
    1.3693401186531768E+01 
    1.4822391532295306E+01 
    1.9265693358414939E+01 
    1.9893273646700646E+01 
    9.8202889102794231E+00 
    1.8757124378315165E+01 
    1.9627123273111010E+01 
    9.5521880526046470E+00 
    2.0590548230367077E+01 
    2.0541145668304495E+01 
    1.8305724117080317E+01 
    1.4041642802897332E+01 
    3.6734845270915208E+00 
    2.0109637109051324E+01 
    1.3877353954924677E+01 
    2.0268604903087901E+01 
    1.3069408017659855E+01 
    1.9847055310768432E+01 
    1.3498248782934383E+00 
    1.7558833993057739E+01 
    1.3106949512787800E+01 
    1.1971991189284347E+01 
    1.1672597166676324E+01 
    1.3541065799702592E+01 
    1.4863230967713804E+01 
    1.4265174423422629E+01 
    9.5717044946991123E+00 
    1.9894076932811089E+01 
    1.9205761569709992E+01 
    1.5718950963595891E+01 
    1.3933756637953387E+01 
    2.1000318826481106E+00 
    1.0787507977393545E+01 
    7.5052871457904144E+00 
    2.0136561548618708E+01 
    1.5188101066102472E+01 
    1.9163268571568246E+01 
    1.9292338301535839E+01 
    1.2461261564222070E+01 
    1.5841933219723758E+01 
    1.8719441498686962E+01 
    2.0521368165525246E+01 
    8.9496381860377134E+00 
    1.6930092858968219E+01 
    1.4218810156406482E+01 
    7.9804649200397755E+00 
    1.2454794515565942E+01 
    1.6549565858237155E+01 
    1.9242159584746577E+01 
    1.3593402848099908E+01 
    1.9382043024628441E+01 
    1.9083009730042502E+01 
    1.9016236816674745E+01 
    1.3427655481590797E+01 
    1.1868185015040593E+01 
    1.8743013142164617E+01 
    1.2055008544717303E+01 
    1.3676709322180269E+01 
    1.1825351522321188E+01 
    1.3675067132001093E+01 
    1.9305024223134637E+01 
    8.4709336961998751E+00 
    1.2334499165649303E+01 
    2.0027826685352625E+01 
    1.3434491932748660E+01 
    1.5063138681924356E+01 
    8.7040230941500809E+00 
    1.2142337154059300E+01 
    1.9054054352452539E+01 
    1.9452190458092147E+01 
    7.1038314295911382E+00 
    1.3450891184859152E+01 
    1.1893708421248887E+01 
    2.1035213469212724E+01 
    2.0375545795939836E+01 
    2.1344860350087028E+01 
    1.3471585796924373E+01 
    1.9268888300144976E+01 
    1.8638775115665894E+01 
    1.3313100687876309E+01 
    1.8731803337565335E+01 
    1.3934104416494176E+01 
    8.0527520913969575E+00 
    1.3879687353083114E+01 
    2.0012913761631676E+01 
    1.8726986634339909E+01 
    9.2429774952626627E+00 
    1.8767899670994694E+01 
    1.4897820848364171E+01 
    1.3791756953807214E+01 
    1.3247254993275817E+01 
    1.8522697227255854E+01 
    1.4422343842514573E+01 
    1.8749969524514430E+01 
    1.3449080799075466E+01 
    8.2835893409266728E+00 
    1.3758692593323831E+01 
    1.1684500428661508E+01 
    1.6822636591523512E+01 
    2.0260136722829472E+01 
    1.8741031820974179E+01 
    2.0097273737406496E+01 
    1.3368649018624104E+01 
    9.0010222188547537E+00 
    9.1216470104816061E+00 
    1.4018637789662755E+01 
    1.3645487245794969E+01 
    2.0738827551101826E+00 
    1.7894425521014437E+01 
    2.0708423022343997E+01 
    1.3089972969737410E+01 
    8.4318442070456197E+00 
    1.5730638307072045E+01 
    1.8763330118524756E+01 
    9.9834100550760727E+00 
    6.8047551070341914E+00 
    1.3631679669212776E+01 
    1.8862511055794947E+01 
    1.9780572232065300E+01 
    1.9536907038270261E+01 
    1.9454658140246355E+01 
    9.7057553900298679E+00 
    1.3786275940986057E+01 
    1.8169412015700392E+01 
    1.0689437673567758E+01 
    1.9226387221961001E+01 
    1.6125607390803832E+01 
    9.2513304982660163E+00 
    1.8859351466685478E+01 
    2.0174644695676434E+01 
    1.8937319260675871E+01 
    9.6244903698857662E+00 
    1.3698053450891896E+01 
    1.0560896722356727E+01 
    1.2936863146176105E+01 
    1.8753845840445297E+01 
    1.8737761518933841E+01 
    9.6770373931962173E+00 
    1.9911078628027447E+01 
    1.4336267292665406E+01 
    1.8782303580060752E+01 
    1.9925241560028237E+01 
    1.8765280230993213E+01 
    1.7131829318388434E+01 
    2.1108758187924614E+01 
    1.3022034068180480E+01 
    2.0057077045472219E+01 
    1.8813730108136106E+01 
    2.0152063165072843E+01 
    1.9906541099811758E+01 
    1.3151394573141532E+01 
    1.3545190930999254E+01 
    1.3078525061568312E+01 
    1.6418627276947689E+01 
    5.5475447568770964E+00 
    1.3940265228551674E+01 
    2.1253097488794815E+01 
    1.3940201920161282E+01 
    1.4177203291571180E+01 
    2.0117842244029951E+01 
    2.0400083319874891E+01 
    1.2901781914352004E+01 
    1.8773283682938310E+01 
    1.8733812555896165E+01 
    1.4161185638887535E+01 
    1.9848277905159001E+01 
    9.7499089243670625E+00 
    6.2284960761735979E+00 
    1.4521944573327692E+01 
    1.3954598321938315E+01 
    1.8733863257692395E+01 
    9.0547075645073392E+00 
    1.9444573430964294E+01 
    6.3094031205689616E+00 
    1.3884477826027004E+01 
    1.3163230733787756E+01 
    1.3673511380760649E+01 
    2.2721555956980477E+01 
    5.3808595596430013E+00 
    1.3838286401091674E+01 
    1.6521311944550551E+01 
    1.3248540144774465E+01 
    1.0528287728616043E+01 
    1.9650051041825243E+01 
    2.2229570056827306E+01 
    1.9816056259339852E+01 
    1.3762619936517867E+01 
    7.9505552490083931E+00 
    2.2065235162872785E+01 
    1.9194084793759227E+01 
    9.9896893792718977E+00 
    1.3345143970141569E+01 
    2.0644904691161138E+01 
    4.5804546255295460E+00 
    1.4020558875954167E+01 
    1.9842660209634531E+01 
    1.3690523316533167E+01 
    1.1931660417929722E+01 
    1.3887459492017280E+01 
    1.8227497454084425E+01 
    1.3672184135721499E+01 
    7.0894925964913442E+00 
    1.3419703455568655E+00 
    1.0226320866887862E+01 
    2.0924213989313703E+01 
    1.3077506084111633E+01 
    1.5417499972519325E+01 
    1.4798469691334214E+01 
    1.6891180020488711E+01 
    1.3704813521012941E+01 
    1.9073135702130333E+01 
    2.2737053387033370E+01 
    1.6011699930578935E+01 
    2.0021134526459957E+01 
    7.8078462451106323E-01 
    1.8739819779580081E+01 
    7.7814803789323355E+00 
    2.1446715839131141E+01 
    1.3855128453306635E+01 
    1.2204017292312736E+01 
    1.0767446604667068E+01 
    7.4473338981703652E+00 
    1.5104417952188253E+01 
    1.0852188521880514E+01 
    1.6671034770359949E+01 
    3.1294420195961479E+00 
    1.4945937182422766E+01 
    1.8627267985484256E+01 
    8.2694631504685212E+00 
    1.9309399519210341E+01 
    2.1193196092156324E+01 
    1.9146669056175753E+01 
    1.3684607130706219E+01 
    1.3666641837137037E+01 
    1.3846164092989486E+01 
    8.0623512665673278E+00 
    1.2725413479077583E+01 
    1.2518129718025236E+01 
    1.3832543787564051E+01 
    1.2988041482470800E+01 
    1.0028896227359170E+00 
    8.8570665133914215E+00 
    1.3482766751125185E+01 
    1.3800858972319089E+01 
    1.7178121343709037E+01 
    3.0077118199323616E+00 
    1.4109819234331514E+01 
    1.3963604720531146E+01 
    5.1812379303452918E+00 
    1.8968005392212582E+01 
    1.2080273039829580E+01 
    1.3809956373103416E+01 
    1.9193580761039748E+01 
    7.4725116780970842E+00 
    1.9100396553596450E+01 
    1.2238880389633094E+01 
    1.3696476382686760E+00 
    1.3157352060932181E+01 
    1.9952758047446899E+01 
    1.8741376879413114E+01 
    1.8766662672712204E+01 
    1.4270473714860660E+01 
    1.3887538637622081E+01 
    1.2056679821153462E+01 
    9.5951481396788196E+00 
    1.9344039196658642E+01 
    1.3338362556217334E+01 
    9.3036213223353332E+00 
    1.8760375389823047E+01 
    1.9657807528806554E+01 
    1.4047931673545763E+01 
    1.3486637281663244E+01 
    2.2602649820695561E+01 
    1.4162424503730080E+01 
    1.9356493214699238E+01 
    1.1468763230553733E+01 
    2.2766527732415451E+01 
    9.0619091257067126E+00 
    1.2572216687503337E+01 
    1.0201783265443037E+01 
    1.4459173877243561E+01 
    1.1705147061494213E+01 
    2.2748914260674276E+01 
    1.4223987090697523E+01 
    1.8222238541480230E+01 
    9.3369775503470880E+00 
    1.3698570819245875E+01 
    1.9149248597708706E+01 
    1.1764828698614659E+01 
    1.0000983139761169E+01 
    1.5368377641549204E+01 
    1.9389053540667149E+01 
    1.0002575962930624E+01 
    1.3191183703290017E+01 
    1.3528231563370552E+01 
    1.8705703987659195E+01 
    1.3272427725636803E+01 
    1.9405119425752840E+01 
    2.0188694362985210E+01 
    1.2089121470510419E+01 
    1.1854834645037442E+01 
    1.0847925935962875E+01 
    1.8894818181586448E+01 
    1.3984343845466725E+01 
    2.2273366794965401E+01 
    1.7364994947957861E+01 
    1.9095785165438386E+01 
    2.1920362688775288E+01 
    2.1200917638738805E+01 
    1.3748396164359093E+01 
    1.3813480110760072E+01 
    1.8302851414766160E+01 
    1.8792382832813992E+01 
    1.9571249522997128E+01 
    1.9222227162056463E+01 
    2.2629257459948064E+01 
    1.4161803489830236E+01 
    1.2230396033968709E+01 
    1.4127347052915885E+01 
    2.0076580580831756E+01 
    1.3849471345392468E+01 
    8.1127190972921674E+00 
    1.3664222113295770E+01 
    2.0608564952614486E+01 
    1.4008061040113192E+01 
    1.2242368952269645E+01 
    1.3466296346214923E+01 
    2.0742798247682387E+01 
    1.8887468846134166E+01 
    1.1615991597420891E+01 
    2.0906423441788725E+01 
    1.3778575525516375E+01 
    1.9539140403876175E+01 
    2.0757520213004138E+01 
    1.4580469760130313E+01 
    7.4841061397008479E+00 
    1.5147189796951686E+01 
    7.7310317992783437E+00 
    1.3902727672884517E+01 
    1.3695721988411618E+01 
    1.5942060923582337E+01 
    8.1710672626977043E+00 
    1.6960514237971211E+01 
    1.3712360329544373E+01 
    1.9208502034816171E+01 
    1.4742208407313786E+01 
    1.1213143501848228E+01 
    1.3308129136845187E+01 
    1.4461658175604317E+01 
    1.4294473922388947E+01 
    2.0261945777345147E+01 
    1.1693420138017649E+01 
    1.1495260583810335E+01 
    8.5824569730791644E+00 
    1.9595738697197202E+01 
    1.3360428143780771E+01 
    1.8572997200628969E+01 
    1.3662707125668215E+01 
    9.3722066704351352E+00 
    1.8913296025729991E+01 
    1.3638793928502652E+01 
    1.0225731918925002E+01 
    1.0842500874707643E+01 
    1.1223243094184729E+01 
    1.9250985468026077E+01 
    1.3835028014429652E+01 
    2.0036608400969975E+01 
    1.3598242742434033E+01 
    1.3534984256463263E+01 
    1.3089337158517358E+01 
    1.9032344669926946E+01 
    1.3442631507806407E+01 
    1.1278936078738550E+01 
    2.1189612789823169E+01 
    1.9144595993916997E+01 
    9.5154949743261632E+00 
    3.7921127902444494E+00 
    1.3822139910166415E+01 
    1.2927199875031823E+01 
    1.1845327972289473E+01 
    1.2835925999579180E+01 
    1.9018201966843225E+01 
    1.3452911600601759E+01 
    1.2290737232732097E+01 
    1.8822882129724597E+01 
    9.4239349846385423E+00 
    1.8259848448850526E+01 
    1.2456543255944194E+01 
    1.1108686735911913E+01 
    1.1958736271380172E+01 
    1.9646545317118381E+01 
    1.3676011475476344E+01 
    1.3685202136931775E+01 
    8.2944630781837621E+00 
    8.9624991911398002E+00 
    1.7242918424295343E+01 
    1.3695774660078252E+01 
    1.3871557736629111E+01 
    2.0892607413122235E+01 
    1.1496304618974262E+01 
    1.3708870931327446E+01 
    9.7577503701036559E+00 
    1.0074448020808797E+01 
    1.8981239991099510E+01 
    1.3300102158780016E+01 
    9.8750513229136292E+00 
    1.4280636381071790E+01 
    1.3600006798145916E+01 
    1.9002768764194734E+01 
    2.1003209200054997E+01 
    1.4474217764283253E+00 
    1.3828236139800268E+01 
    1.3953311718350287E+01 
    1.9116688207384772E+01 
    1.3245864168147142E+01 
    1.3645898887236903E+01 
    2.0335551299747380E+01 
    1.2004643608293893E+01 
    9.9617011464185499E+00 
    1.6296261302924979E+01 
    1.8759920260511894E+01 
    2.0147595140251838E+01 
    2.0488550319949141E+01 
    1.3631590347882391E+01 
    1.3817421881982415E+01 
    1.5170142178874672E+01 
    9.0362723704920089E+00 
    1.8937574767077866E+01 
    1.0728745220499047E+01 
    9.4125192905072534E+00 
    1.6928536683103136E+01 
    1.5899361444426440E+01 
    9.2285590406078413E+00 
    1.8807888648882326E+01 
    2.0130800555412062E+01 
    1.4182028453620934E+01 
    2.1125191127615928E+01 
    1.8852772580310184E+01 
    1.3312603283944002E+01 
    1.9766090780782051E+01 
    1.0083365017054735E+01 
    1.8783855349382495E+01 
    1.3826805146015813E+01 
    1.3780254450102868E+01 
    2.1101239117832833E+01 
    1.3408643991480627E+01 
    1.6547893611312386E+01 
    1.1932445483895746E+01 
    2.0282096892302508E+01 
    1.8644019899797531E+01 
    1.2439871123432548E+01 
    1.8728098418282272E+01 
    1.2521340483917255E+01 
    1.3652463197206314E+01 
    2.0078535716557557E+01 
    1.9221570056019640E+01 
    2.0134454057407932E+01 
    1.9120954889760604E+01 
    1.2733939147623669E+01 
    1.3001368470852041E+01 
    2.0144400200618058E+01 
    1.3162871327163213E+01 
    1.8485664412920585E+01 
    1.3386993730917283E+01 
    5.5901668418549804E+00 
    9.4964218800611278E+00 
    8.7840029378682889E+00 
    2.0083530906248502E+01 
    2.1013062136441786E+01 
    1.8751651208227187E+01 
    1.5607137076606287E+01 
    1.9131725773734704E+01 
    1.8819386000654809E+01 
    1.9616908130429508E+01 
    8.0083222552340274E+00 
    5.2040833076516222E+00 
    1.5321714012577932E+01 
    1.3437714000882526E+01 
    1.9025389369519505E+01 
    1.9022025380116929E+01 
    1.3974332644193071E+01 
    1.9073091745336583E+01 
    1.3810310806258425E+01 
    1.3712562099622245E+01 
    7.2369402250887456E+00 
    5.1829137080533592E+00 
    2.0737586134603958E+01 
    1.0718347511239513E+01 
    1.2361397986160423E+01 
    1.3862431401513138E+01 
    2.2606480164739427E+01 
    1.3964285106816856E+01 
    1.4194515904480939E+01 
    5.8880220980609641E+00 
    1.3964045430643187E+01 
    1.3979847411749480E+01 
    1.9355059978387001E+01 
    1.1967595509980637E+01 
    1.3145222789700052E+01 
    2.0942982867653335E+01 
    1.3838571189927549E+01 
    1.8773057815236029E+01 
    1.9060868012489795E+01 
    1.6650571761429042E+01 
    1.1670632414950786E+01 
    1.9119889687994245E+01 
    1.3592704491232398E+01 
    1.8981404864169512E+01 
    1.8685023475165739E+01 
    2.0108346121050719E+01 
    1.9118323483898230E+01 
    1.7587015847418730E+01 
    1.3824377124893894E+01 
    9.1428456631875861E+00 
    2.2465889081027175E+01 
    1.0946982400710823E+01 
    2.0021430664102244E+01 
    1.3821226366551139E+01 
    1.1567629159226781E+01 
    6.8317767684591679E+00 
    1.4021110844974309E+01 
    1.9102147966665207E+01 
    1.9090973023111601E+01 
    1.3630768242520977E+01 
    1.3814151149219303E+01 
    2.1185305863538179E+01 
    2.0417755485867115E+01 
    1.3987070563922131E+01 
    4.8430023371168867E+00 
    1.7459040717720370E+01 
    2.2744589838078124E+01 
    1.3828399625660762E+01 
    1.6105667050890382E+01 
    1.3245375584876102E+01 
    2.2303514270950028E+01 
    2.0518408891731372E+01 
    2.0214061542182563E+01 
    1.4012620361042016E+01 
    6.3393065618867110E+00 
    1.3194082277728787E+01 
    1.3273730515534041E+01 
    1.3320665761325348E+01 
    5.2747662909239867E+00 