# vtk DataFile Version 2.0
Pressure Field Data 
ASCII 
DATASET UNSTRUCTURED_GRID 

POINTS 2860 double 

    0.0000000000000000E+00     0.0000000000000000E+00     0.0000000000000000E+00 
    1.0000000000000000E+00     0.0000000000000000E+00     0.0000000000000000E+00 
    1.0000000000000000E+00     1.0000000000000000E+00     0.0000000000000000E+00 
    0.0000000000000000E+00     1.0000000000000000E+00     0.0000000000000000E+00 
    2.5000000000000000E-01     2.5000000000000000E-01     0.0000000000000000E+00 
    7.5000000000000000E-01     2.5000000000000000E-01     0.0000000000000000E+00 
    7.5000000000000000E-01     7.5000000000000000E-01     0.0000000000000000E+00 
    2.5000000000000000E-01     7.5000000000000000E-01     0.0000000000000000E+00 
    3.1249999999942091E-02     0.0000000000000000E+00     0.0000000000000000E+00 
    6.2499999999873469E-02     0.0000000000000000E+00     0.0000000000000000E+00 
    9.3749999999826514E-02     0.0000000000000000E+00     0.0000000000000000E+00 
    1.2499999999977961E-01     0.0000000000000000E+00     0.0000000000000000E+00 
    1.5624999999968961E-01     0.0000000000000000E+00     0.0000000000000000E+00 
    1.8749999999959971E-01     0.0000000000000000E+00     0.0000000000000000E+00 
    2.1874999999950970E-01     0.0000000000000000E+00     0.0000000000000000E+00 
    2.4999999999941969E-01     0.0000000000000000E+00     0.0000000000000000E+00 
    2.8124999999932920E-01     0.0000000000000000E+00     0.0000000000000000E+00 
    3.1249999999923850E-01     0.0000000000000000E+00     0.0000000000000000E+00 
    3.4374999999914790E-01     0.0000000000000000E+00     0.0000000000000000E+00 
    3.7499999999905720E-01     0.0000000000000000E+00     0.0000000000000000E+00 
    4.0624999999896660E-01     0.0000000000000000E+00     0.0000000000000000E+00 
    4.3749999999887590E-01     0.0000000000000000E+00     0.0000000000000000E+00 
    4.6874999999878530E-01     0.0000000000000000E+00     0.0000000000000000E+00 
    4.9999999999869471E-01     0.0000000000000000E+00     0.0000000000000000E+00 
    5.3124999999877620E-01     0.0000000000000000E+00     0.0000000000000000E+00 
    5.6249999999885780E-01     0.0000000000000000E+00     0.0000000000000000E+00 
    5.9374999999893940E-01     0.0000000000000000E+00     0.0000000000000000E+00 
    6.2499999999902101E-01     0.0000000000000000E+00     0.0000000000000000E+00 
    6.5624999999910261E-01     0.0000000000000000E+00     0.0000000000000000E+00 
    6.8749999999918421E-01     0.0000000000000000E+00     0.0000000000000000E+00 
    7.1874999999926570E-01     0.0000000000000000E+00     0.0000000000000000E+00 
    7.4999999999934730E-01     0.0000000000000000E+00     0.0000000000000000E+00 
    7.8124999999942890E-01     0.0000000000000000E+00     0.0000000000000000E+00 
    8.1249999999951039E-01     0.0000000000000000E+00     0.0000000000000000E+00 
    8.4374999999959199E-01     0.0000000000000000E+00     0.0000000000000000E+00 
    8.7499999999967359E-01     0.0000000000000000E+00     0.0000000000000000E+00 
    9.0624999999975520E-01     0.0000000000000000E+00     0.0000000000000000E+00 
    9.3749999999983680E-01     0.0000000000000000E+00     0.0000000000000000E+00 
    9.6874999999991840E-01     0.0000000000000000E+00     0.0000000000000000E+00 
    1.0000000000000000E+00     3.1249999999942091E-02     0.0000000000000000E+00 
    1.0000000000000000E+00     6.2499999999873469E-02     0.0000000000000000E+00 
    1.0000000000000000E+00     9.3749999999826514E-02     0.0000000000000000E+00 
    1.0000000000000000E+00     1.2499999999977961E-01     0.0000000000000000E+00 
    1.0000000000000000E+00     1.5624999999968961E-01     0.0000000000000000E+00 
    1.0000000000000000E+00     1.8749999999959971E-01     0.0000000000000000E+00 
    1.0000000000000000E+00     2.1874999999950970E-01     0.0000000000000000E+00 
    1.0000000000000000E+00     2.4999999999941969E-01     0.0000000000000000E+00 
    1.0000000000000000E+00     2.8124999999932920E-01     0.0000000000000000E+00 
    1.0000000000000000E+00     3.1249999999923850E-01     0.0000000000000000E+00 
    1.0000000000000000E+00     3.4374999999914790E-01     0.0000000000000000E+00 
    1.0000000000000000E+00     3.7499999999905720E-01     0.0000000000000000E+00 
    1.0000000000000000E+00     4.0624999999896660E-01     0.0000000000000000E+00 
    1.0000000000000000E+00     4.3749999999887590E-01     0.0000000000000000E+00 
    1.0000000000000000E+00     4.6874999999878530E-01     0.0000000000000000E+00 
    1.0000000000000000E+00     4.9999999999869471E-01     0.0000000000000000E+00 
    1.0000000000000000E+00     5.3124999999877620E-01     0.0000000000000000E+00 
    1.0000000000000000E+00     5.6249999999885780E-01     0.0000000000000000E+00 
    1.0000000000000000E+00     5.9374999999893940E-01     0.0000000000000000E+00 
    1.0000000000000000E+00     6.2499999999902101E-01     0.0000000000000000E+00 
    1.0000000000000000E+00     6.5624999999910261E-01     0.0000000000000000E+00 
    1.0000000000000000E+00     6.8749999999918421E-01     0.0000000000000000E+00 
    1.0000000000000000E+00     7.1874999999926570E-01     0.0000000000000000E+00 
    1.0000000000000000E+00     7.4999999999934730E-01     0.0000000000000000E+00 
    1.0000000000000000E+00     7.8124999999942890E-01     0.0000000000000000E+00 
    1.0000000000000000E+00     8.1249999999951039E-01     0.0000000000000000E+00 
    1.0000000000000000E+00     8.4374999999959199E-01     0.0000000000000000E+00 
    1.0000000000000000E+00     8.7499999999967359E-01     0.0000000000000000E+00 
    1.0000000000000000E+00     9.0624999999975520E-01     0.0000000000000000E+00 
    1.0000000000000000E+00     9.3749999999983680E-01     0.0000000000000000E+00 
    1.0000000000000000E+00     9.6874999999991840E-01     0.0000000000000000E+00 
    9.6875000000003686E-01     1.0000000000000000E+00     0.0000000000000000E+00 
    9.3750000000011691E-01     1.0000000000000000E+00     0.0000000000000000E+00 
    9.0625000000015765E-01     1.0000000000000000E+00     0.0000000000000000E+00 
    8.7500000000017863E-01     1.0000000000000000E+00     0.0000000000000000E+00 
    8.4375000000028044E-01     1.0000000000000000E+00     0.0000000000000000E+00 
    8.1250000000040856E-01     1.0000000000000000E+00     0.0000000000000000E+00 
    7.8125000000054956E-01     1.0000000000000000E+00     0.0000000000000000E+00 
    7.5000000000066480E-01     1.0000000000000000E+00     0.0000000000000000E+00 
    7.1875000000086831E-01     1.0000000000000000E+00     0.0000000000000000E+00 
    6.8750000000102829E-01     1.0000000000000000E+00     0.0000000000000000E+00 
    6.5625000000114431E-01     1.0000000000000000E+00     0.0000000000000000E+00 
    6.2500000000129829E-01     1.0000000000000000E+00     0.0000000000000000E+00 
    5.9375000000147926E-01     1.0000000000000000E+00     0.0000000000000000E+00 
    5.6250000000168354E-01     1.0000000000000000E+00     0.0000000000000000E+00 
    5.3125000000188671E-01     1.0000000000000000E+00     0.0000000000000000E+00 
    5.0000000000205835E-01     1.0000000000000000E+00     0.0000000000000000E+00 
    4.6875000000192979E-01     1.0000000000000000E+00     0.0000000000000000E+00 
    4.3750000000180111E-01     1.0000000000000000E+00     0.0000000000000000E+00 
    4.0625000000167238E-01     1.0000000000000000E+00     0.0000000000000000E+00 
    3.7500000000154382E-01     1.0000000000000000E+00     0.0000000000000000E+00 
    3.4375000000141509E-01     1.0000000000000000E+00     0.0000000000000000E+00 
    3.1250000000128642E-01     1.0000000000000000E+00     0.0000000000000000E+00 
    2.8125000000115769E-01     1.0000000000000000E+00     0.0000000000000000E+00 
    2.5000000000102918E-01     1.0000000000000000E+00     0.0000000000000000E+00 
    2.1875000000090050E-01     1.0000000000000000E+00     0.0000000000000000E+00 
    1.8750000000077180E-01     1.0000000000000000E+00     0.0000000000000000E+00 
    1.5625000000064329E-01     1.0000000000000000E+00     0.0000000000000000E+00 
    1.2500000000051459E-01     1.0000000000000000E+00     0.0000000000000000E+00 
    9.3750000000385914E-02     1.0000000000000000E+00     0.0000000000000000E+00 
    6.2500000000257239E-02     1.0000000000000000E+00     0.0000000000000000E+00 
    3.1250000000128557E-02     1.0000000000000000E+00     0.0000000000000000E+00 
    0.0000000000000000E+00     9.6875000000003686E-01     0.0000000000000000E+00 
    0.0000000000000000E+00     9.3750000000011691E-01     0.0000000000000000E+00 
    0.0000000000000000E+00     9.0625000000015765E-01     0.0000000000000000E+00 
    0.0000000000000000E+00     8.7500000000017863E-01     0.0000000000000000E+00 
    0.0000000000000000E+00     8.4375000000028044E-01     0.0000000000000000E+00 
    0.0000000000000000E+00     8.1250000000040856E-01     0.0000000000000000E+00 
    0.0000000000000000E+00     7.8125000000054956E-01     0.0000000000000000E+00 
    0.0000000000000000E+00     7.5000000000066480E-01     0.0000000000000000E+00 
    0.0000000000000000E+00     7.1875000000086831E-01     0.0000000000000000E+00 
    0.0000000000000000E+00     6.8750000000102829E-01     0.0000000000000000E+00 
    0.0000000000000000E+00     6.5625000000114431E-01     0.0000000000000000E+00 
    0.0000000000000000E+00     6.2500000000129829E-01     0.0000000000000000E+00 
    0.0000000000000000E+00     5.9375000000147926E-01     0.0000000000000000E+00 
    0.0000000000000000E+00     5.6250000000168354E-01     0.0000000000000000E+00 
    0.0000000000000000E+00     5.3125000000188671E-01     0.0000000000000000E+00 
    0.0000000000000000E+00     5.0000000000205835E-01     0.0000000000000000E+00 
    0.0000000000000000E+00     4.6875000000192979E-01     0.0000000000000000E+00 
    0.0000000000000000E+00     4.3750000000180111E-01     0.0000000000000000E+00 
    0.0000000000000000E+00     4.0625000000167238E-01     0.0000000000000000E+00 
[...]
CELL_DATA 2795 
SCALARS Pressure double 1 
LOOKUP_TABLE default 

    5.3245437405202249E+00 
    1.2208298704095876E+01 
    8.6790036475115961E+00 
    8.2774932210390464E+00 
    6.5629803861755027E+00 
    1.2106093157334044E+01 
    1.2733671874232456E+01 
    4.7501370729145993E+00 
    9.1691814311116495E+00 
    7.0170166484547387E+00 
    5.9926525728761550E+00 
    1.1889008470735558E+01 
    1.2119901581874695E+01 
    1.2079552516442707E+01 
    8.0034066741542258E+00 
    4.6701232140822455E+00 
    7.6077031302804174E+00 
    6.3804880752645872E+00 
    1.1584222951235599E+01 
    8.6764289491825348E+00 
    8.5622006154836683E+00 
    1.2024152618187104E+01 
    8.0469767731162722E+00 
    3.1319932589609351E-01 
    1.1861019492637544E+01 
    1.2100670375297486E+01 
    1.2761900486305949E+01 
    5.7591856522345264E+00 
    1.1821797256571292E+01 
    1.2760339254077588E+01 
    8.7397496813164075E+00 
    8.9097631695858990E+00 
    6.2132719258461275E+00 
    8.6397311280497000E+00 
    2.7567862616971981E+00 
    7.6122525838613129E+00 
    8.6321559756019948E+00 
    1.2796565213639347E+01 
    1.2714250946064944E+01 
    1.1899870871227167E+01 
    6.5011191528617447E+00 
    1.1844651176095715E+01 
    6.5279213247143120E-01 
    8.4919918526066525E+00 
    1.2544490273431814E+01 
    1.2399872925545880E+01 
    1.1879996381788093E+01 
    9.4850849572606322E+00 
    1.1940823736447848E+01 
    7.7874958409090880E+00 
    7.4117200278243294E+00 
    8.8769807278783173E+00 
    8.3911778446620673E+00 
    7.6529968703137854E+00 
    8.8153081524018795E+00 
    1.1407844735446904E+01 
    1.0334426097193743E+01 
    6.5989609267301352E+00 
    1.2027578473887925E+01 
    1.1962572994758361E+01 
    8.3146049377940408E+00 
    8.3338204780055918E+00 
    8.1925511173631538E+00 
    1.2673437272145010E+01 
    1.2893597518627484E+01 
    7.6166807122591580E+00 
    8.8755645630185214E+00 
    1.1804672071490586E+01 
    1.0141500971943717E+01 
    8.3720645705679821E+00 
    1.2905681829131881E+01 
    1.1960247452463815E+01 
    7.5081614809919515E+00 
    1.2486051801106973E+01 
    9.0624555638414979E+00 
    1.1736557944799358E+01 
    1.2805645681538955E+01 
    8.9355759781396564E+00 
    5.4246073793195499E+00 
    8.8926373053360575E+00 
    1.2721429377259835E+01 
    1.2936259627212275E+01 
    7.6254847933211556E+00 
    8.8054268852096840E+00 
    1.2972511621883399E+01 
    8.6383756590604648E+00 
    8.1208196985009558E+00 
    1.0485516867408764E+01 
    5.1714544287332664E+00 
    7.4317014883466257E+00 
    8.8069573952289151E+00 
    9.2888570615587209E+00 
    1.4339322148041344E+01 
    6.3752393248394448E+00 
    8.8829101462378581E+00 
    1.1861505217853761E+01 
    1.2077250618232451E+01 
    5.6036925572681513E+00 
    8.5106287163637973E+00 
    8.8358928552593667E+00 
    1.2095458480296481E+01 
    8.8418728202112487E+00 
    1.2035638224905474E+01 
    3.4058388622871560E+00 
    5.8244928737509651E+00 
    9.0802317564104431E+00 
    1.2216421925392371E+01 
    7.5811246973661968E+00 
    8.1223179592520491E+00 
    8.8266323639397424E+00 
    8.0926601771692450E+00 
    1.0068823770595694E+01 
    7.8865874739071744E+00 
    7.5149853750564892E+00 
    5.8931857723549212E+00 
    1.0215826032125305E+01 
    8.9112553859746519E+00 
    1.2595834805262294E+01 
    7.6207114281701784E+00 
    8.2661620253160617E+00 
    1.1951613189807079E+01 
    6.8741824821713431E+00 
    1.2343959735792623E+01 
    8.7221468233182140E+00 
    8.2001711923321672E+00 
    1.2079424730150507E+01 
    8.9044262751724830E+00 
    1.2811991108756036E+01 
    1.0494450515837586E+01 
    1.1282699032453733E+01 
    1.2776853296322436E+01 
    6.3885420355661617E+00 
    9.0949065384103420E+00 
    1.2084134629082861E+01 
    2.5573290222806730E+00 
    8.7919132017393746E+00 
    1.2747151321292220E+01 
    8.2296456920047909E+00 
    9.4928404099872381E+00 
    5.5510069052241624E+00 
    1.1861246388078966E+01 
    1.4810609257963703E+01 
    1.0884540139298839E+01 
    8.2243176138068499E+00 
    7.3452412538975711E+00 
    9.4369919313644317E+00 
    8.7394288569353691E+00 
    6.0575979120434358E+00 
    1.2773137996552389E+01 
    1.2170191537627087E+01 
    1.1863013680958165E+01 
    9.3071905870351497E+00 
    7.4825690076151332E+00 
    8.5619454111282867E+00 
    1.2510100794549890E+01 
    7.7002510031769198E+00 
    8.6259149554283781E+00 
    7.8427376247547294E+00 
    1.0000104113632158E+01 
    1.4799309363599525E+01 
    1.1855615905394338E+01 
    7.4484985655557807E+00 
    1.2247969018682323E+01 
    1.2179973181988018E+01 
    1.2251035096731998E+01 
    1.3154991708765698E+01 
    1.3657491636711454E+01 
    1.2396220284588775E+01 
    8.8678801298427068E+00 
    9.3811404982637079E+00 
    1.2246818507879825E+01 
    1.2604051494252063E+01 
    6.3226305733660269E+00 
    1.1879563308662274E+01 
    1.2476793307792370E+01 
    6.1576773520111994E+00 
    1.3072303050026353E+01 
    1.3064240386285064E+01 
    1.1643216874845995E+01 
    9.1491212287658836E+00 
    2.2390249462970373E+00 
    1.2747434313133390E+01 
    9.0257450235689696E+00 
    1.2858533317911331E+01 
    8.1699771019305789E+00 
    1.2598478022880329E+01 
    7.9585147294496761E-01 
    1.1299241303308158E+01 
    8.3704968052302462E+00 
    7.4480185314053386E+00 
    7.2555511456969812E+00 
    8.6922012922828280E+00 
    9.7494619157182445E+00 
    8.9596956348798464E+00 
    5.9825251974450069E+00 
    1.2600968464770625E+01 
    1.2106852839176812E+01 
    1.0247835667740087E+01 
    9.0722628415188371E+00 
    1.3107478238909049E+00 
    6.6877989492187879E+00 
    4.6150704627819570E+00 
    1.2771284623344100E+01 
    9.8313359003625767E+00 
    1.2159560647941165E+01 
    1.2164463502700885E+01 
    7.7716336598976596E+00 
    1.0253768087713180E+01 
    1.1858860936868625E+01 
    1.3047404247204520E+01 
    5.5320372128597493E+00 
    1.0693531378024195E+01 
    8.9909373277652183E+00 
    4.9205892075367004E+00 
    7.7619642239155144E+00 
    1.0687821853693684E+01 
    1.2131350440385798E+01 
    8.7511693252611344E+00 
    1.2230293918994624E+01 
    1.2021212876925743E+01 
    1.1977346574610699E+01 
    8.5700897556338802E+00 
    7.4053774466683739E+00 
    1.1870025884692511E+01 
    7.5031745400904928E+00 
    8.8451252035908041E+00 
    7.3532109297298973E+00 
    8.5763464223160977E+00 
    1.2171706545868572E+01 
    5.4741726661044297E+00 
    7.6833988394187154E+00 
    1.2691194683951682E+01 
    8.5864006229565994E+00 
    9.7289572595021578E+00 
    5.6182067092190371E+00 
    7.5586445194563003E+00 
    1.2001868686637696E+01 
    1.2280119172934331E+01 
    4.5693409642876022E+00 
    8.5865458201280855E+00 
    7.3883470381567751E+00 
    1.3437463681984255E+01 
    1.2942809411179836E+01 
    1.3681607958279281E+01 
    8.6086382515395190E+00 
    1.2149184619295131E+01 
    1.1822749323132960E+01 
    8.4886640233765185E+00 
    1.1863152037886911E+01 
    9.0714961751407319E+00 
    4.9857882460304150E+00 
    8.7686585346472707E+00 
    1.2681269996924089E+01 
    1.1860398695700532E+01 
    5.9618799324625620E+00 
    1.1885509880923665E+01 
    9.7475462205216559E+00 
    8.7750337983040740E+00 
    8.3068640989134135E+00 
    1.1747481678210550E+01 
    9.2686399914981692E+00 
    1.1874332594252575E+01 
    8.4433132207428976E+00 
    5.1742568317845716E+00 
    8.9084416209252755E+00 
    7.2637680691154429E+00 
    1.0884956571987631E+01 
    1.2855182727309163E+01 
    1.1869291438244785E+01 
    1.2741022649195424E+01 
    8.5356262922707877E+00 
    5.8033884227612678E+00 
    5.8871261777890087E+00 
    8.9670525129188743E+00 
    8.8231193133900963E+00 
    1.2357432590268493E+00 
    1.1451859988642052E+01 
    1.3177316577020953E+01 
    8.1782186730611279E+00 
    5.1949211297064517E+00 
    9.9547842883522861E+00 
    1.1884230275531305E+01 
    6.1769561881163826E+00 
    4.1795294506915424E+00 
    8.7952684855143044E+00 
    1.1967592037601220E+01 
    1.2515884871563356E+01 
    1.2413477180437427E+01 
    1.2284428760265953E+01 
    6.0232839832150606E+00 
    8.7643926329929620E+00 
    1.1452088500261034E+01 
    6.8942813773498495E+00 
    1.2108558013092455E+01 
    1.0445075233492853E+01 
    5.9778475180764623E+00 
    1.1977199301122250E+01 
    1.2764866369038335E+01 
    1.1965322174671217E+01 
    5.9458362186309888E+00 
    8.8718177485645846E+00 
    6.5403631138376062E+00 
    8.3556654617047492E+00 
    1.1877011233348878E+01 
    1.1866995103948438E+01 
    5.9809352086696075E+00 
    1.2633841713893993E+01 
    9.3492226319281979E+00 
    1.1903659356558430E+01 
    1.2608677103358970E+01 
    1.1888254889128053E+01 
    1.1092014641387376E+01 
    1.3485116994217798E+01 
    8.1507207577739500E+00 
    1.2714268394037781E+01 
    1.1926468292289002E+01 
    1.2778572411492641E+01 
    1.2627999352579012E+01 
    8.2389745348843384E+00 
    8.6739665679082716E+00 
    8.1689412714628435E+00 
    1.0679097212868090E+01 
    3.4152034537090774E+00 
    8.9001135980479802E+00 
    1.3604645483676849E+01 
    9.0767156607050694E+00 
    9.2413901356205823E+00 
    1.2754231930758174E+01 
    1.2966039662575009E+01 
    8.1234713886013452E+00 
    1.1889163272651995E+01 
    1.1864075275791819E+01 
    9.2306177155066020E+00 
    1.2588394651739538E+01 
    6.2819480448621068E+00 
    3.9698959952584576E+00 
    9.4793136859356917E+00 
    9.0889191606762996E+00 
    1.1868761167092261E+01 
    5.5883043031418795E+00 
    1.2341006911589618E+01 
    4.0417855649635301E+00 
    9.0311758016160528E+00 
    8.3123992271265603E+00 
    8.8494856882402466E+00 
    1.4849831105792145E+01 
    3.3211520283716678E+00 
    8.8109534006017736E+00 
    1.0389498465275302E+01 
    8.4482214179891457E+00 
    6.5909622027903607E+00 
    1.2446175408468880E+01 
    1.4422614229871737E+01 
    1.2572020908479493E+01 
    8.7534575240849595E+00 
    4.8951846156237506E+00 
    1.4284608439676660E+01 
    1.2095422546716451E+01 
    6.3253983397643863E+00 
    8.3502253482751687E+00 
    1.3140561697501902E+01 
    2.8239412469210361E+00 
    9.1336343110750544E+00 
    1.2541040536338050E+01 
    8.8624160571956256E+00 
    7.6979946564496515E+00 
    8.8553565027570293E+00 
    1.1634354762946096E+01 
    8.8429142525374349E+00 
    4.3616581886742081E+00 
    7.6589009539418840E-01 
    6.5830709714136999E+00 
    1.3336357113605038E+01 
    8.1682803671906488E+00 
    9.9941843519354858E+00 
    9.5761323008672168E+00 
    1.0909424810611007E+01 
    8.8754364456516548E+00 
    1.2014642163554839E+01 
    1.4863722812641791E+01 
    1.0405312256217806E+01 
    1.2690109902188704E+01 
    4.6455212941942203E-01 
    1.1868653472008985E+01 
    4.8325414379473974E+00 
    1.3764799397088426E+01 
    8.8251631097442242E+00 
    7.8038009759942701E+00 
    6.6726983588960289E+00 
    4.5758458410187997E+00 
    9.8537994906181599E+00 
    6.9639493222319251E+00 
    1.0794535163231116E+01 
    1.8680907909627249E+00 
    9.7724961084342450E+00 
    1.1811566985804102E+01 
    5.3354629974407910E+00 
    1.2285715112750502E+01 
    1.3581291475501592E+01 
    1.2155796431760239E+01 
    8.6954642996081333E+00 
    8.8445843745804016E+00 
    8.8178150228009535E+00 
    4.9629764419681077E+00 
    7.9370683716944654E+00 
    7.8016027971120447E+00 
    8.8062147802613797E+00 
    8.1104957199901033E+00 
    5.8507370324525132E-01 
    5.5418651988203180E+00 
    8.4502752424047483E+00 
    8.7820218960688941E+00 
    1.1086076114909957E+01 
    1.8613837268532663E+00 
    9.1952192321336277E+00 
    9.0938224820988012E+00 
    3.1923803646011186E+00 
    1.2044626739178707E+01 
    7.5213327146309545E+00 
    8.9684691735915933E+00 
    1.2090712952207133E+01 
    4.5952132462658053E+00 
    1.2141879428388954E+01 
    7.6205937516433764E+00 
    8.5813195981764212E-01 
    8.2232421925026866E+00 
    1.2646773436025169E+01 
    1.1868845644327948E+01 
    1.1886320500851918E+01 
    9.1827368265234099E+00 
    9.0343750632168653E+00 
    7.5027724174058017E+00 
    6.0172811060036810E+00 
    1.2186072939758624E+01 
    8.3492687305122573E+00 
    5.8813108804379519E+00 
    1.1881189306799282E+01 
    1.2476474515175388E+01 
    8.9833545686493128E+00 
    8.6346366098368463E+00 
    1.4747801377341831E+01 
    9.2312950567208674E+00 
    1.2205400485835044E+01 
    7.1219547553718536E+00 
    1.4892180030194687E+01 
    5.8523188832446884E+00 
    7.8903841824737473E+00 
    6.5619915902572359E+00 
    9.4313709952280433E+00 
    7.5048450408331435E+00 
    1.4876033749202509E+01 
    9.2729917817273630E+00 
    1.1583504390667089E+01 
    6.0224384904275361E+00 
    8.8721294290193811E+00 
    1.2066208851956633E+01 
    7.5276259234659326E+00 
    6.2555014816402856E+00 
    9.6633682898648665E+00 
    1.2278333108772841E+01 
    6.4569443326268852E+00 
    8.3296435611087940E+00 
    8.6581366471134071E+00 
    1.1847697296258373E+01 
    8.4707579601855265E+00 
    1.2249789662405181E+01 
    1.2804776897760471E+01 
    7.5259968581373808E+00 
    7.3719867243451764E+00 
    6.9985102176982350E+00 
    1.1968051178650240E+01 
    9.0880380024516381E+00 
    1.4460902665048032E+01 
    1.1294630270970947E+01 
    1.2029010810302577E+01 
    1.4164223974654591E+01 
    1.3589196704942847E+01 
    8.9164009936457838E+00 
    8.7914117118553037E+00 
    1.1670859343797806E+01 
    1.1900887864805490E+01 
    1.2339732639536551E+01 
    1.2112909967352609E+01 
    1.4766024341817458E+01 
    9.2309057442115261E+00 
    7.6146030117309946E+00 
    9.1960631760897993E+00 
    1.2726947327065353E+01 
    9.0035073192503265E+00 
    5.2043381351519571E+00 
    8.6800816359423330E+00 
    1.3108547270156368E+01 
    9.1253966366007813E+00 
    7.6234762034488899E+00 
    8.5972314498363485E+00 
    1.3210913427050608E+01 
    1.1894420579994955E+01 
    7.2268198068646692E+00 
    1.3337431965757542E+01 
    8.9429850666221853E+00 
    1.2341752305812566E+01 
    1.3222994224585412E+01 
    9.2728509737224591E+00 
    4.5972858602613220E+00 
    9.6323755200604815E+00 
    4.7573649232107948E+00 
    9.0477979007800950E+00 
    8.8627900529522776E+00 
    1.0133278485268578E+01 
    5.0311260072567521E+00 
    1.0754093954868440E+01 
    8.8837510654726319E+00 
    1.2104577712968821E+01 
    9.2442017293434766E+00 
    7.0546897052619819E+00 
    8.4834377783583381E+00 
    9.3106153403212382E+00 
    9.3232760441626557E+00 
    1.2844906669788541E+01 
    7.2678684649471572E+00 
    7.1409872822663063E+00 
    5.2952104784413390E+00 
    1.2362992434220747E+01 
    8.5189876258641490E+00 
    1.1713690308374041E+01 
    8.8338035615278496E+00 
    5.8007296660653092E+00 
    1.1917980933495844E+01 
    8.8077068514254364E+00 
    6.3370730784341331E+00 
    6.7231049919794303E+00 
    6.9671007207550817E+00 
    1.2130462198199034E+01 
    8.8082152094605934E+00 
    1.2699634186658409E+01 
    8.7639633927771516E+00 
    8.6994668069415866E+00 
    8.2502268265553571E+00 
    1.1989843111940027E+01 
    8.6135465354049483E+00 
    7.0036699817264791E+00 
    1.3577090272327393E+01 
    1.2059596259699866E+01 
    6.1363061085848285E+00 
    2.3472318750195784E+00 
    8.7971165985874684E+00 
    8.2506879038209657E+00 
    7.3660621090944280E+00 
    8.0680787079794491E+00 
    1.2042637109720250E+01 
    8.5185267019704867E+00 
    7.6695404380565231E+00 
    1.1919478569684706E+01 
    6.0793947690220822E+00 
    1.1636578782193096E+01 
    7.9655428823805865E+00 
    6.9428724468939063E+00 
    7.4383268752696399E+00 
    1.2417853694660952E+01 
    8.8524352999339762E+00 
    8.8602893859141787E+00 
    5.1082876838705449E+00 
    5.5296831752947444E+00 
    1.1038176604023910E+01 
    8.8698286961149613E+00 
    8.8424008165166583E+00 
    1.3323010406444476E+01 
    7.1432471285043615E+00 
    8.8814235868102429E+00 
    6.2887654903536934E+00 
    6.4839248609664297E+00 
    1.1981491621977980E+01 
    8.5019384912836315E+00 
    6.1076290159870101E+00 
    9.3076968266667777E+00 
    8.7392324016087723E+00 
    1.1985134842644884E+01 
    1.3410015891186143E+01 
    9.0485800020559359E-01 
    8.8021308345665137E+00 
    9.0875986463042810E+00 
    1.2042578217115093E+01 
    8.2921368154475132E+00 
    8.8271074002722383E+00 
    1.2890231310042701E+01 
    7.4696812338403564E+00 
    6.1630166546542888E+00 
    1.0676043402460921E+01 
    1.1880483298871674E+01 
    1.2778010592538406E+01 
    1.3026821359124686E+01 
    8.6478852599155083E+00 
    8.7942048738566623E+00 
    9.9138407887197193E+00 
    5.8259571846184128E+00 
    1.1989653929853294E+01 
    6.6497561196192194E+00 
    6.0716414842050428E+00 
    1.1027192505696089E+01 
    1.0379274252234042E+01 
    5.9526918889643721E+00 
    1.1911019690798696E+01 
    1.2764998768207786E+01 
    9.2446339819868193E+00 
    1.3504882277816661E+01 
    1.1938792032469465E+01 
    8.3758229865260443E+00 
    1.2529823857946065E+01 
    6.4912093277901315E+00 
    1.1896113427632185E+01 
    8.8012164277350813E+00 
    8.7603712803543434E+00 
    1.3480169412436481E+01 
    8.5479620958970877E+00 
    1.0773840294041563E+01 
    7.4245335378320396E+00 
    1.2871879033035455E+01 
    1.1816657411654328E+01 
    7.7538096463834361E+00 
    1.1860600807209233E+01 
    7.9856594430854777E+00 
    8.8361467467918775E+00 
    1.2728887611236157E+01 
    1.2105448703795195E+01 
    1.2768011380831576E+01 
    1.2045198160798233E+01 
    7.9426650275655657E+00 
    8.1522083286016720E+00 
    1.2773932979395127E+01 
    8.2666466871910771E+00 
    1.1759687977118155E+01 
    8.5408123953240960E+00 
    3.4456828448772621E+00 
    6.1339003158895116E+00 
    5.6758123922302941E+00 
    1.2731878121321865E+01 
    1.3415264524467780E+01 
    1.1875995236108492E+01 
    1.0254953861786797E+01 
    1.2120865756145363E+01 
    1.1917332426377046E+01 
    1.2424698158035167E+01 
    4.9307849628193212E+00 
    3.2134530966819770E+00 
    1.0063050416904341E+01 
    8.4414445548253543E+00 
    1.2044079666524915E+01 
    1.2041907949327149E+01 
    9.1026008798774622E+00 
    1.2073905998732398E+01 
    8.7887048070725822E+00 
    8.6626391149158017E+00 
    4.4491020886310642E+00 
    3.2000835446418172E+00 
    1.3208427824710553E+01 
    6.8890698072847458E+00 
    7.7003293205902636E+00 
    9.0128878822431826E+00 
    1.4748613731499063E+01 
    9.0958000721300891E+00 
    9.0267635152753947E+00 
    3.6415921008754397E+00 
    9.0963066721934460E+00 
    9.1081926897894316E+00 
    1.2313295261274032E+01 
    7.4417567345521185E+00 
    8.4190729147070957E+00 
    1.3363944314410432E+01 
    8.8115838013681511E+00 
    1.1889400139527327E+01 
    1.2106736393902839E+01 
    1.0904441333956482E+01 
    7.4759878202982746E+00 
    1.2044449032158575E+01 
    8.5981660924134076E+00 
    1.2055932415867375E+01 
    1.1835979255094633E+01 
    1.2749033791522463E+01 
    1.2044175106804982E+01 
    1.1338407177961439E+01 
    8.7994397452744284E+00 
    5.9055628768837733E+00 
    1.4625279385236386E+01 
    6.7867799811489915E+00 
    1.2689745916783567E+01 
    8.7967696943016467E+00 
    7.1783527917057839E+00 
    4.3157804115283138E+00 
    9.1382096271277895E+00 
    1.2033393022886294E+01 
    1.2029098239582755E+01 
    8.8177714353070389E+00 
    8.7907808396876082E+00 
    1.3558220466548883E+01 
    1.2974155343421495E+01 
    9.1125201040139263E+00 
    2.9913079906661815E+00 
    1.1312316605700030E+01 
    1.4874285252782974E+01 
    8.8028950141607414E+00 
    1.0571571360386015E+01 
    8.2871670155248705E+00 
    1.4487839209194956E+01 
    1.3045745849837653E+01 
    1.2799548449303055E+01 
    9.1322774018769461E+00 
    4.0208724788363206E+00 
    8.2476070500983525E+00 
    8.3133418243275905E+00 
    8.3621403961900853E+00 
    3.2534638279476868E+00 