# vtk DataFile Version 2.0
Pressure Field Data 
ASCII 
DATASET UNSTRUCTURED_GRID 

POINTS 2860 double 

    0.0000000000000000E+00     0.0000000000000000E+00     0.0000000000000000E+00 
    1.0000000000000000E+00     0.0000000000000000E+00     0.0000000000000000E+00 
    1.0000000000000000E+00     1.0000000000000000E+00     0.0000000000000000E+00 
    0.0000000000000000E+00     1.0000000000000000E+00     0.0000000000000000E+00 
    2.5000000000000000E-01     2.5000000000000000E-01     0.0000000000000000E+00 
    7.5000000000000000E-01     2.5000000000000000E-01     0.0000000000000000E+00 
    7.5000000000000000E-01     7.5000000000000000E-01     0.0000000000000000E+00 
    2.5000000000000000E-01     7.5000000000000000E-01     0.0000000000000000E+00 
    3.1249999999942091E-02     0.0000000000000000E+00     0.0000000000000000E+00 
    6.2499999999873469E-02     0.0000000000000000E+00     0.0000000000000000E+00 
    9.3749999999826514E-02     0.0000000000000000E+00     0.0000000000000000E+00 
    1.2499999999977961E-01     0.0000000000000000E+00     0.0000000000000000E+00 
    1.5624999999968961E-01     0.0000000000000000E+00     0.0000000000000000E+00 
    1.8749999999959971E-01     0.0000000000000000E+00     0.0000000000000000E+00 
    2.1874999999950970E-01     0.0000000000000000E+00     0.0000000000000000E+00 
    2.4999999999941969E-01     0.0000000000000000E+00     0.0000000000000000E+00 
    2.8124999999932920E-01     0.0000000000000000E+00     0.0000000000000000E+00 
    3.1249999999923850E-01     0.0000000000000000E+00     0.0000000000000000E+00 
    3.4374999999914790E-01     0.0000000000000000E+00     0.0000000000000000E+00 
    3.7499999999905720E-01     0.0000000000000000E+00     0.0000000000000000E+00 
    4.0624999999896660E-01     0.0000000000000000E+00     0.0000000000000000E+00 
    4.3749999999887590E-01     0.0000000000000000E+00     0.0000000000000000E+00 
    4.6874999999878530E-01     0.0000000000000000E+00     0.0000000000000000E+00 
    4.9999999999869471E-01     0.0000000000000000E+00     0.0000000000000000E+00 
    5.3124999999877620E-01     0.0000000000000000E+00     0.0000000000000000E+00 
    5.6249999999885780E-01     0.0000000000000000E+00     0.0000000000000000E+00 
    5.9374999999893940E-01     0.0000000000000000E+00     0.0000000000000000E+00 
    6.2499999999902101E-01     0.0000000000000000E+00     0.0000000000000000E+00 
    6.5624999999910261E-01     0.0000000000000000E+00     0.0000000000000000E+00 
    6.8749999999918421E-01     0.0000000000000000E+00     0.0000000000000000E+00 
    7.1874999999926570E-01     0.0000000000000000E+00     0.0000000000000000E+00 
    7.4999999999934730E-01     0.0000000000000000E+00     0.0000000000000000E+00 
    7.8124999999942890E-01     0.0000000000000000E+00     0.0000000000000000E+00 
    8.1249999999951039E-01     0.0000000000000000E+00     0.0000000000000000E+00 
    8.4374999999959199E-01     0.0000000000000000E+00     0.0000000000000000E+00 
    8.7499999999967359E-01     0.0000000000000000E+00     0.0000000000000000E+00 
    9.0624999999975520E-01     0.0000000000000000E+00     0.0000000000000000E+00 
    9.3749999999983680E-01     0.0000000000000000E+00     0.0000000000000000E+00 
    9.6874999999991840E-01     0.0000000000000000E+00     0.0000000000000000E+00 
    1.0000000000000000E+00     3.1249999999942091E-02     0.0000000000000000E+00 
    1.0000000000000000E+00     6.2499999999873469E-02     0.0000000000000000E+00 
    1.0000000000000000E+00     9.3749999999826514E-02     0.0000000000000000E+00 
    1.0000000000000000E+00     1.2499999999977961E-01     0.0000000000000000E+00 
    1.0000000000000000E+00     1.5624999999968961E-01     0.0000000000000000E+00 
    1.0000000000000000E+00     1.8749999999959971E-01     0.0000000000000000E+00 
    1.0000000000000000E+00     2.1874999999950970E-01     0.0000000000000000E+00 
    1.0000000000000000E+00     2.4999999999941969E-01     0.0000000000000000E+00 
    1.0000000000000000E+00     2.8124999999932920E-01     0.0000000000000000E+00 
    1.0000000000000000E+00     3.1249999999923850E-01     0.0000000000000000E+00 
    1.0000000000000000E+00     3.4374999999914790E-01     0.0000000000000000E+00 
    1.0000000000000000E+00     3.7499999999905720E-01     0.0000000000000000E+00 
    1.0000000000000000E+00     4.0624999999896660E-01     0.0000000000000000E+00 
    1.0000000000000000E+00     4.3749999999887590E-01     0.0000000000000000E+00 
    1.0000000000000000E+00     4.6874999999878530E-01     0.0000000000000000E+00 
    1.0000000000000000E+00     4.9999999999869471E-01     0.0000000000000000E+00 
    1.0000000000000000E+00     5.3124999999877620E-01     0.0000000000000000E+00 
    1.0000000000000000E+00     5.6249999999885780E-01     0.0000000000000000E+00 
    1.0000000000000000E+00     5.9374999999893940E-01     0.0000000000000000E+00 
    1.0000000000000000E+00     6.2499999999902101E-01     0.0000000000000000E+00 
    1.0000000000000000E+00     6.5624999999910261E-01     0.0000000000000000E+00 
    1.0000000000000000E+00     6.8749999999918421E-01     0.0000000000000000E+00 
    1.0000000000000000E+00     7.1874999999926570E-01     0.0000000000000000E+00 
    1.0000000000000000E+00     7.4999999999934730E-01     0.0000000000000000E+00 
    1.0000000000000000E+00     7.8124999999942890E-01     0.0000000000000000E+00 
    1.0000000000000000E+00     8.1249999999951039E-01     0.0000000000000000E+00 
    1.0000000000000000E+00     8.4374999999959199E-01     0.0000000000000000E+00 
    1.0000000000000000E+00     8.7499999999967359E-01     0.0000000000000000E+00 
    1.0000000000000000E+00     9.0624999999975520E-01     0.0000000000000000E+00 
    1.0000000000000000E+00     9.3749999999983680E-01     0.0000000000000000E+00 
    1.0000000000000000E+00     9.6874999999991840E-01     0.0000000000000000E+00 
    9.6875000000003686E-01     1.0000000000000000E+00     0.0000000000000000E+00 
    9.3750000000011691E-01     1.0000000000000000E+00     0.0000000000000000E+00 
    9.0625000000015765E-01     1.0000000000000000E+00     0.0000000000000000E+00 
    8.7500000000017863E-01     1.0000000000000000E+00     0.0000000000000000E+00 
    8.4375000000028044E-01     1.0000000000000000E+00     0.0000000000000000E+00 
    8.1250000000040856E-01     1.0000000000000000E+00     0.0000000000000000E+00 
    7.8125000000054956E-01     1.0000000000000000E+00     0.0000000000000000E+00 
    7.5000000000066480E-01     1.0000000000000000E+00     0.0000000000000000E+00 
    7.1875000000086831E-01     1.0000000000000000E+00     0.0000000000000000E+00 
    6.8750000000102829E-01     1.0000000000000000E+00     0.0000000000000000E+00 
    6.5625000000114431E-01     1.0000000000000000E+00     0.0000000000000000E+00 
    6.2500000000129829E-01     1.0000000000000000E+00     0.0000000000000000E+00 
    5.9375000000147926E-01     1.0000000000000000E+00     0.0000000000000000E+00 
    5.6250000000168354E-01     1.0000000000000000E+00     0.0000000000000000E+00 
    5.3125000000188671E-01     1.0000000000000000E+00     0.0000000000000000E+00 
    5.0000000000205835E-01     1.0000000000000000E+00     0.0000000000000000E+00 
    4.6875000000192979E-01     1.0000000000000000E+00     0.0000000000000000E+00 
    4.3750000000180111E-01     1.0000000000000000E+00     0.0000000000000000E+00 
    4.0625000000167238E-01     1.0000000000000000E+00     0.0000000000000000E+00 
    3.7500000000154382E-01     1.0000000000000000E+00     0.0000000000000000E+00 
    3.4375000000141509E-01     1.0000000000000000E+00     0.0000000000000000E+00 
    3.1250000000128642E-01     1.0000000000000000E+00     0.0000000000000000E+00 
    2.8125000000115769E-01     1.0000000000000000E+00     0.0000000000000000E+00 
    2.5000000000102918E-01     1.0000000000000000E+00     0.0000000000000000E+00 
    2.1875000000090050E-01     1.0000000000000000E+00     0.0000000000000000E+00 
    1.8750000000077180E-01     1.0000000000000000E+00     0.0000000000000000E+00 
    1.5625000000064329E-01     1.0000000000000000E+00     0.0000000000000000E+00 
    1.2500000000051459E-01     1.0000000000000000E+00     0.0000000000000000E+00 
    9.3750000000385914E-02     1.0000000000000000E+00     0.0000000000000000E+00 
    6.2500000000257239E-02     1.0000000000000000E+00     0.0000000000000000E+00 
    3.1250000000128557E-02     1.0000000000000000E+00     0.0000000000000000E+00 
    0.0000000000000000E+00     9.6875000000003686E-01     0.0000000000000000E+00 
    0.0000000000000000E+00     9.3750000000011691E-01     0.0000000000000000E+00 
    0.0000000000000000E+00     9.0625000000015765E-01     0.0000000000000000E+00 
    0.0000000000000000E+00     8.7500000000017863E-01     0.0000000000000000E+00 
    0.0000000000000000E+00     8.4375000000028044E-01     0.0000000000000000E+00 
    0.0000000000000000E+00     8.1250000000040856E-01     0.0000000000000000E+00 
    0.0000000000000000E+00     7.8125000000054956E-01     0.0000000000000000E+00 
    0.0000000000000000E+00     7.5000000000066480E-01     0.0000000000000000E+00 
    0.0000000000000000E+00     7.1875000000086831E-01     0.0000000000000000E+00 
    0.0000000000000000E+00     6.8750000000102829E-01     0.0000000000000000E+00 
    0.0000000000000000E+00     6.5625000000114431E-01     0.0000000000000000E+00 
    0.0000000000000000E+00     6.2500000000129829E-01     0.0000000000000000E+00 
    0.0000000000000000E+00     5.9375000000147926E-01     0.0000000000000000E+00 
    0.0000000000000000E+00     5.6250000000168354E-01     0.0000000000000000E+00 
    0.0000000000000000E+00     5.3125000000188671E-01     0.0000000000000000E+00 
    0.0000000000000000E+00     5.0000000000205835E-01     0.0000000000000000E+00 
    0.0000000000000000E+00     4.6875000000192979E-01     0.0000000000000000E+00 
    0.0000000000000000E+00     4.3750000000180111E-01     0.0000000000000000E+00 
    0.0000000000000000E+00     4.0625000000167238E-01     0.0000000000000000E+00 
[...]
CELL_DATA 2795 
SCALARS Pressure double 1 
LOOKUP_TABLE default 

    6.2289963199617624E+00 
    1.4261855251167868E+01 
    1.0043909157990646E+01 
    9.6522129568666664E+00 
    7.6634012319507763E+00 
    1.4132303810647157E+01 
    1.4853857866168147E+01 
    5.5617201912899432E+00 
    1.0608924701786300E+01 
    8.1185443873108198E+00 
    6.9260466366027478E+00 
    1.3877307188748048E+01 
    1.4170298211086715E+01 
    1.4101547834936866E+01 
    9.2719480723068610E+00 
    5.4694483890306413E+00 
    8.8724621004860644E+00 
    7.3749822985908642E+00 
    1.3516308042167093E+01 
    1.0032612798528131E+01 
    9.9273390086526287E+00 
    1.4036733998682735E+01 
    9.3858446852298894E+00 
    3.6572989719498578E-01 
    1.3874760097595185E+01 
    1.4140080597767142E+01 
    1.4884827285609559E+01 
    6.6585623552017976E+00 
    1.3798156280061900E+01 
    1.4878961348354812E+01 
    1.0092592786524429E+01 
    1.0250275006246326E+01 
    7.1969490426223919E+00 
    1.0006430027824818E+01 
    3.2239819227465261E+00 
    8.8781021526436241E+00 
    9.9953185467049401E+00 
    1.4918433971991639E+01 
    1.4831081569160713E+01 
    1.3890093760750316E+01 
    7.6033701074546407E+00 
    1.3848735246085162E+01 
    7.6105245025043933E-01 
    9.8996914700156609E+00 
    1.4646932992127962E+01 
    1.4478760105469341E+01 
    1.3866663805754525E+01 
    1.0966074955388866E+01 
    1.3937197215486337E+01 
    9.0782236867442663E+00 
    8.6467032420346595E+00 
    1.0215323973473941E+01 
    9.7889683692474456E+00 
    8.9240518015226424E+00 
    1.0161006158424083E+01 
    1.3307432388317475E+01 
    1.1960374964213335E+01 
    7.7050074503012862E+00 
    1.4040953465209958E+01 
    1.3964189763523295E+01 
    9.6413397059918715E+00 
    9.6613092607133826E+00 
    9.5548103897516672E+00 
    1.4781956373541707E+01 
    1.5033219549406022E+01 
    8.8826217013785342E+00 
    1.0214658949107028E+01 
    1.3767720599019331E+01 
    1.1772689859452607E+01 
    9.7058539710230409E+00 
    1.5042632761917595E+01 
    1.3984903707796349E+01 
    8.7583460813481739E+00 
    1.4579448196081938E+01 
    1.0391706139083114E+01 
    1.3727393176252621E+01 
    1.4928822178154965E+01 
    1.0433583020684235E+01 
    6.3790425949219198E+00 
    1.0233538903061017E+01 
    1.4839996396931163E+01 
    1.5072320638671730E+01 
    8.8969919133107229E+00 
    1.0150368207084265E+01 
    1.5116393195379358E+01 
    9.9976705395975944E+00 
    9.4716625037084956E+00 
    1.2190807076650575E+01 
    6.0737429131704292E+00 
    8.6696004084223421E+00 
    1.0149733090727739E+01 
    1.0765925933837469E+01 
    1.6578270568564630E+01 
    7.4465571194577498E+00 
    1.0222988202328072E+01 
    1.3844635265328250E+01 
    1.4121972580616927E+01 
    6.5544128016257899E+00 
    9.8685799390227906E+00 
    1.0180111236542551E+01 
    1.4142265530181261E+01 
    1.0180103951210091E+01 
    1.4074464626525225E+01 
    3.9821903357668531E+00 
    6.7338949278114013E+00 
    1.0460545929160070E+01 
    1.4270005130252441E+01 
    8.8431497638787739E+00 
    9.4219881313436584E+00 
    1.0163828219505417E+01 
    9.4381531578165223E+00 
    1.1545277441765807E+01 
    9.1634691216661963E+00 
    8.7663400457647302E+00 
    6.9193613914978913E+00 
    1.1943131748107151E+01 
    1.0251541057824044E+01 
    1.4694444138121954E+01 
    8.8084280169944105E+00 
    9.6338362713082564E+00 
    1.3973083266687532E+01 
    8.0282485904506817E+00 
    1.4418281949934261E+01 
    1.0074114428769201E+01 
    9.5633815071776205E+00 
    1.4123985733195829E+01 
    1.0245958550999532E+01 
    1.4939798029498601E+01 
    1.2203416456008037E+01 
    1.3155064091954403E+01 
    1.4901448356717836E+01 
    7.4616788188140566E+00 
    1.0485874504288855E+01 
    1.4124516337708480E+01 
    2.9839584594707373E+00 
    1.0139774970333459E+01 
    1.4868111009880471E+01 
    9.5922863672225720E+00 
    1.1093477550455232E+01 
    6.5225175308718271E+00 
    1.3842680974584646E+01 
    1.7069640303489045E+01 
    1.2673919358574707E+01 
    9.5912465047931779E+00 
    8.5696666852739405E+00 
    1.0803072666970374E+01 
    1.0090998602028870E+01 
    6.9993332608413557E+00 
    1.4897318738181214E+01 
    1.4203591692893179E+01 
    1.3846302684678221E+01 
    1.0766890529257752E+01 
    8.7284188608187403E+00 
    9.9256894068763319E+00 
    1.4607049695661653E+01 
    8.9820320280570112E+00 
    1.0063179813525712E+01 
    9.1477771724658048E+00 
    1.1682243683554393E+01 
    1.7057826794293838E+01 
    1.3837957798497717E+01 
    8.6913020179686935E+00 
    1.4315821608040251E+01 
    1.4229450399912146E+01 
    1.4309069639142709E+01 
    1.5314386858893455E+01 
    1.5856117725873681E+01 
    1.4476794739463735E+01 
    1.0206348272328972E+01 
    1.0959998116255475E+01 
    1.4303664977250000E+01 
    1.4706289299462476E+01 
    7.3060390644080409E+00 
    1.3866319992882850E+01 
    1.4569179632231156E+01 
    7.1138911676241756E+00 
    1.5232674411845974E+01 
    1.5214104342341360E+01 
    1.3585849900168343E+01 
    1.0554786937624279E+01 
    2.6262634398230400E+00 
    1.4868844668349658E+01 
    1.0393734436581804E+01 
    1.4989055134785358E+01 
    9.5227275055003400E+00 
    1.4705861614167929E+01 
    9.3403621927469582E-01 
    1.3172739184203595E+01 
    9.7058369222809961E+00 
    8.6882738409465414E+00 
    8.4655760443658039E+00 
    1.0043890100063551E+01 
    1.1196448763123527E+01 
    1.0462712333861958E+01 
    7.0294131643640227E+00 
    1.4701024872409855E+01 
    1.4148511527276550E+01 
    1.1899371093745668E+01 
    1.0455034455185796E+01 
    1.5241697578226598E+00 
    7.8075791917879167E+00 
    5.4100336972578589E+00 
    1.4889664981096121E+01 
    1.1321826083960584E+01 
    1.4199616763562416E+01 
    1.4214506750573614E+01 
    9.0601852794118027E+00 
    1.1911871733789480E+01 
    1.3841921136606491E+01 
    1.5196296643687040E+01 
    6.4895178708241392E+00 
    1.2505939714463663E+01 
    1.0489200704985713E+01 
    5.7743053358431782E+00 
    9.0534128458353109E+00 
    1.2477495434384497E+01 
    1.4176502227946553E+01 
    1.0097959356274023E+01 
    1.4286823678166204E+01 
    1.4052814131260602E+01 
    1.4002042921135800E+01 
    9.9318906649956560E+00 
    8.6254152074407493E+00 
    1.3854097972120186E+01 
    8.7521635653967493E+00 
    1.0185011120111204E+01 
    8.5786166076933874E+00 
    1.0008431182470833E+01 
    1.4223317378439125E+01 
    6.3327052932704291E+00 
    8.9619296820863248E+00 
    1.4804027868706818E+01 
    9.9440946891078603E+00 
    1.1214210106936402E+01 
    6.4976940587075962E+00 
    8.8169228026911650E+00 
    1.4030947171715093E+01 
    1.4342432581960363E+01 
    5.2965807611596780E+00 
    9.9495740188788293E+00 
    8.6204626847874888E+00 
    1.5621292735189023E+01 
    1.5080138597562797E+01 
    1.5883412581281082E+01 
    9.9697400823783831E+00 
    1.4196907989112665E+01 
    1.3798928478208719E+01 
    9.8419737225355881E+00 
    1.3846713033161082E+01 
    1.0455099077133026E+01 
    5.8540106680157757E+00 
    1.0211032033588713E+01 
    1.4789966778390871E+01 
    1.3843534218598702E+01 
    6.8899767763979796E+00 
    1.3873275646768501E+01 
    1.1206712988628237E+01 
    1.0120195182040657E+01 
    9.6674903100881568E+00 
    1.3710328890850358E+01 
    1.0647389417224094E+01 
    1.3859553735154856E+01 
    9.8349701816758976E+00 
    6.0683662344178604E+00 
    1.0255078111619627E+01 
    8.4755447055483337E+00 
    1.2676588316177416E+01 
    1.4988135642780634E+01 
    1.3852406907571913E+01 
    1.4861707815346747E+01 
    9.8922344829052875E+00 
    6.7096357489237075E+00 
    6.8051067424850071E+00 
    1.0304036765231318E+01 
    1.0161113804249938E+01 
    1.4526749010354096E+00 
    1.3356959470973635E+01 
    1.5342066415724235E+01 
    9.5364830777601046E+00 
    6.0954022990931085E+00 
    1.1640070559324203E+01 
    1.3871871241446886E+01 
    7.2180019441724070E+00 
    4.8931054351841707E+00 
    1.0138322276669927E+01 
    1.3954930566008859E+01 
    1.4605338281130962E+01 
    1.4496158577675637E+01 
    1.4346078547337497E+01 
    7.0573008554125014E+00 
    1.0114251367690068E+01 
    1.3391648662177822E+01 
    7.9700083206081258E+00 
    1.4157336200707523E+01 
    1.2155190926880145E+01 
    6.9087392944287425E+00 
    1.3980605818658491E+01 
    1.4894516686399704E+01 
    1.3995052125035402E+01 
    6.9493262824507349E+00 
    1.0210877364942277E+01 
    7.6377807085591636E+00 
    9.6394213012236794E+00 
    1.3863236679386144E+01 
    1.3851337536468989E+01 
    6.9897942171009380E+00 
    1.4745321811629625E+01 
    1.0769189397162886E+01 
    1.3884310627764412E+01 
    1.4712314759249271E+01 
    1.3871311244434613E+01 
    1.2920873753739723E+01 
    1.5675941864482065E+01 
    9.4914484819689324E+00 
    1.4831055626300236E+01 
    1.3913157538131141E+01 
    1.4903609847507019E+01 
    1.4738392306067066E+01 
    9.5919169502921608E+00 
    1.0035719541566579E+01 
    9.5269652046400246E+00 
    1.2422990446727358E+01 
    3.9948386916911018E+00 
    1.0240390661281818E+01 
    1.5802354547914177E+01 
    1.0455670965497129E+01 
    1.0644765550365905E+01 
    1.4876692936018406E+01 
    1.5108038805328375E+01 
    9.4212679645205597E+00 
    1.3877657759497062E+01 
    1.3847397945167177E+01 
    1.0632309318463037E+01 
    1.4693355168033666E+01 
    7.2572737841113408E+00 
    4.6123735510214656E+00 
    1.0914801596010150E+01 
    1.0471419342491979E+01 
    1.3853611432495756E+01 
    6.5354673332159301E+00 
    1.4411069122790231E+01 
    4.6953495564055068E+00 
    1.0400143261979418E+01 
    9.6256383391647891E+00 
    1.0187479081721900E+01 
    1.7109303666560393E+01 
    3.8808850092026326E+00 
    1.0157281838429835E+01 
    1.2144593302943981E+01 
    9.7943764053107252E+00 
    7.7220990893983723E+00 
    1.4524216364547666E+01 
    1.6665634193181834E+01 
    1.4674020608262405E+01 
    1.0097217154762129E+01 
    5.7405879603340111E+00 
    1.6518769610610207E+01 
    1.4137585550874594E+01 
    7.4045392305155779E+00 
    9.7398475007269276E+00 
    1.5298183861903544E+01 
    3.3010131815312462E+00 
    1.0521322379191314E+01 
    1.4639915835364837E+01 
    1.0200791543780266E+01 
    8.8921396729498721E+00 
    1.0197253727057042E+01 
    1.3613322406690974E+01 
    1.0182032565708248E+01 
    5.1080405796938075E+00 
    9.0611908266547625E-01 
    7.6054359442782857E+00 
    1.5516972761191687E+01 
    9.5264361686404548E+00 
    1.1530622845717073E+01 
    1.0960228543778641E+01 
    1.2747744400076270E+01 
    1.0214203205889874E+01 
    1.4046225714142327E+01 
    1.7123639831642013E+01 
    1.2097401466934691E+01 
    1.4803607975731047E+01 
    5.4352482899765520E-01 
    1.3853385112771992E+01 
    5.6623210614229658E+00 
    1.5971736223425332E+01 
    1.0170984276090550E+01 
    9.0403530207154770E+00 
    7.7905293243768963E+00 
    5.3574413859574008E+00 
    1.1418690886730870E+01 
    8.0555414325530013E+00 
    1.2569722626524234E+01 
    2.2005860113427715E+00 
    1.1241543003156815E+01 
    1.3785900982061904E+01 
    6.1766306222048133E+00 
    1.4347297522403741E+01 
    1.5771966600525641E+01 
    1.4187003656454930E+01 
    1.0035626633895948E+01 
    1.0182225482958899E+01 
    1.0163663849125497E+01 
    5.8097108132979125E+00 
    9.2580552042725497E+00 
    9.1003428051469921E+00 
    1.0152629998143992E+01 
    9.4571926672617668E+00 
    6.8766072492793462E-01 
    6.5117735953251028E+00 
    9.8573046903126915E+00 
    1.0127446584739330E+01 
    1.2918256022006531E+01 
    2.1725515271481655E+00 
    1.0591835254463547E+01 
    1.0475650544521846E+01 
    3.7329318813766497E+00 
    1.4046758248144480E+01 
    8.7731341116267956E+00 
    1.0323595773814072E+01 
    1.4134181957480655E+01 
    5.3810577452510548E+00 
    1.4171793082523672E+01 
    8.8893882974690808E+00 
    9.9658647358909080E-01 
    9.5889744163780772E+00 
    1.4756816586010434E+01 
    1.3853202228716007E+01 
    1.3871744541610761E+01 
    1.0510250174552352E+01 
    1.0404423756097694E+01 
    8.7518966520228538E+00 
    7.0707243471833703E+00 
    1.4244422423460991E+01 
    9.7370364603385813E+00 
    6.8855226423939788E+00 
    1.3867417656141782E+01 
    1.4564612101426205E+01 
    1.0330294472909602E+01 
    9.9903381416437202E+00 
    1.7002465558305623E+01 
    1.0633179195881237E+01 
    1.4261910940799879E+01 
    8.3124209365143908E+00 
    1.7152296804824331E+01 
    6.7653911702718457E+00 
    9.1657253354949617E+00 
    7.5818046305732549E+00 
    1.0864173017906424E+01 
    8.6804800394262323E+00 
    1.7135744934272385E+01 
    1.0681226738259873E+01 
    1.3551762774355430E+01 
    6.9589153053782278E+00 
    1.0210437433955752E+01 
    1.4103757112842034E+01 
    8.7141521291249209E+00 
    7.3418176185070454E+00 
    1.1291971171435666E+01 
    1.4332030891757423E+01 
    7.4624426899390706E+00 
    9.6463320846273231E+00 
    1.0019804441633859E+01 
    1.3828601438176230E+01 
    9.8206447020465859E+00 
    1.4307029731890026E+01 
    1.4932577225681545E+01 
    8.7787466736867330E+00 
    8.6007538176900269E+00 
    8.0882930186225028E+00 
    1.3971424239134221E+01 
    1.0477486170362940E+01 
    1.6705252458346877E+01 
    1.3112179465346882E+01 
    1.4062604165770509E+01 
    1.6391705338396207E+01 
    1.5779639377539775E+01 
    1.0258271252454156E+01 
    1.0137413484253614E+01 
    1.3617696978097454E+01 
    1.3891531900418789E+01 
    1.4418604428827001E+01 
    1.4158049102121428E+01 
    1.7023393513117853E+01 
    1.0632715741618696E+01 
    8.8820274629868745E+00 
    1.0627867643138899E+01 
    1.4845784919219428E+01 
    1.0366236339984116E+01 
    6.0300677277143313E+00 
    1.0019451785445625E+01 
    1.5264705876788508E+01 
    1.0511918779826290E+01 
    8.8925053499850986E+00 
    9.9612721839670240E+00 
    1.5376174744479037E+01 
    1.3905560456439535E+01 
    8.4370198785805623E+00 
    1.5513450161160540E+01 
    1.0289213537120190E+01 
    1.4411360541130147E+01 
    1.5389648109577603E+01 
    1.0802040854160227E+01 
    5.3863682216709297E+00 
    1.1247676145647509E+01 
    5.5757476648930702E+00 
    1.0423397786753824E+01 
    1.0202545323868458E+01 
    1.1848762218944117E+01 
    5.8963903053963360E+00 
    1.2578667846864938E+01 
    1.0222652638317454E+01 
    1.4148225085359767E+01 
    1.0795545981954620E+01 
    8.2497687608995278E+00 
    9.8366717664565879E+00 
    1.0673462307064749E+01 
    1.0737223413899647E+01 
    1.4976977097590702E+01 
    8.4792984955074147E+00 
    8.3325617802170449E+00 
    6.2038448198886069E+00 
    1.4442108895927808E+01 
    9.8773737690130261E+00 
    1.3697673885869895E+01 
    1.0173145273074914E+01 
    6.7901940586162546E+00 
    1.3934603400030742E+01 
    1.0148638324134344E+01 
    7.4080197922523743E+00 
    7.8518083264167453E+00 
    8.1328503150733535E+00 
    1.4178601852043062E+01 
    1.0154625816691027E+01 
    1.4815257227199949E+01 
    1.0107482990313848E+01 
    1.0045866543879930E+01 
    9.5644024065648452E+00 
    1.4017750590438807E+01 
    9.9633674376474648E+00 
    8.1740032502567885E+00 
    1.5767639778539568E+01 
    1.4098663859603271E+01 
    7.0890134655928119E+00 
    2.7397912120260259E+00 
    1.0144084368662710E+01 
    9.5622583992574057E+00 
    8.5930470783797830E+00 
    9.3665572178353056E+00 
    1.4058526724256183E+01 
    9.8509065436146646E+00 
    8.9371119488630981E+00 
    1.3913501179639329E+01 
    7.0257230861009807E+00 
    1.3577487046564304E+01 
    9.2366354155487027E+00 
    8.1175555583483021E+00 
    8.6773842592687487E+00 
    1.4496549320870523E+01 
    1.0190420802950461E+01 
    1.0198473661009974E+01 
    5.9783034376201716E+00 
    6.4670375056955978E+00 
    1.2912980320361683E+01 
    1.0208242492274104E+01 
    1.0184127024105340E+01 
    1.5498838184805390E+01 
    8.3358738675013999E+00 
    1.0220582530032143E+01 
    7.2664390350009134E+00 
    7.4956116154675732E+00 
    1.4011316132608195E+01 
    9.8511500393078908E+00 
    7.1366253280839045E+00 
    1.0776551447966868E+01 
    1.0094288412315676E+01 
    1.4014206627662572E+01 
    1.5592465897309101E+01 
    1.0481047795412763E+00 
    1.0148995776045469E+01 
    1.0469375720475421E+01 
    1.4078459576876055E+01 
    9.6624103797223135E+00 
    1.0164301306754652E+01 
    1.5029981213369098E+01 
    8.7138704631315225E+00 
    7.2011029586255493E+00 
    1.2344759725078058E+01 
    1.3867068681570883E+01 
    1.4902220640919547E+01 
    1.5172528825682228E+01 
    9.9908723370082431E+00 
    1.0140489325197015E+01 
    1.1486562130374269E+01 
    6.7346489907541169E+00 
    1.3996276595368709E+01 
    7.7635640921732119E+00 
    7.0149621937824351E+00 
    1.2810590145736185E+01 
    1.2053532437469944E+01 
    6.8790558657954124E+00 
    1.3903090007027908E+01 
    1.4888165040135032E+01 
    1.0648516813087941E+01 
    1.5694830304163899E+01 
    1.3936448549318007E+01 
    9.7263041555514551E+00 
    1.4625655046754630E+01 
    7.5001040151490432E+00 
    1.3885905100663589E+01 
    1.0147924978767669E+01 
    1.0109447883374449E+01 
    1.5670299491049249E+01 
    9.9114637745013479E+00 
    1.2530409525521742E+01 
    8.6614035935128868E+00 
    1.5006637328673643E+01 
    1.3792042801162946E+01 
    9.0398887116974915E+00 
    1.3842395369045972E+01 
    9.2565876309097170E+00 
    1.0173436879606612E+01 
    1.4847577998881215E+01 
    1.4153309445380602E+01 
    1.4891352742161290E+01 
    1.4081736662901870E+01 
    9.2637833097074047E+00 
    9.4817865971560824E+00 
    1.4898315325660072E+01 
    9.6080676764995978E+00 
    1.3723051835180348E+01 
    9.9005925889873474E+00 
    4.0264284807342907E+00 
    7.0885770221036832E+00 
    6.5635710655987172E+00 
    1.4851187864916328E+01 
    1.5598951445769787E+01 
    1.3860627002475807E+01 
    1.1779980960844702E+01 
    1.4151320167187938E+01 
    1.3911000918901394E+01 
    1.4499472885965835E+01 
    5.7740298351969610E+00 
    3.7531293903980614E+00 
    1.1570916032824442E+01 
    9.8230027348003457E+00 
    1.4060122844656295E+01 
    1.4057593309917429E+01 
    1.0493574679363276E+01 
    1.4095071568755952E+01 
    1.0134811278301846E+01 
    1.0064349423155043E+01 
    5.2092346883282170E+00 
    3.7393968974333829E+00 
    1.5372985451341565E+01 
    7.9624919728786878E+00 
    8.9822055936000353E+00 
    1.0377260278166951E+01 
    1.7004246294602474E+01 
    1.0479082412963480E+01 
    1.0481895768024998E+01 
    4.2562382880622307E+00 
    1.0480639162339138E+01 
    1.0495237455577056E+01 
    1.4380702317487193E+01 
    8.6831195156314696E+00 
    9.7525329770567826E+00 
    1.5542485487871355E+01 
    1.0157320321319299E+01 
    1.3876677382411742E+01 
    1.4137075542544368E+01 
    1.2560329993883604E+01 
    8.6505698553067276E+00 
    1.4081290370707476E+01 
    9.9538141654404093E+00 
    1.4066401615098005E+01 
    1.3814875211811710E+01 
    1.4870429575079013E+01 
    1.4079597221544816E+01 
    1.3215670316015837E+01 
    1.0146005349420996E+01 
    6.8263445376282181E+00 
    1.6876293003021541E+01 
    7.9225932732684141E+00 
    1.4799387463553838E+01 
    1.0143431392966967E+01 
    8.3795716703969170E+00 
    5.0208820523287176E+00 
    1.0532533803016873E+01 
    1.4068073514783132E+01 
    1.4064367244472146E+01 
    1.0154291885405634E+01 
    1.0137641395578395E+01 
    1.5750838119940601E+01 
    1.5115213877987198E+01 
    1.0497657899242242E+01 
    3.4919211430031862E+00 
    1.3166191893169040E+01 
    1.7133218371870075E+01 
    1.0149297369164241E+01 
    1.2164086635893335E+01 
    9.6606987669312314E+00 
    1.6731839708933485E+01 
    1.5195329691610395E+01 
    1.4930488752802075E+01 
    1.0519310497716225E+01 
    4.6829727212162000E+00 
    9.6177038227589637E+00 
    9.6857318845773541E+00 
    9.7267862328359467E+00 
    3.8026998448800762E+00 