# vtk DataFile Version 2.0
Pressure Field Data 
ASCII 
DATASET UNSTRUCTURED_GRID 

POINTS 2860 double 

    0.0000000000000000E+00     0.0000000000000000E+00     0.0000000000000000E+00 
    1.0000000000000000E+00     0.0000000000000000E+00     0.0000000000000000E+00 
    1.0000000000000000E+00     1.0000000000000000E+00     0.0000000000000000E+00 
    0.0000000000000000E+00     1.0000000000000000E+00     0.0000000000000000E+00 
    2.5000000000000000E-01     2.5000000000000000E-01     0.0000000000000000E+00 
    7.5000000000000000E-01     2.5000000000000000E-01     0.0000000000000000E+00 
    7.5000000000000000E-01     7.5000000000000000E-01     0.0000000000000000E+00 
    2.5000000000000000E-01     7.5000000000000000E-01     0.0000000000000000E+00 
    3.1249999999942091E-02     0.0000000000000000E+00     0.0000000000000000E+00 
    6.2499999999873469E-02     0.0000000000000000E+00     0.0000000000000000E+00 
    9.3749999999826514E-02     0.0000000000000000E+00     0.0000000000000000E+00 
    1.2499999999977961E-01     0.0000000000000000E+00     0.0000000000000000E+00 
    1.5624999999968961E-01     0.0000000000000000E+00     0.0000000000000000E+00 
    1.8749999999959971E-01     0.0000000000000000E+00     0.0000000000000000E+00 
    2.1874999999950970E-01     0.0000000000000000E+00     0.0000000000000000E+00 
    2.4999999999941969E-01     0.0000000000000000E+00     0.0000000000000000E+00 
    2.8124999999932920E-01     0.0000000000000000E+00     0.0000000000000000E+00 
    3.1249999999923850E-01     0.0000000000000000E+00     0.0000000000000000E+00 
    3.4374999999914790E-01     0.0000000000000000E+00     0.0000000000000000E+00 
    3.7499999999905720E-01     0.0000000000000000E+00     0.0000000000000000E+00 
    4.0624999999896660E-01     0.0000000000000000E+00     0.0000000000000000E+00 
    4.3749999999887590E-01     0.0000000000000000E+00     0.0000000000000000E+00 
    4.6874999999878530E-01     0.0000000000000000E+00     0.0000000000000000E+00 
    4.9999999999869471E-01     0.0000000000000000E+00     0.0000000000000000E+00 
    5.3124999999877620E-01     0.0000000000000000E+00     0.0000000000000000E+00 
    5.6249999999885780E-01     0.0000000000000000E+00     0.0000000000000000E+00 
    5.9374999999893940E-01     0.0000000000000000E+00     0.0000000000000000E+00 
    6.2499999999902101E-01     0.0000000000000000E+00     0.0000000000000000E+00 
    6.5624999999910261E-01     0.0000000000000000E+00     0.0000000000000000E+00 
    6.8749999999918421E-01     0.0000000000000000E+00     0.0000000000000000E+00 
    7.1874999999926570E-01     0.0000000000000000E+00     0.0000000000000000E+00 
    7.4999999999934730E-01     0.0000000000000000E+00     0.0000000000000000E+00 
    7.8124999999942890E-01     0.0000000000000000E+00     0.0000000000000000E+00 
    8.1249999999951039E-01     0.0000000000000000E+00     0.0000000000000000E+00 
    8.4374999999959199E-01     0.0000000000000000E+00     0.0000000000000000E+00 
    8.7499999999967359E-01     0.0000000000000000E+00     0.0000000000000000E+00 
    9.0624999999975520E-01     0.0000000000000000E+00     0.0000000000000000E+00 
    9.3749999999983680E-01     0.0000000000000000E+00     0.0000000000000000E+00 
    9.6874999999991840E-01     0.0000000000000000E+00     0.0000000000000000E+00 
    1.0000000000000000E+00     3.1249999999942091E-02     0.0000000000000000E+00 
    1.0000000000000000E+00     6.2499999999873469E-02     0.0000000000000000E+00 
    1.0000000000000000E+00     9.3749999999826514E-02     0.0000000000000000E+00 
    1.0000000000000000E+00     1.2499999999977961E-01     0.0000000000000000E+00 
    1.0000000000000000E+00     1.5624999999968961E-01     0.0000000000000000E+00 
    1.0000000000000000E+00     1.8749999999959971E-01     0.0000000000000000E+00 
    1.0000000000000000E+00     2.1874999999950970E-01     0.0000000000000000E+00 
    1.0000000000000000E+00     2.4999999999941969E-01     0.0000000000000000E+00 
    1.0000000000000000E+00     2.8124999999932920E-01     0.0000000000000000E+00 
    1.0000000000000000E+00     3.1249999999923850E-01     0.0000000000000000E+00 
    1.0000000000000000E+00     3.4374999999914790E-01     0.0000000000000000E+00 
    1.0000000000000000E+00     3.7499999999905720E-01     0.0000000000000000E+00 
    1.0000000000000000E+00     4.0624999999896660E-01     0.0000000000000000E+00 
    1.0000000000000000E+00     4.3749999999887590E-01     0.0000000000000000E+00 
    1.0000000000000000E+00     4.6874999999878530E-01     0.0000000000000000E+00 
    1.0000000000000000E+00     4.9999999999869471E-01     0.0000000000000000E+00 
    1.0000000000000000E+00     5.3124999999877620E-01     0.0000000000000000E+00 
    1.0000000000000000E+00     5.6249999999885780E-01     0.0000000000000000E+00 
    1.0000000000000000E+00     5.9374999999893940E-01     0.0000000000000000E+00 
    1.0000000000000000E+00     6.2499999999902101E-01     0.0000000000000000E+00 
    1.0000000000000000E+00     6.5624999999910261E-01     0.0000000000000000E+00 
    1.0000000000000000E+00     6.8749999999918421E-01     0.0000000000000000E+00 
    1.0000000000000000E+00     7.1874999999926570E-01     0.0000000000000000E+00 
    1.0000000000000000E+00     7.4999999999934730E-01     0.0000000000000000E+00 
    1.0000000000000000E+00     7.8124999999942890E-01     0.0000000000000000E+00 
    1.0000000000000000E+00     8.1249999999951039E-01     0.0000000000000000E+00 
    1.0000000000000000E+00     8.4374999999959199E-01     0.0000000000000000E+00 
    1.0000000000000000E+00     8.7499999999967359E-01     0.0000000000000000E+00 
    1.0000000000000000E+00     9.0624999999975520E-01     0.0000000000000000E+00 
    1.0000000000000000E+00     9.3749999999983680E-01     0.0000000000000000E+00 
    1.0000000000000000E+00     9.6874999999991840E-01     0.0000000000000000E+00 
    9.6875000000003686E-01     1.0000000000000000E+00     0.0000000000000000E+00 
    9.3750000000011691E-01     1.0000000000000000E+00     0.0000000000000000E+00 
    9.0625000000015765E-01     1.0000000000000000E+00     0.0000000000000000E+00 
    8.7500000000017863E-01     1.0000000000000000E+00     0.0000000000000000E+00 
    8.4375000000028044E-01     1.0000000000000000E+00     0.0000000000000000E+00 
    8.1250000000040856E-01     1.0000000000000000E+00     0.0000000000000000E+00 
    7.8125000000054956E-01     1.0000000000000000E+00     0.0000000000000000E+00 
    7.5000000000066480E-01     1.0000000000000000E+00     0.0000000000000000E+00 
    7.1875000000086831E-01     1.0000000000000000E+00     0.0000000000000000E+00 
    6.8750000000102829E-01     1.0000000000000000E+00     0.0000000000000000E+00 
    6.5625000000114431E-01     1.0000000000000000E+00     0.0000000000000000E+00 
    6.2500000000129829E-01     1.0000000000000000E+00     0.0000000000000000E+00 
    5.9375000000147926E-01     1.0000000000000000E+00     0.0000000000000000E+00 
    5.6250000000168354E-01     1.0000000000000000E+00     0.0000000000000000E+00 
    5.3125000000188671E-01     1.0000000000000000E+00     0.0000000000000000E+00 
    5.0000000000205835E-01     1.0000000000000000E+00     0.0000000000000000E+00 
    4.6875000000192979E-01     1.0000000000000000E+00     0.0000000000000000E+00 
    4.3750000000180111E-01     1.0000000000000000E+00     0.0000000000000000E+00 
    4.0625000000167238E-01     1.0000000000000000E+00     0.0000000000000000E+00 
    3.7500000000154382E-01     1.0000000000000000E+00     0.0000000000000000E+00 
    3.4375000000141509E-01     1.0000000000000000E+00     0.0000000000000000E+00 
    3.1250000000128642E-01     1.0000000000000000E+00     0.0000000000000000E+00 
    2.8125000000115769E-01     1.0000000000000000E+00     0.0000000000000000E+00 
    2.5000000000102918E-01     1.0000000000000000E+00     0.0000000000000000E+00 
    2.1875000000090050E-01     1.0000000000000000E+00     0.0000000000000000E+00 
    1.8750000000077180E-01     1.0000000000000000E+00     0.0000000000000000E+00 
    1.5625000000064329E-01     1.0000000000000000E+00     0.0000000000000000E+00 
    1.2500000000051459E-01     1.0000000000000000E+00     0.0000000000000000E+00 
    9.3750000000385914E-02     1.0000000000000000E+00     0.0000000000000000E+00 
    6.2500000000257239E-02     1.0000000000000000E+00     0.0000000000000000E+00 
    3.1250000000128557E-02     1.0000000000000000E+00     0.0000000000000000E+00 
    0.0000000000000000E+00     9.6875000000003686E-01     0.0000000000000000E+00 
    0.0000000000000000E+00     9.3750000000011691E-01     0.0000000000000000E+00 
    0.0000000000000000E+00     9.0625000000015765E-01     0.0000000000000000E+00 
    0.0000000000000000E+00     8.7500000000017863E-01     0.0000000000000000E+00 
    0.0000000000000000E+00     8.4375000000028044E-01     0.0000000000000000E+00 
    0.0000000000000000E+00     8.1250000000040856E-01     0.0000000000000000E+00 
    0.0000000000000000E+00     7.8125000000054956E-01     0.0000000000000000E+00 
    0.0000000000000000E+00     7.5000000000066480E-01     0.0000000000000000E+00 
    0.0000000000000000E+00     7.1875000000086831E-01     0.0000000000000000E+00 
    0.0000000000000000E+00     6.8750000000102829E-01     0.0000000000000000E+00 
    0.0000000000000000E+00     6.5625000000114431E-01     0.0000000000000000E+00 
    0.0000000000000000E+00     6.2500000000129829E-01     0.0000000000000000E+00 
    0.0000000000000000E+00     5.9375000000147926E-01     0.0000000000000000E+00 
    0.0000000000000000E+00     5.6250000000168354E-01     0.0000000000000000E+00 
    0.0000000000000000E+00     5.3125000000188671E-01     0.0000000000000000E+00 
    0.0000000000000000E+00     5.0000000000205835E-01     0.0000000000000000E+00 
    0.0000000000000000E+00     4.6875000000192979E-01     0.0000000000000000E+00 
    0.0000000000000000E+00     4.3750000000180111E-01     0.0000000000000000E+00 
    0.0000000000000000E+00     4.0625000000167238E-01     0.0000000000000000E+00 
[...]
CELL_DATA 2795 
SCALARS Pressure double 1 
LOOKUP_TABLE default 

    6.7606966768508796E+00 
    1.5328661101544910E+01 
    1.0793119943394295E+01 
    1.0414000355249351E+01 
    8.2939946302646934E+00 
    1.5186877874356208E+01 
    1.5950372811913645E+01 
    6.0462566589538813E+00 
    1.1342790402279588E+01 
    8.7253832144277670E+00 
    7.4535895601961206E+00 
    1.4915368917175625E+01 
    1.5235106628538235E+01 
    1.5154147320897311E+01 
    9.9701507282318289E+00 
    5.9478116303566884E+00 
    9.5832236120135903E+00 
    7.9322181732344976E+00 
    1.4528458545766741E+01 
    1.0779173367751099E+01 
    1.0674794595170278E+01 
    1.5084901612923341E+01 
    1.0130685364624984E+01 
    3.9665417161721822E-01 
    1.4915748659228173E+01 
    1.5200423146096465E+01 
    1.5982700373960030E+01 
    7.1726231387020265E+00 
    1.4830958411261740E+01 
    1.5975166548652050E+01 
    1.0864986265907365E+01 
    1.0990623601251563E+01 
    7.7681012786797670E+00 
    1.0755977149955212E+01 
    3.4936564034122268E+00 
    9.5889156698059210E+00 
    1.0743682977153519E+01 
    1.6016158903716118E+01 
    1.5926227881284911E+01 
    1.4928851918314054E+01 
    8.2508893036901583E+00 
    1.4892519225923005E+01 
    8.2463921361193548E-01 
    1.0672569124240811E+01 
    1.5735925060267478E+01 
    1.5544349040763638E+01 
    1.4904091716823521E+01 
    1.1747843414205118E+01 
    1.4974657466200117E+01 
    9.8019307284398032E+00 
    9.3429826195280974E+00 
    1.0956084419838028E+01 
    1.0560712654610215E+01 
    9.6400123820509549E+00 
    1.0935017903656671E+01 
    1.4304603102844716E+01 
    1.2771796330425159E+01 
    8.3384751005295179E+00 
    1.5089784218056234E+01 
    1.5007357362228618E+01 
    1.0392546568847777E+01 
    1.0386997682108765E+01 
    1.0310692221930658E+01 
    1.5873564142310711E+01 
    1.6139179530787160E+01 
    9.5948659622384014E+00 
    1.0954890697228208E+01 
    1.4778424142688154E+01 
    1.2635308537828511E+01 
    1.0437208640294900E+01 
    1.6146896692375627E+01 
    1.5037238325192003E+01 
    9.4615648325264399E+00 
    1.5655543957562646E+01 
    1.1173105308480089E+01 
    1.4760899678363087E+01 
    1.6027276710467106E+01 
    1.1245626662891178E+01 
    6.9705310825636495E+00 
    1.0973120236134490E+01 
    1.5935795730646957E+01 
    1.6176606879888961E+01 
    9.6104841509758376E+00 
    1.0893980528918384E+01 
    1.6223996455593539E+01 
    1.0744758069501721E+01 
    1.0222124413137248E+01 
    1.3089986499858197E+01 
    6.6205450047043293E+00 
    9.3670658973818899E+00 
    1.0892593235620412E+01 
    1.1509755256419842E+01 
    1.7729587530711296E+01 
    8.0625639271735565E+00 
    1.0962802184598839E+01 
    1.4880687530498228E+01 
    1.5183586947168429E+01 
    7.1128308058280263E+00 
    1.0612198943896297E+01 
    1.0923972850085335E+01 
    1.5205336328948325E+01 
    1.0920730515448124E+01 
    1.5132799139604122E+01 
    4.3273779618789767E+00 
    7.2481664960832521E+00 
    1.1182261584262809E+01 
    1.5336879512069702E+01 
    9.5521095723041025E+00 
    1.0159446411183758E+01 
    1.0902381497160873E+01 
    1.0186254054869424E+01 
    1.2338864797233970E+01 
    9.8867187492594386E+00 
    9.4703877516675767E+00 
    7.5452393948488492E+00 
    1.2860973915485184E+01 
    1.0993779077437056E+01 
    1.5781694916954455E+01 
    9.4598614631441489E+00 
    1.0393592227266408E+01 
    1.5024864545090033E+01 
    8.6936721701070798E+00 
    1.5494522385576268E+01 
    1.0819669449339628E+01 
    1.0319828787712312E+01 
    1.5185861972995712E+01 
    1.0985471155761473E+01 
    1.6040008313590860E+01 
    1.3105987466081247E+01 
    1.4138262364877265E+01 
    1.6000079080712425E+01 
    8.0787099475276918E+00 
    1.1208825380654332E+01 
    1.5185077484866955E+01 
    3.2383382981362474E+00 
    1.0913159393255796E+01 
    1.5965112362321852E+01 
    1.0349612288696054E+01 
    1.1952477887389614E+01 
    7.1180492336394376E+00 
    1.4878394720137113E+01 
    1.8230461500160530E+01 
    1.3614965307258863E+01 
    1.0349476669409414E+01 
    9.2612235736847275E+00 
    1.1585703960753998E+01 
    1.0836524168796512E+01 
    7.5322500561855863E+00 
    1.5995830970154447E+01 
    1.5238049528132606E+01 
    1.4882450660168502E+01 
    1.1531209100421117E+01 
    9.4319382123553765E+00 
    1.0672451495259534E+01 
    1.5685786914130141E+01 
    9.7001895696766365E+00 
    1.0848393017899067E+01 
    9.8767726608901594E+00 
    1.2582218267536248E+01 
    1.8218414794740262E+01 
    1.4873563792608897E+01 
    9.4226698414423442E+00 
    1.5388733681903515E+01 
    1.5294413999008981E+01 
    1.5377965943391104E+01 
    1.6429333898246004E+01 
    1.6989057485412225E+01 
    1.5541095902872978E+01 
    1.0946646448786037E+01 
    1.1800222089889029E+01 
    1.5361583811203348E+01 
    1.5794629363886987E+01 
    7.8602341676946050E+00 
    1.4903707674579579E+01 
    1.5646515165078892E+01 
    7.6541085415166981E+00 
    1.6348106615071487E+01 
    1.6324698042188608E+01 
    1.4602574369784863E+01 
    1.1290955531258641E+01 
    2.8502548620704027E+00 
    1.5966086895652264E+01 
    1.1120236741138612E+01 
    1.6090865687185598E+01 
    1.0275658004657316E+01 
    1.5793593744827461E+01 
    1.0154986188825519E+00 
    1.4154690405228253E+01 
    1.0433017221736691E+01 
    9.3867234209248824E+00 
    9.1499383148157012E+00 
    1.0788929649580544E+01 
    1.1958951798166661E+01 
    1.1280717934046457E+01 
    7.6805866403954051E+00 
    1.5788682222656050E+01 
    1.5209787601055563E+01 
    1.2767956746678024E+01 
    1.1174985592965763E+01 
    1.6516883229921855E+00 
    8.4477228226286201E+00 
    5.8931175146699220E+00 
    1.5985902574464005E+01 
    1.2073532913656434E+01 
    1.5254544534442793E+01 
    1.5279588799075825E+01 
    9.7831405671108804E+00 
    1.2671981478016189E+01 
    1.4877581811278381E+01 
    1.6306456047393663E+01 
    7.0656972763434913E+00 
    1.3459541689737090E+01 
    1.1292261152373246E+01 
    6.2895093548693666E+00 
    9.7760116300265416E+00 
    1.3331595283383304E+01 
    1.5239362511402158E+01 
    1.0841854145283582E+01 
    1.5354982411735868E+01 
    1.5109367323023056E+01 
    1.5055505708032541E+01 
    1.0678070946718323E+01 
    9.3169204177316054E+00 
    1.4890663894746544E+01 
    9.4558350276455396E+00 
    1.0926816549463410E+01 
    9.2701633839871533E+00 
    1.0794434263354404E+01 
    1.5289093598702028E+01 
    6.8185092370132434E+00 
    9.6784108133086946E+00 
    1.5897502137064405E+01 
    1.0688952180212516E+01 
    1.1971790520236789E+01 
    6.9954176346513979E+00 
    9.5238913556051958E+00 
    1.5086310574935434E+01 
    1.5413251362164781E+01 
    5.7097887705709445E+00 
    1.0696810135768160E+01 
    9.3229578288449435E+00 
    1.6747407686187870E+01 
    1.6185023799345338E+01 
    1.7017842206340941E+01 
    1.0716858432976736E+01 
    1.5260936931486267E+01 
    1.4830894218011636E+01 
    1.0583419203210076E+01 
    1.4882895866001968E+01 
    1.1175456099621577E+01 
    6.3853878302174163E+00 
    1.0990874741498960E+01 
    1.5881812639700676E+01 
    1.4879512479169561E+01 
    7.4164211752440590E+00 
    1.4911138252507055E+01 
    1.1977949727171463E+01 
    1.0892414011891553E+01 
    1.0426856311033955E+01 
    1.4736963879885741E+01 
    1.1425995432617654E+01 
    1.4896462585393250E+01 
    1.0602423065159734E+01 
    6.6302382614815754E+00 
    1.0999293677284665E+01 
    9.1618667262701727E+00 
    1.3620486848969271E+01 
    1.6090638124287437E+01 
    1.4888820396616650E+01 
    1.5958533418981597E+01 
    1.0634599626855408E+01 
    7.2229062077007224E+00 
    7.3245335092574466E+00 
    1.1082950791815254E+01 
    1.0901508377944371E+01 
    1.5792444018848204E+00 
    1.4355277174936692E+01 
    1.6459462966604193E+01 
    1.0290900553393719E+01 
    6.6375871049215336E+00 
    1.2531923228276030E+01 
    1.4909544601455799E+01 
    7.8209258390905410E+00 
    5.3205127459078048E+00 
    1.0881172686938973E+01 
    1.4989558165012063E+01 
    1.5688456879525402E+01 
    1.5570432042853442E+01 
    1.5416641794294080E+01 
    7.6744126761444491E+00 
    1.0886967925776030E+01 
    1.4405662180346980E+01 
    8.5664636548201205E+00 
    1.5221355688057486E+01 
    1.2939463769800842E+01 
    7.4345038067035079E+00 
    1.5021541465898713E+01 
    1.5995855834717586E+01 
    1.5045982330502877E+01 
    7.5311201992042056E+00 
    1.0951050591667531E+01 
    8.2668654720652253E+00 
    1.0344415159013641E+01 
    1.4900458832233362E+01 
    1.4887809298893657E+01 
    7.5745670508407263E+00 
    1.5835378268749766E+01 
    1.1510930486901382E+01 
    1.4921079709436153E+01 
    1.5801911448039901E+01 
    1.4908232548310606E+01 
    1.3878244999571049E+01 
    1.6805284861784877E+01 
    1.0240659519557051E+01 
    1.5926184930288239E+01 
    1.4949080331905085E+01 
    1.6002447816326924E+01 
    1.5828153386988964E+01 
    1.0347125108347900E+01 
    1.0783936593366594E+01 
    1.0281007538422434E+01 
    1.3338394254387733E+01 
    4.3430832771937924E+00 
    1.1016764522825115E+01 
    1.6934889263142590E+01 
    1.1178300084593319E+01 
    1.1378270380736948E+01 
    1.5974339797640416E+01 
    1.6214606437352316E+01 
    1.0158272772888294E+01 
    1.4915790899491647E+01 
    1.4883602825966653E+01 
    1.1364969067946657E+01 
    1.5780964419860567E+01 
    7.8076127814847593E+00 
    4.9786229526531001E+00 
    1.1666099438473976E+01 
    1.1193122365679248E+01 
    1.4889918965872921E+01 
    7.0905121257501191E+00 
    1.5482067035699329E+01 
    5.0663001608798810E+00 
    1.1126311983794373E+01 
    1.0373291087532857E+01 
    1.0927876738949738E+01 
    1.8270382101943081E+01 
    4.2145904148517319E+00 
    1.0931125140694226E+01 
    1.3077186764483868E+01 
    1.0532536408178698E+01 
    8.4066610669351451E+00 
    1.5602018986103928E+01 
    1.7818814713982409E+01 
    1.5760021507313471E+01 
    1.0868313281533846E+01 
    6.2487281294031076E+00 
    1.7668176852638350E+01 
    1.5198948587425278E+01 
    8.0915680125243910E+00 
    1.0507832411506589E+01 
    1.6412314054778133E+01 
    3.5881837079861643E+00 
    1.1246993012808412E+01 
    1.5727356578340038E+01 
    1.0941861593440226E+01 
    9.5487358045128126E+00 
    1.0972447162084963E+01 
    1.4626418863743416E+01 
    1.0923500409905266E+01 
    5.5566324677180168E+00 
    9.8927318265803421E-01 
    8.1827655813099174E+00 
    1.6641614707470620E+01 
    1.0280475677306432E+01 
    1.2274760435187996E+01 
    1.1737202841293179E+01 
    1.3640725757664173E+01 
    1.0955216292427650E+01 
    1.5102611587960045E+01 
    1.8284923479444334E+01 
    1.2992573253930006E+01 
    1.5897266047362276E+01 
    5.9008735133625811E-01 
    1.4889969857375029E+01 
    6.1853734834926817E+00 
    1.7108542427670301E+01 
    1.0945268254711966E+01 
    9.7191134408701298E+00 
    8.4296917552353285E+00 
    5.8241959037949478E+00 
    1.2244744409826421E+01 
    8.6661689191452034E+00 
    1.3506465167279609E+01 
    2.3935690541155612E+00 
    1.2015609908491770E+01 
    1.4817382083320746E+01 
    6.6536411592218689E+00 
    1.5397744202195387E+01 
    1.6900843390791518E+01 
    1.5225598111397131E+01 
    1.0803742536952393E+01 
    1.0922319489399078E+01 
    1.0937739398139927E+01 
    6.3131138475810111E+00 
    9.9945205458421871E+00 
    9.8264115842635515E+00 
    1.0926309341123661E+01 
    1.0206572141121034E+01 
    7.4841439356914286E-01 
    7.1231478471454137E+00 
    1.0631995424952509E+01 
    1.0899987829797814E+01 
    1.3881455869770470E+01 
    2.3603381469607068E+00 
    1.1321915858230058E+01 
    1.1198766604996646E+01 
    4.0577857848031442E+00 
    1.5078955496297850E+01 
    9.4775523601802121E+00 
    1.1056161253036853E+01 
    1.5196040975959217E+01 
    5.8517029366165287E+00 
    1.5206020486892070E+01 
    9.6014660282707336E+00 
    1.0803231542705090E+00 
    1.0346868264046687E+01 
    1.5848448758497758E+01 
    1.4889766996090103E+01 
    1.4909122117778915E+01 
    1.1293970906398977E+01 
    1.1129087934326805E+01 
    9.4544991545569737E+00 
    7.7351592118670744E+00 
    1.5313128395287436E+01 
    1.0503902472996220E+01 
    7.5273170277438011E+00 
    1.4904695712232844E+01 
    1.5640654797861284E+01 
    1.1107688544370724E+01 
    1.0735911800573287E+01 
    1.8161357096101039E+01 
    1.1365926655360328E+01 
    1.5329939597456217E+01 
    8.9906744063478126E+00 
    1.8313694351953959E+01 
    7.2819671503107273E+00 
    9.8886955006812727E+00 
    8.1537383574245457E+00 
    1.1612473875265723E+01 
    9.3330511496572175E+00 
    1.8296954856871366E+01 
    1.1417176438252232E+01 
    1.4567928527629572E+01 
    7.4887737619837216E+00 
    1.0951052217435736E+01 
    1.5163054555927383E+01 
    9.3703525164059176E+00 
    8.0088004923107068E+00 
    1.2167108827382798E+01 
    1.5398806822987414E+01 
    8.0251759608535931E+00 
    1.0395484516540181E+01 
    1.0767929939354564E+01 
    1.4863621634383954E+01 
    1.0558398151734787E+01 
    1.5375598841559171E+01 
    1.6032682372005468E+01 
    9.4836173243171054E+00 
    9.2959271225952715E+00 
    8.6923009270217975E+00 
    1.5013889820514549E+01 
    1.1215522029641477E+01 
    1.7859089838723285E+01 
    1.4020448468039385E+01 
    1.5119955401134266E+01 
    1.7538003896735667E+01 
    1.6908451786303274E+01 
    1.0997334978517129E+01 
    1.0910436001077162E+01 
    1.4634990951229653E+01 
    1.4930557037973033E+01 
    1.5496739539321588E+01 
    1.5220754152102845E+01 
    1.8183440677263910E+01 
    1.1365425286824641E+01 
    9.5932966995115301E+00 
    1.1358021771966060E+01 
    1.5941790671902654E+01 
    1.1093065566699918E+01 
    6.5001373830220270E+00 
    1.0786816483500568E+01 
    1.6378181255162616E+01 
    1.1236804548566719E+01 
    9.6046018380017522E+00 
    1.0709237139210925E+01 
    1.6493802130542498E+01 
    1.4952939692193025E+01 
    9.1390351380949681E+00 
    1.6635945651073015E+01 
    1.1026093676704461E+01 
    1.5485511610394418E+01 
    1.6507815404712051E+01 
    1.1604646874243054E+01 
    5.8588512947930536E+00 
    1.2090358970643976E+01 
    6.0662582454361393E+00 
    1.1143469246145163E+01 
    1.0944517563582153E+01 
    1.2744163767289203E+01 
    6.4143214961264272E+00 
    1.3530768113255892E+01 
    1.0963244537625803E+01 
    1.5210256972063908E+01 
    1.1636938361454716E+01 
    8.9726446443421306E+00 
    1.0577965279613844E+01 
    1.1457060331763492E+01 
    1.1476675851579870E+01 
    1.6079513793644132E+01 
    9.1639959469929089E+00 
    9.0078314458689057E+00 
    6.7460912419860790E+00 
    1.5520499220066043E+01 
    1.0621115830101592E+01 
    1.4731143246199530E+01 
    1.0914595066056528E+01 
    7.3756870985099416E+00 
    1.4983831924877473E+01 
    1.0890569315285266E+01 
    8.0320986257235596E+00 
    8.5007502448464596E+00 
    8.7976687823228445E+00 
    1.5242685096046845E+01 
    1.0928386931416629E+01 
    1.5909766051591166E+01 
    1.0850130182222307E+01 
    1.0788996421088793E+01 
    1.0310117980504321E+01 
    1.5072361025771031E+01 
    1.0705382529319287E+01 
    8.8393089137500578E+00 
    1.6896499290258745E+01 
    1.5158425551581940E+01 
    7.6275566015923326E+00 
    2.9751144686167339E+00 
    1.0917513020113864E+01 
    1.0282944847648881E+01 
    9.2851012707818459E+00 
    1.0101823650081462E+01 
    1.5108138179838733E+01 
    1.0610750849498196E+01 
    9.6506331344670215E+00 
    1.4953809168741447E+01 
    7.5606939806704148E+00 
    1.4592785338779588E+01 
    9.9269902664325596E+00 
    8.8148069038875061E+00 
    9.3752001240994307E+00 
    1.5574825261218793E+01 
    1.0930663189186106E+01 
    1.0938862090741049E+01 
    6.4934646758954901E+00 
    7.0163089688652445E+00 
    1.3865644617485353E+01 
    1.0948674353171867E+01 
    1.0959083295099697E+01 
    1.6621300025831708E+01 
    9.0123904652923024E+00 
    1.0960946183848348E+01 
    7.8190085723574123E+00 
    8.0657877803304423E+00 
    1.5065124821922838E+01 
    1.0587673800254896E+01 
    7.7319110122365853E+00 
    1.1528298045684643E+01 
    1.0840868843989211E+01 
    1.5068421287980529E+01 
    1.6717967147288103E+01 
    1.1319846704377630E+00 
    1.0922624792188344E+01 
    1.1191268352829075E+01 
    1.5136811538575834E+01 
    1.0423475730082069E+01 
    1.0904003361465463E+01 
    1.6135976292614114E+01 
    9.4144367629585890E+00 
    7.8014866418558340E+00 
    1.3174774751877861E+01 
    1.4904463924461155E+01 
    1.6000696503080789E+01 
    1.6281210765645707E+01 
    1.0757963893474003E+01 
    1.0913677560186995E+01 
    1.2303998160398873E+01 
    7.2501945123455025E+00 
    1.5042201640047603E+01 
    8.4007297001007384E+00 
    7.5485361636516686E+00 
    1.3719249845526868E+01 
    1.2925391692192825E+01 
    7.4036601162199398E+00 
    1.4942315600831053E+01 
    1.5986153263472417E+01 
    1.1382275770984757E+01 
    1.6823785861719070E+01 
    1.4977911996170226E+01 
    1.0485583329173950E+01 
    1.5710056396599196E+01 
    8.0687828581522325E+00 
    1.4924534331648498E+01 
    1.0921465714879485E+01 
    1.0881914241767575E+01 
    1.6799323413299007E+01 
    1.0657954577175373E+01 
    1.3445280650338423E+01 
    9.3591830083604819E+00 
    1.6109935417856121E+01 
    1.4824234838686795E+01 
    9.7605682004248564E+00 
    1.4878198880261840E+01 
    9.9555291195749724E+00 
    1.0912397715476867E+01 
    1.5943560488710828E+01 
    1.5216998308382488E+01 
    1.5989428048977292E+01 
    1.5140352382706840E+01 
    1.0000420518314227E+01 
    1.0228145432536881E+01 
    1.5996845757950096E+01 
    1.0361329964865233E+01 
    1.4747729846860800E+01 
    1.0644993993574619E+01 
    4.3718311602511379E+00 
    7.6264332989001833E+00 
    7.0661934184550841E+00 
    1.5947426957360261E+01 
    1.6725022616328562E+01 
    1.4897491088744312E+01 
    1.2573878855556256E+01 
    1.5206361116906338E+01 
    1.4951305359954610E+01 
    1.5575807854138883E+01 
    6.2769026914339143E+00 
    4.0740908969190999E+00 
    1.2347805053044544E+01 
    1.0590113947706900E+01 
    1.5110175933311650E+01 
    1.5107497069168517E+01 
    1.1219785780713897E+01 
    1.5147349219114497E+01 
    1.0907752314328642E+01 
    1.0832784030674436E+01 
    5.6645290212389252E+00 
    4.0616231385668957E+00 
    1.6490287752610154E+01 
    8.5654364392672662E+00 
    9.7003718925959692E+00 
    1.1105507462003414E+01 
    1.8163550516279056E+01 
    1.1201236412892852E+01 
    1.1259283098141355E+01 
    4.6251526279549751E+00 
    1.1202719219683551E+01 
    1.1218834824973300E+01 
    1.5440184667347726E+01 
    9.3820560512136009E+00 
    1.0477326431969084E+01 
    1.6666186433726310E+01 
    1.0931297006807483E+01 
    1.4914362692988314E+01 
    1.5177220334266972E+01 
    1.3409369119834464E+01 
    9.3063175632718114E+00 
    1.5139982423456827E+01 
    1.0721975572616048E+01 
    1.5097269934079968E+01 
    1.4848965289264379E+01 
    1.5967612383310774E+01 
    1.5137834325100259E+01 
    1.4195685941355853E+01 
    1.0919451291494974E+01 
    7.3471572086617103E+00 
    1.8033421536078393E+01 
    8.5705185495419851E+00 
    1.5891545835048559E+01 
    1.0916792566688992E+01 
    9.0594418258627947E+00 
    5.4422999501447844E+00 
    1.1260149427426557E+01 
    1.5125832465417828E+01 
    1.5122093380381294E+01 
    1.0892955179817237E+01 
    1.0910813213118740E+01 
    1.6880875594261383E+01 
    1.6221701502711305E+01 
    1.1221037369922570E+01 
    3.7892984625110380E+00 
    1.4118936416063793E+01 
    1.8294085545147801E+01 
    1.0922845639870673E+01 
    1.2979372111367871E+01 
    1.0422436114446960E+01 
    1.7885757851877145E+01 
    1.6305656666860855E+01 
    1.6032441804442289E+01 
    1.1244135954419733E+01 
    5.0647784906337536E+00 
    1.0377505956272714E+01 
    1.0447842143892371E+01 
    1.0488870600138968E+01 
    4.1288710062929592E+00 