# vtk DataFile Version 2.0
Pressure Field Data 
ASCII 
DATASET UNSTRUCTURED_GRID 

POINTS 2860 double 

    0.0000000000000000E+00     0.0000000000000000E+00     0.0000000000000000E+00 
    1.0000000000000000E+00     0.0000000000000000E+00     0.0000000000000000E+00 
    1.0000000000000000E+00     1.0000000000000000E+00     0.0000000000000000E+00 
    0.0000000000000000E+00     1.0000000000000000E+00     0.0000000000000000E+00 
    2.5000000000000000E-01     2.5000000000000000E-01     0.0000000000000000E+00 
    7.5000000000000000E-01     2.5000000000000000E-01     0.0000000000000000E+00 
    7.5000000000000000E-01     7.5000000000000000E-01     0.0000000000000000E+00 
    2.5000000000000000E-01     7.5000000000000000E-01     0.0000000000000000E+00 
    3.1249999999942091E-02     0.0000000000000000E+00     0.0000000000000000E+00 
    6.2499999999873469E-02     0.0000000000000000E+00     0.0000000000000000E+00 
    9.3749999999826514E-02     0.0000000000000000E+00     0.0000000000000000E+00 
    1.2499999999977961E-01     0.0000000000000000E+00     0.0000000000000000E+00 
    1.5624999999968961E-01     0.0000000000000000E+00     0.0000000000000000E+00 
    1.8749999999959971E-01     0.0000000000000000E+00     0.0000000000000000E+00 
    2.1874999999950970E-01     0.0000000000000000E+00     0.0000000000000000E+00 
    2.4999999999941969E-01     0.0000000000000000E+00     0.0000000000000000E+00 
    2.8124999999932920E-01     0.0000000000000000E+00     0.0000000000000000E+00 
    3.1249999999923850E-01     0.0000000000000000E+00     0.0000000000000000E+00 
    3.4374999999914790E-01     0.0000000000000000E+00     0.0000000000000000E+00 
    3.7499999999905720E-01     0.0000000000000000E+00     0.0000000000000000E+00 
    4.0624999999896660E-01     0.0000000000000000E+00     0.0000000000000000E+00 
    4.3749999999887590E-01     0.0000000000000000E+00     0.0000000000000000E+00 
    4.6874999999878530E-01     0.0000000000000000E+00     0.0000000000000000E+00 
    4.9999999999869471E-01     0.0000000000000000E+00     0.0000000000000000E+00 
    5.3124999999877620E-01     0.0000000000000000E+00     0.0000000000000000E+00 
    5.6249999999885780E-01     0.0000000000000000E+00     0.0000000000000000E+00 
    5.9374999999893940E-01     0.0000000000000000E+00     0.0000000000000000E+00 
    6.2499999999902101E-01     0.0000000000000000E+00     0.0000000000000000E+00 
    6.5624999999910261E-01     0.0000000000000000E+00     0.0000000000000000E+00 
    6.8749999999918421E-01     0.0000000000000000E+00     0.0000000000000000E+00 
    7.1874999999926570E-01     0.0000000000000000E+00     0.0000000000000000E+00 
    7.4999999999934730E-01     0.0000000000000000E+00     0.0000000000000000E+00 
    7.8124999999942890E-01     0.0000000000000000E+00     0.0000000000000000E+00 
    8.1249999999951039E-01     0.0000000000000000E+00     0.0000000000000000E+00 
    8.4374999999959199E-01     0.0000000000000000E+00     0.0000000000000000E+00 
    8.7499999999967359E-01     0.0000000000000000E+00     0.0000000000000000E+00 
    9.0624999999975520E-01     0.0000000000000000E+00     0.0000000000000000E+00 
    9.3749999999983680E-01     0.0000000000000000E+00     0.0000000000000000E+00 
    9.6874999999991840E-01     0.0000000000000000E+00     0.0000000000000000E+00 
    1.0000000000000000E+00     3.1249999999942091E-02     0.0000000000000000E+00 
    1.0000000000000000E+00     6.2499999999873469E-02     0.0000000000000000E+00 
    1.0000000000000000E+00     9.3749999999826514E-02     0.0000000000000000E+00 
    1.0000000000000000E+00     1.2499999999977961E-01     0.0000000000000000E+00 
    1.0000000000000000E+00     1.5624999999968961E-01     0.0000000000000000E+00 
    1.0000000000000000E+00     1.8749999999959971E-01     0.0000000000000000E+00 
    1.0000000000000000E+00     2.1874999999950970E-01     0.0000000000000000E+00 
    1.0000000000000000E+00     2.4999999999941969E-01     0.0000000000000000E+00 
    1.0000000000000000E+00     2.8124999999932920E-01     0.0000000000000000E+00 
    1.0000000000000000E+00     3.1249999999923850E-01     0.0000000000000000E+00 
    1.0000000000000000E+00     3.4374999999914790E-01     0.0000000000000000E+00 
    1.0000000000000000E+00     3.7499999999905720E-01     0.0000000000000000E+00 
    1.0000000000000000E+00     4.0624999999896660E-01     0.0000000000000000E+00 
    1.0000000000000000E+00     4.3749999999887590E-01     0.0000000000000000E+00 
    1.0000000000000000E+00     4.6874999999878530E-01     0.0000000000000000E+00 
    1.0000000000000000E+00     4.9999999999869471E-01     0.0000000000000000E+00 
    1.0000000000000000E+00     5.3124999999877620E-01     0.0000000000000000E+00 
    1.0000000000000000E+00     5.6249999999885780E-01     0.0000000000000000E+00 
    1.0000000000000000E+00     5.9374999999893940E-01     0.0000000000000000E+00 
    1.0000000000000000E+00     6.2499999999902101E-01     0.0000000000000000E+00 
    1.0000000000000000E+00     6.5624999999910261E-01     0.0000000000000000E+00 
    1.0000000000000000E+00     6.8749999999918421E-01     0.0000000000000000E+00 
    1.0000000000000000E+00     7.1874999999926570E-01     0.0000000000000000E+00 
    1.0000000000000000E+00     7.4999999999934730E-01     0.0000000000000000E+00 
    1.0000000000000000E+00     7.8124999999942890E-01     0.0000000000000000E+00 
    1.0000000000000000E+00     8.1249999999951039E-01     0.0000000000000000E+00 
    1.0000000000000000E+00     8.4374999999959199E-01     0.0000000000000000E+00 
    1.0000000000000000E+00     8.7499999999967359E-01     0.0000000000000000E+00 
    1.0000000000000000E+00     9.0624999999975520E-01     0.0000000000000000E+00 
    1.0000000000000000E+00     9.3749999999983680E-01     0.0000000000000000E+00 
    1.0000000000000000E+00     9.6874999999991840E-01     0.0000000000000000E+00 
    9.6875000000003686E-01     1.0000000000000000E+00     0.0000000000000000E+00 
    9.3750000000011691E-01     1.0000000000000000E+00     0.0000000000000000E+00 
    9.0625000000015765E-01     1.0000000000000000E+00     0.0000000000000000E+00 
    8.7500000000017863E-01     1.0000000000000000E+00     0.0000000000000000E+00 
    8.4375000000028044E-01     1.0000000000000000E+00     0.0000000000000000E+00 
    8.1250000000040856E-01     1.0000000000000000E+00     0.0000000000000000E+00 
    7.8125000000054956E-01     1.0000000000000000E+00     0.0000000000000000E+00 
    7.5000000000066480E-01     1.0000000000000000E+00     0.0000000000000000E+00 
    7.1875000000086831E-01     1.0000000000000000E+00     0.0000000000000000E+00 
    6.8750000000102829E-01     1.0000000000000000E+00     0.0000000000000000E+00 
    6.5625000000114431E-01     1.0000000000000000E+00     0.0000000000000000E+00 
    6.2500000000129829E-01     1.0000000000000000E+00     0.0000000000000000E+00 
    5.9375000000147926E-01     1.0000000000000000E+00     0.0000000000000000E+00 
    5.6250000000168354E-01     1.0000000000000000E+00     0.0000000000000000E+00 
    5.3125000000188671E-01     1.0000000000000000E+00     0.0000000000000000E+00 
    5.0000000000205835E-01     1.0000000000000000E+00     0.0000000000000000E+00 
    4.6875000000192979E-01     1.0000000000000000E+00     0.0000000000000000E+00 
    4.3750000000180111E-01     1.0000000000000000E+00     0.0000000000000000E+00 
    4.0625000000167238E-01     1.0000000000000000E+00     0.0000000000000000E+00 
    3.7500000000154382E-01     1.0000000000000000E+00     0.0000000000000000E+00 
    3.4375000000141509E-01     1.0000000000000000E+00     0.0000000000000000E+00 
    3.1250000000128642E-01     1.0000000000000000E+00     0.0000000000000000E+00 
    2.8125000000115769E-01     1.0000000000000000E+00     0.0000000000000000E+00 
    2.5000000000102918E-01     1.0000000000000000E+00     0.0000000000000000E+00 
    2.1875000000090050E-01     1.0000000000000000E+00     0.0000000000000000E+00 
    1.8750000000077180E-01     1.0000000000000000E+00     0.0000000000000000E+00 
    1.5625000000064329E-01     1.0000000000000000E+00     0.0000000000000000E+00 
    1.2500000000051459E-01     1.0000000000000000E+00     0.0000000000000000E+00 
    9.3750000000385914E-02     1.0000000000000000E+00     0.0000000000000000E+00 
    6.2500000000257239E-02     1.0000000000000000E+00     0.0000000000000000E+00 
    3.1250000000128557E-02     1.0000000000000000E+00     0.0000000000000000E+00 
    0.0000000000000000E+00     9.6875000000003686E-01     0.0000000000000000E+00 
    0.0000000000000000E+00     9.3750000000011691E-01     0.0000000000000000E+00 
    0.0000000000000000E+00     9.0625000000015765E-01     0.0000000000000000E+00 
    0.0000000000000000E+00     8.7500000000017863E-01     0.0000000000000000E+00 
    0.0000000000000000E+00     8.4375000000028044E-01     0.0000000000000000E+00 
    0.0000000000000000E+00     8.1250000000040856E-01     0.0000000000000000E+00 
    0.0000000000000000E+00     7.8125000000054956E-01     0.0000000000000000E+00 
    0.0000000000000000E+00     7.5000000000066480E-01     0.0000000000000000E+00 
    0.0000000000000000E+00     7.1875000000086831E-01     0.0000000000000000E+00 
    0.0000000000000000E+00     6.8750000000102829E-01     0.0000000000000000E+00 
    0.0000000000000000E+00     6.5625000000114431E-01     0.0000000000000000E+00 
    0.0000000000000000E+00     6.2500000000129829E-01     0.0000000000000000E+00 
    0.0000000000000000E+00     5.9375000000147926E-01     0.0000000000000000E+00 
    0.0000000000000000E+00     5.6250000000168354E-01     0.0000000000000000E+00 
    0.0000000000000000E+00     5.3125000000188671E-01     0.0000000000000000E+00 
    0.0000000000000000E+00     5.0000000000205835E-01     0.0000000000000000E+00 
    0.0000000000000000E+00     4.6875000000192979E-01     0.0000000000000000E+00 
    0.0000000000000000E+00     4.3750000000180111E-01     0.0000000000000000E+00 
    0.0000000000000000E+00     4.0625000000167238E-01     0.0000000000000000E+00 
[...]
CELL_DATA 2795 
SCALARS Pressure double 1 
LOOKUP_TABLE default 

    5.4597716109339602E+00 
    1.2538234596542100E+01 
    8.8975346078365636E+00 
    8.4917714565096993E+00 
    6.7309763624430454E+00 
    1.2432698869924954E+01 
    1.3075418216876711E+01 
    4.8698278666653003E+00 
    9.4088978878928184E+00 
    7.1888138552470311E+00 
    6.1203078635928385E+00 
    1.2209447224762831E+01 
    1.2449159330549957E+01 
    1.2405469361024927E+01 
    8.2009023035900199E+00 
    4.7876779185058327E+00 
    7.8035421171239419E+00 
    6.5230998606496389E+00 
    1.1895926629507732E+01 
    8.8947008258986475E+00 
    8.7768802521892741E+00 
    1.2348617476446249E+01 
    8.2551691260977975E+00 
    3.2053666948628756E-01 
    1.2184582072739317E+01 
    1.2428171255343674E+01 
    1.3104094727172496E+01 
    5.8825517402896805E+00 
    1.2140296806215241E+01 
    1.3101357093711094E+01 
    8.9458649457309587E+00 
    9.1358855043087761E+00 
    6.3552526767201982E+00 
    8.8567505575805274E+00 
    2.8211398243887107E+00 
    7.8082559608162772E+00 
    8.8488979603871716E+00 
    1.3138086563293756E+01 
    1.3055469838840500E+01 
    1.2220661850190943E+01 
    6.6666463884640450E+00 
    1.2166091783774931E+01 
    6.6789957244993259E-01 
    8.7128065488828508E+00 
    1.2882496679139097E+01 
    1.2735274220248337E+01 
    1.2200143382224896E+01 
    9.7306699497413458E+00 
    1.2263207596382568E+01 
    7.9878667947596229E+00 
    7.6024180166197262E+00 
    9.1015886941419559E+00 
    8.6094537883120434E+00 
    7.8498999569561603E+00 
    9.0185618073708813E+00 
    1.1714438156747951E+01 
    1.0605653673830840E+01 
    6.7678947388147064E+00 
    1.2352101223623791E+01 
    1.2285292644419627E+01 
    8.5180813723285933E+00 
    8.5445729697385300E+00 
    8.4046992038197548E+00 
    1.3012780156113324E+01 
    1.3237874566882422E+01 
    7.8127210100033322E+00 
    9.0999928472370684E+00 
    1.2123270547170973E+01 
    1.0408880537937772E+01 
    8.5817095885826600E+00 
    1.3250152382928515E+01 
    1.2285220903222335E+01 
    7.7014091971813992E+00 
    1.2823638466039998E+01 
    9.2737689884203824E+00 
    1.2055988599717971E+01 
    1.3147307793884394E+01 
    9.1714708327511598E+00 
    5.5599692165778416E+00 
    9.1176013185731755E+00 
    1.3062921074679185E+01 
    1.3280082950539406E+01 
    7.8221199436047364E+00 
    9.0260991308092304E+00 
    1.3317840016017646E+01 
    8.8550930792097482E+00 
    8.3310381563136175E+00 
    1.0763915084085909E+01 
    5.3019248920268165E+00 
    7.6228858159912161E+00 
    9.0285049469505996E+00 
    9.5327252132038058E+00 
    1.4700194906775224E+01 
    6.5383541586292102E+00 
    9.1075142878642978E+00 
    1.2181017954984837E+01 
    1.2405597478735078E+01 
    5.7461198606132928E+00 
    8.7248545321329871E+00 
    9.0568702027627719E+00 
    1.2424122085416169E+01 
    9.0651173766030304E+00 
    1.2363025078543870E+01 
    3.4891840562471916E+00 
    5.9487708065418863E+00 
    9.3117019578977516E+00 
    1.2546376423275909E+01 
    7.7764078407376074E+00 
    8.3213863171655422E+00 
    9.0495484584972328E+00 
    8.3019734103814429E+00 
    1.0310757364044042E+01 
    8.0825297065945758E+00 
    7.7084631050384607E+00 
    6.0411088378279745E+00 
    1.0490236576256400E+01 
    9.1372438519485204E+00 
    1.2933435537329423E+01 
    7.8137924266975833E+00 
    8.4789897531378831E+00 
    1.2276006804333514E+01 
    7.0503174953503525E+00 
    1.2677341472017584E+01 
    8.9417261265621395E+00 
    8.4124661286758204E+00 
    1.2407721442188526E+01 
    9.1299270737941747E+00 
    1.3154768777454656E+01 
    1.0773160615551394E+01 
    1.1585581254206637E+01 
    1.3119311733527125E+01 
    6.5519509839189114E+00 
    9.3276337962153058E+00 
    1.2411765571894973E+01 
    2.6185582426847627E+00 
    8.9962808912546013E+00 
    1.3089036962187695E+01 
    8.4415856704696903E+00 
    9.7458856104425475E+00 
    5.6904090971737658E+00 
    1.2180323254706009E+01 
    1.5174659636353269E+01 
    1.1175416053507394E+01 
    8.4372271927251479E+00 
    7.5341576915163015E+00 
    9.6764626926284745E+00 
    8.9590446570083753E+00 
    6.1863146841742331E+00 
    1.3115406845683850E+01 
    1.2500667638461195E+01 
    1.2182552974353261E+01 
    9.5485101209583725E+00 
    7.6751061865284385E+00 
    8.7758226916234570E+00 
    1.2848329962960367E+01 
    7.8988497226026642E+00 
    8.8517045467699162E+00 
    8.0452080488045645E+00 
    1.0266709114547076E+01 
    1.5163274353926596E+01 
    1.2175025396716538E+01 
    7.6372473398297345E+00 
    1.2580138922921668E+01 
    1.2509213652898532E+01 
    1.2581752351096210E+01 
    1.3502666005439188E+01 
    1.4011629832003974E+01 
    1.2732207991996365E+01 
    9.0920344394352917E+00 
    9.6316048233610303E+00 
    1.2578816925924114E+01 
    1.2942447989219186E+01 
    6.4603952316872508E+00 
    1.2199736719167010E+01 
    1.2814326125080335E+01 
    6.2886656429726315E+00 
    1.3420000509232331E+01 
    1.3410341603826298E+01 
    1.1956675578423544E+01 
    9.3837106850559628E+00 
    2.2910983826949796E+00 
    1.3089251060742486E+01 
    9.2565708652775172E+00 
    1.3201393029417860E+01 
    8.3801935169686121E+00 
    1.2938056374873250E+01 
    8.1501886542826218E-01 
    1.1602671404672474E+01 
    8.5854450577761323E+00 
    7.6395979873479050E+00 
    7.4420348004685790E+00 
    8.9105610294569733E+00 
    9.9938452609639850E+00 
    9.1959281718885748E+00 
    6.1313793327043200E+00 
    1.2938924055736114E+01 
    1.2434725303162098E+01 
    1.0518627966849531E+01 
    9.3040069598591000E+00 
    1.3409056530804282E+00 
    6.8590575975792323E+00 
    4.7299446976860073E+00 
    1.3112173169110497E+01 
    1.0092411967172435E+01 
    1.2488527965357591E+01 
    1.2493764576910785E+01 
    7.9707251004372379E+00 
    1.0532060127292336E+01 
    1.2178466569473001E+01 
    1.3393333267983630E+01 
    5.6717880661592002E+00 
    1.0982578749572106E+01 
    9.2286639680767220E+00 
    5.0443951559645148E+00 
    7.9621426446168186E+00 
    1.0980489773429936E+01 
    1.2459821105611589E+01 
    8.9717408767153959E+00 
    1.2560736421385748E+01 
    1.2347335505534145E+01 
    1.2302288343410675E+01 
    8.7828417978320275E+00 
    7.5927091944973002E+00 
    1.2189738966543121E+01 
    7.6962797151169360E+00 
    9.0679159210026530E+00 
    7.5422895958077074E+00 
    8.8006198212242026E+00 
    1.2501262239652101E+01 
    5.5907235951143921E+00 
    7.8814067667622973E+00 
    1.3031391727719543E+01 
    8.7982297753515066E+00 
    9.9865990292526572E+00 
    5.7375520855868887E+00 
    7.7532516598391696E+00 
    1.2327556596881630E+01 
    1.2611555571073353E+01 
    4.6679964216618384E+00 
    8.8002559613780793E+00 
    7.5781978728339974E+00 
    1.3789178603439472E+01 
    1.3286829864235679E+01 
    1.4036255059562439E+01 
    8.8234617934357864E+00 
    1.2478093741851538E+01 
    1.2141410645628630E+01 
    8.7016831825501697E+00 
    1.2182750908845756E+01 
    9.3036772875536364E+00 
    5.1098256277473038E+00 
    8.9975986215462367E+00 
    1.3020541331505395E+01 
    1.2179931043805464E+01 
    6.0887493793408956E+00 
    1.2205842079380458E+01 
    9.9844238506785725E+00 
    8.9789167527225207E+00 
    8.5178607481276778E+00 
    1.2063857541153189E+01 
    9.5032368935820930E+00 
    1.2194250916919819E+01 
    8.6612945351365749E+00 
    5.3005522340021010E+00 
    9.1337428344450728E+00 
    7.4505201479769649E+00 
    1.1175830179296851E+01 
    1.3198875326345686E+01 
    1.2188829166915072E+01 
    1.3082854023971137E+01 
    8.7482829102874291E+00 
    5.9264507692582287E+00 
    6.0119140541131673E+00 
    9.1792579121002689E+00 
    9.0454415956966958E+00 
    1.2655678621336894E+00 
    1.1759810221279869E+01 
    1.3525843936002934E+01 
    8.3896375009092150E+00 
    5.3262522287622378E+00 
    1.0222576114103147E+01 
    1.2204571434015696E+01 
    6.3347172942507441E+00 
    4.2840831672673660E+00 
    9.0169610290966418E+00 
    1.2291357976150145E+01 
    1.2851942920444515E+01 
    1.2749349963583315E+01 
    1.2615773000856541E+01 
    6.1757087495499920E+00 
    8.9695797698013902E+00 
    1.1762577407660679E+01 
    7.0582806870483994E+00 
    1.2437548270812922E+01 
    1.0730056782245011E+01 
    6.1056319339388798E+00 
    1.2300645820167931E+01 
    1.3107388424655381E+01 
    1.2291412236511364E+01 
    6.0976095829550649E+00 
    9.0961034468075184E+00 
    6.7078463979736052E+00 
    8.5695992298044850E+00 
    1.2197081988692020E+01 
    1.2186737411756301E+01 
    6.1335649843543036E+00 
    1.2974199019894847E+01 
    9.5867420869225679E+00 
    1.2224183365317099E+01 
    1.2947035369179938E+01 
    1.2208382412588183E+01 
    1.1389170917670540E+01 
    1.3837959492485112E+01 
    8.3584531135986175E+00 
    1.3055481057956889E+01 
    1.2248602839311504E+01 
    1.3121070526367383E+01 
    1.2968233819456712E+01 
    8.4487440896294750E+00 
    8.8924664798745461E+00 
    8.3803729179299875E+00 
    1.0963586033048950E+01 
    3.4991188746396991E+00 
    9.1023644383913940E+00 
    1.3958620896687776E+01 
    9.3080221511954839E+00 
    9.4762119028430067E+00 
    1.3096304592772416E+01 
    1.3311352886067644E+01 
    8.3221252772551537E+00 
    1.2209623452741999E+01 
    1.2183619903366175E+01 
    9.4651713572001892E+00 
    1.2927742258548291E+01 
    6.4159368615994898E+00 
    4.0567956849876756E+00 
    9.7177513028564668E+00 
    9.3206635131811186E+00 
    1.2188687384938293E+01 
    5.7303927658988902E+00 
    1.2674669678245648E+01 
    4.1300303105197766E+00 
    9.2609951724851403E+00 
    8.5129465986748922E+00 
    9.0729326966458750E+00 
    1.5213934342276174E+01 
    3.4019805200142064E+00 
    9.0147392462011826E+00 
    1.0668486507226552E+01 
    8.6595063104515866E+00 
    6.7563405902326483E+00 
    1.2781136281206688E+01 
    1.4784173327147696E+01 
    1.2910563449244604E+01 
    8.9572029675612619E+00 
    5.0187618410358459E+00 
    1.4644551976275102E+01 
    1.2423355087965852E+01 
    6.4792445595705486E+00 
    8.5671317755939409E+00 
    1.3487949045766761E+01 
    2.8925365922019743E+00 
    9.3661729848604143E+00 
    1.2878535934932543E+01 
    9.0862546481766664E+00 
    7.8915170225814197E+00 
    9.0575993999437188E+00 
    1.1952957387370063E+01 
    9.0660090967139055E+00 
    4.4708650593377826E+00 
    7.8506165336696598E-01 
    6.7216650706013192E+00 
    1.3687480919409310E+01 
    8.3797329809061676E+00 
    1.0261708456598132E+01 
    9.8215643879987340E+00 
    1.1208985246193228E+01 
    9.0997193212712144E+00 
    1.2340756196259445E+01 
    1.5227898854012279E+01 
    1.0681295158659355E+01 
    1.3030792114830174E+01 
    4.7556302201424072E-01 
    1.2188475199402525E+01 
    4.9498575295770033E+00 
    1.4120285415530743E+01 
    9.0286258738527181E+00 
    7.9968341897309099E+00 
    6.8436193667646732E+00 
    4.6909983581406260E+00 
    1.0111687363358204E+01 
    7.1213628105486713E+00 
    1.1082717705992986E+01 
    1.9124600858921208E+00 
    1.0009977591619991E+01 
    1.2129869456285043E+01 
    5.4499122470459307E+00 
    1.2619302471758997E+01 
    1.3934482992966020E+01 
    1.2484966909766824E+01 
    8.8988852501376723E+00 
    9.0676719231041787E+00 
    9.0212193334034243E+00 
    5.0883590603667619E+00 
    8.1422434467038816E+00 
    8.0030363953249957E+00 
    9.0100802664241257E+00 
    8.3199601620499486E+00 
    5.9930036274204157E-01 
    5.6783912384201942E+00 
    8.6703706978787789E+00 
    8.9858979669686114E+00 
    1.1383104757125539E+01 
    1.9056697454840028E+00 
    9.4290426414274666E+00 
    9.3255316210529529E+00 
    3.2703986068004789E+00 
    1.2371371344501956E+01 
    7.7145601147573304E+00 
    9.1958459798248633E+00 
    1.2418831397578103E+01 
    4.7107296929099363E+00 
    1.2471710638805970E+01 
    7.8169828055390109E+00 
    8.7738749096922397E-01 
    8.4358888987622311E+00 
    1.2986588469148041E+01 
    1.2188585358899113E+01 
    1.2206551220892292E+01 
    9.3969399963140567E+00 
    9.2644607673963115E+00 
    7.6958423540684198E+00 
    6.1659433995514554E+00 
    1.2516663301926418E+01 
    8.5659401193024678E+00 
    6.0238083648590592E+00 
    1.2201340791983229E+01 
    1.2812927938477877E+01 
    9.1996998517435316E+00 
    8.8491974645732281E+00 
    1.5111104972114308E+01 
    9.4658930006608877E+00 
    1.2535775080496196E+01 
    7.3049299690965457E+00 
    1.5256382293255143E+01 
    5.9765533715060268E+00 
    8.0859656985806421E+00 
    6.7068792619081536E+00 
    9.6706128584605082E+00 
    7.6824757687003906E+00 
    1.5240169581635259E+01 
    9.5085574172715432E+00 
    1.1899605496229027E+01 
    6.1497755989120142E+00 
    9.0965191435161952E+00 
    1.2393357631576398E+01 
    7.7084043026916946E+00 
    6.4116022393801169E+00 
    9.9208760014171045E+00 
    1.2609339864196787E+01 
    6.6026638701748199E+00 
    8.5308094552365752E+00 
    8.8758623638756085E+00 
    1.2166852134959505E+01 
    8.6846045217406687E+00 
    1.2580380397445143E+01 
    1.3147714017501569E+01 
    7.7197353861931512E+00 
    7.5616106024298402E+00 
    7.1658822980809092E+00 
    1.2291076398686799E+01 
    9.3249660237548309E+00 
    1.4822658006989368E+01 
    1.1595901654326562E+01 
    1.2355467865139047E+01 
    1.4523079455742050E+01 
    1.3942323470852061E+01 
    9.1428191600803377E+00 
    8.9953390584004964E+00 
    1.1985252153873278E+01 
    1.2221708110412779E+01 
    1.2673755723931261E+01 
    1.2441337214284157E+01 
    1.5129804957628119E+01 
    9.4654895480832728E+00 
    7.8107370880230729E+00 
    9.4368208116745880E+00 
    1.3068484877232974E+01 
    9.2330898666705057E+00 
    5.3166549207081042E+00 
    8.8834544488549145E+00 
    1.3455671614202091E+01 
    9.3577524300156725E+00 
    7.8198867575421867E+00 
    8.8120179982822204E+00 
    1.3559554852379426E+01 
    1.2217049049879934E+01 
    7.4116180283008282E+00 
    1.3687883225261183E+01 
    9.1704406900588875E+00 
    1.2674432246610310E+01 
    1.3571931325020474E+01 
    9.5188345885325312E+00 
    4.7129655797054353E+00 
    9.8908312370137921E+00 
    4.8773360299077702E+00 
    9.2786348317946032E+00 
    9.0859068942402779E+00 
    1.0407102471283508E+01 
    5.1582937836952327E+00 
    1.1045722843100878E+01 
    9.1086377707669239E+00 
    1.2432759154351761E+01 
    9.4885122764706082E+00 
    7.2310813380439587E+00 
    8.6968522493028093E+00 
    9.5453295549465782E+00 
    9.5595512833958107E+00 
    1.3187979101696863E+01 
    7.4545909096134553E+00 
    7.3243530254352436E+00 
    5.4291686285637510E+00 
    1.2697127138401674E+01 
    8.7330572799407129E+00 
    1.2031775654731980E+01 
    9.0567833697019289E+00 
    5.9479143861541290E+00 
    1.2241565052719816E+01 
    9.0299869535215276E+00 
    6.4987959659441410E+00 
    6.8953954288478565E+00 
    7.1459639198199092E+00 
    1.2459384060680645E+01 
    9.0120399085464982E+00 
    1.3040652229749085E+01 
    8.9846514562702229E+00 
    8.9151648733596662E+00 
    8.4514605179640050E+00 
    1.2315334213476058E+01 
    8.8238308119465625E+00 
    7.1834301319192413E+00 
    1.3930217791842860E+01 
    1.2386972442796422E+01 
    6.2660724180847378E+00 
    2.4034494016641204E+00 
    9.0012629048364410E+00 
    8.4543537051029656E+00 
    7.5554056124732103E+00 
    8.2673008778666475E+00 
    1.2367640458203121E+01 
    8.7216508796308609E+00 
    7.8650443568492383E+00 
    1.2240879258829311E+01 
    6.2084951250839095E+00 
    1.1949939238131991E+01 
    8.1730941741357590E+00 
    7.1187812393987997E+00 
    7.6296907081387397E+00 
    1.2752073390972710E+01 
    9.0759257510494287E+00 
    9.0841576708782910E+00 
    5.2375852626549442E+00 
    5.6702513843662592E+00 
    1.1339886176963207E+01 
    9.0940925657841447E+00 
    9.0452617771046260E+00 
    1.3673394726662742E+01 
    7.3267720790243382E+00 
    9.1061170544328682E+00 
    6.4218147319344423E+00 
    6.6249444361157330E+00 
    1.2307388862644288E+01 
    8.7151694451820791E+00 
    6.2635805866366896E+00 
    9.5502028530170531E+00 
    8.9581014999916526E+00 
    1.2310864804261513E+01 
    1.3761493830299756E+01 
    9.2502693805718816E-01 
    9.0060711984863442E+00 
    9.3193067258074205E+00 
    1.2369423178790003E+01 
    8.5054378527724293E+00 
    9.0493121053312482E+00 
    1.3234507042815043E+01 
    7.6619310603328188E+00 
    6.3204251557577829E+00 
    1.0955072024549864E+01 
    1.2200635409631674E+01 
    1.3120426644089127E+01 
    1.3372243578101507E+01 
    8.8523454044543683E+00 
    8.9981795798478483E+00 
    1.0173720445448835E+01 
    5.9496046803654163E+00 
    1.2313085583887265E+01 
    6.8200131343440304E+00 
    6.1998547329907590E+00 
    1.1320437865372801E+01 
    1.0654147962204908E+01 
    6.0786763330808382E+00 
    1.2232186549547045E+01 
    1.3107236265902804E+01 
    9.4795340003788269E+00 
    1.3857588313576413E+01 
    1.2260817439722279E+01 
    8.5840611519350283E+00 
    1.2867633891066733E+01 
    6.6305139734139216E+00 
    1.2216800028290416E+01 
    9.0052359877453192E+00 
    8.9654243314311959E+00 
    1.3832901010700182E+01 
    8.7627602952841670E+00 
    1.1060926631355146E+01 
    7.6155650208933237E+00 
    1.3215911112521562E+01 
    1.2135061276749704E+01 
    7.9533750637827838E+00 
    1.2179800796245749E+01 
    8.1831608397625377E+00 
    9.0593639666549617E+00 
    1.3070407362136265E+01 
    1.2434282743750289E+01 
    1.3110281497484136E+01 
    1.2372151732554780E+01 
    8.1478467058224453E+00 
    8.3575115435415199E+00 
    1.3116349914350700E+01 
    8.4736960293032055E+00 
    1.2076622277361883E+01 
    8.7540470049749732E+00 
    3.5294151185769218E+00 
    6.2668896327936103E+00 
    5.7966775106891060E+00 
    1.3073493192109236E+01 
    1.3766941477777443E+01 
    1.2195882432846664E+01 
    1.0513281638516439E+01 
    1.2448140446799046E+01 
    1.2238651721240819E+01 
    1.2759135998581412E+01 
    5.0552804379166529E+00 
    3.2911961826697107E+00 
    1.0320528927898406E+01 
    8.6569925300351436E+00 
    1.2369044157875491E+01 
    1.2366808571907496E+01 
    9.3353185750324332E+00 
    1.2399709563779089E+01 
    8.9926920682671252E+00 
    8.8844537634653733E+00 
    4.5607178142343967E+00 
    3.2778892964826380E+00 
    1.3556958355014180E+01 
    7.0404463075988808E+00 
    7.8989056979661152E+00 
    9.2422041094099310E+00 
    1.5112086449430150E+01 
    9.3277277335803408E+00 
    9.2615777802579782E+00 
    3.7287299924399626E+00 
    9.3282953672299307E+00 
    9.3405589431636145E+00 
    1.2647310459881878E+01 
    7.6334310932874754E+00 
    8.6318604435248236E+00 
    1.3714782622457628E+01 
    9.0148404788255263E+00 
    1.2209830780099439E+01 
    1.2435053250874740E+01 
    1.1186835520544998E+01 
    7.6455865606293028E+00 
    1.2371450075178288E+01 
    8.8059609473059322E+00 
    1.2383089217222953E+01 
    1.2154823129219199E+01 
    1.3090984364609762E+01 
    1.2370948317908907E+01 
    1.1642903472818823E+01 
    9.0034355525307213E+00 
    6.0311701229010186E+00 
    1.4988007600451132E+01 
    6.9607177651348451E+00 
    1.3029236615270124E+01 
    9.0008261830249232E+00 
    7.3631120881222261E+00 
    4.4143418912841774E+00 
    9.3715719513934737E+00 
    1.2360032616684204E+01 
    1.2355838090051662E+01 
    9.0392799157021972E+00 
    8.9949582389073210E+00 
    1.3911445941637909E+01 
    1.3318848249026647E+01 
    9.3445169941892789E+00 
    3.0631897966374866E+00 
    1.1615170898979217E+01 
    1.5238288550140314E+01 
    9.0067977333944764E+00 
    1.0841483457972357E+01 
    8.5011787485043566E+00 
    1.4849407415803466E+01 
    1.3391891451660982E+01 
    1.3142318384257495E+01 
    9.3643219508537143E+00 
    4.1120127530895658E+00 
    8.4610493582323834E+00 
    8.5270001662035746E+00 
    8.5736887894579805E+00 
    3.3317968939140608E+00 