# vtk DataFile Version 2.0
Pressure Field Data 
ASCII 
DATASET UNSTRUCTURED_GRID 

POINTS 2860 double 

    0.0000000000000000E+00     0.0000000000000000E+00     0.0000000000000000E+00 
    1.0000000000000000E+00     0.0000000000000000E+00     0.0000000000000000E+00 
    1.0000000000000000E+00     1.0000000000000000E+00     0.0000000000000000E+00 
    0.0000000000000000E+00     1.0000000000000000E+00     0.0000000000000000E+00 
    2.5000000000000000E-01     2.5000000000000000E-01     0.0000000000000000E+00 
    7.5000000000000000E-01     2.5000000000000000E-01     0.0000000000000000E+00 
    7.5000000000000000E-01     7.5000000000000000E-01     0.0000000000000000E+00 
    2.5000000000000000E-01     7.5000000000000000E-01     0.0000000000000000E+00 
    3.1249999999942091E-02     0.0000000000000000E+00     0.0000000000000000E+00 
    6.2499999999873469E-02     0.0000000000000000E+00     0.0000000000000000E+00 
    9.3749999999826514E-02     0.0000000000000000E+00     0.0000000000000000E+00 
    1.2499999999977961E-01     0.0000000000000000E+00     0.0000000000000000E+00 
    1.5624999999968961E-01     0.0000000000000000E+00     0.0000000000000000E+00 
    1.8749999999959971E-01     0.0000000000000000E+00     0.0000000000000000E+00 
    2.1874999999950970E-01     0.0000000000000000E+00     0.0000000000000000E+00 
    2.4999999999941969E-01     0.0000000000000000E+00     0.0000000000000000E+00 
    2.8124999999932920E-01     0.0000000000000000E+00     0.0000000000000000E+00 
    3.1249999999923850E-01     0.0000000000000000E+00     0.0000000000000000E+00 
    3.4374999999914790E-01     0.0000000000000000E+00     0.0000000000000000E+00 
    3.7499999999905720E-01     0.0000000000000000E+00     0.0000000000000000E+00 
    4.0624999999896660E-01     0.0000000000000000E+00     0.0000000000000000E+00 
    4.3749999999887590E-01     0.0000000000000000E+00     0.0000000000000000E+00 
    4.6874999999878530E-01     0.0000000000000000E+00     0.0000000000000000E+00 
    4.9999999999869471E-01     0.0000000000000000E+00     0.0000000000000000E+00 
    5.3124999999877620E-01     0.0000000000000000E+00     0.0000000000000000E+00 
    5.6249999999885780E-01     0.0000000000000000E+00     0.0000000000000000E+00 
    5.9374999999893940E-01     0.0000000000000000E+00     0.0000000000000000E+00 
    6.2499999999902101E-01     0.0000000000000000E+00     0.0000000000000000E+00 
    6.5624999999910261E-01     0.0000000000000000E+00     0.0000000000000000E+00 
    6.8749999999918421E-01     0.0000000000000000E+00     0.0000000000000000E+00 
    7.1874999999926570E-01     0.0000000000000000E+00     0.0000000000000000E+00 
    7.4999999999934730E-01     0.0000000000000000E+00     0.0000000000000000E+00 
    7.8124999999942890E-01     0.0000000000000000E+00     0.0000000000000000E+00 
    8.1249999999951039E-01     0.0000000000000000E+00     0.0000000000000000E+00 
    8.4374999999959199E-01     0.0000000000000000E+00     0.0000000000000000E+00 
    8.7499999999967359E-01     0.0000000000000000E+00     0.0000000000000000E+00 
    9.0624999999975520E-01     0.0000000000000000E+00     0.0000000000000000E+00 
    9.3749999999983680E-01     0.0000000000000000E+00     0.0000000000000000E+00 
    9.6874999999991840E-01     0.0000000000000000E+00     0.0000000000000000E+00 
    1.0000000000000000E+00     3.1249999999942091E-02     0.0000000000000000E+00 
    1.0000000000000000E+00     6.2499999999873469E-02     0.0000000000000000E+00 
    1.0000000000000000E+00     9.3749999999826514E-02     0.0000000000000000E+00 
    1.0000000000000000E+00     1.2499999999977961E-01     0.0000000000000000E+00 
    1.0000000000000000E+00     1.5624999999968961E-01     0.0000000000000000E+00 
    1.0000000000000000E+00     1.8749999999959971E-01     0.0000000000000000E+00 
    1.0000000000000000E+00     2.1874999999950970E-01     0.0000000000000000E+00 
    1.0000000000000000E+00     2.4999999999941969E-01     0.0000000000000000E+00 
    1.0000000000000000E+00     2.8124999999932920E-01     0.0000000000000000E+00 
    1.0000000000000000E+00     3.1249999999923850E-01     0.0000000000000000E+00 
    1.0000000000000000E+00     3.4374999999914790E-01     0.0000000000000000E+00 
    1.0000000000000000E+00     3.7499999999905720E-01     0.0000000000000000E+00 
    1.0000000000000000E+00     4.0624999999896660E-01     0.0000000000000000E+00 
    1.0000000000000000E+00     4.3749999999887590E-01     0.0000000000000000E+00 
    1.0000000000000000E+00     4.6874999999878530E-01     0.0000000000000000E+00 
    1.0000000000000000E+00     4.9999999999869471E-01     0.0000000000000000E+00 
    1.0000000000000000E+00     5.3124999999877620E-01     0.0000000000000000E+00 
    1.0000000000000000E+00     5.6249999999885780E-01     0.0000000000000000E+00 
    1.0000000000000000E+00     5.9374999999893940E-01     0.0000000000000000E+00 
    1.0000000000000000E+00     6.2499999999902101E-01     0.0000000000000000E+00 
    1.0000000000000000E+00     6.5624999999910261E-01     0.0000000000000000E+00 
    1.0000000000000000E+00     6.8749999999918421E-01     0.0000000000000000E+00 
    1.0000000000000000E+00     7.1874999999926570E-01     0.0000000000000000E+00 
    1.0000000000000000E+00     7.4999999999934730E-01     0.0000000000000000E+00 
    1.0000000000000000E+00     7.8124999999942890E-01     0.0000000000000000E+00 
    1.0000000000000000E+00     8.1249999999951039E-01     0.0000000000000000E+00 
    1.0000000000000000E+00     8.4374999999959199E-01     0.0000000000000000E+00 
    1.0000000000000000E+00     8.7499999999967359E-01     0.0000000000000000E+00 
    1.0000000000000000E+00     9.0624999999975520E-01     0.0000000000000000E+00 
    1.0000000000000000E+00     9.3749999999983680E-01     0.0000000000000000E+00 
    1.0000000000000000E+00     9.6874999999991840E-01     0.0000000000000000E+00 
    9.6875000000003686E-01     1.0000000000000000E+00     0.0000000000000000E+00 
    9.3750000000011691E-01     1.0000000000000000E+00     0.0000000000000000E+00 
    9.0625000000015765E-01     1.0000000000000000E+00     0.0000000000000000E+00 
    8.7500000000017863E-01     1.0000000000000000E+00     0.0000000000000000E+00 
    8.4375000000028044E-01     1.0000000000000000E+00     0.0000000000000000E+00 
    8.1250000000040856E-01     1.0000000000000000E+00     0.0000000000000000E+00 
    7.8125000000054956E-01     1.0000000000000000E+00     0.0000000000000000E+00 
    7.5000000000066480E-01     1.0000000000000000E+00     0.0000000000000000E+00 
    7.1875000000086831E-01     1.0000000000000000E+00     0.0000000000000000E+00 
    6.8750000000102829E-01     1.0000000000000000E+00     0.0000000000000000E+00 
    6.5625000000114431E-01     1.0000000000000000E+00     0.0000000000000000E+00 
    6.2500000000129829E-01     1.0000000000000000E+00     0.0000000000000000E+00 
    5.9375000000147926E-01     1.0000000000000000E+00     0.0000000000000000E+00 
    5.6250000000168354E-01     1.0000000000000000E+00     0.0000000000000000E+00 
    5.3125000000188671E-01     1.0000000000000000E+00     0.0000000000000000E+00 
    5.0000000000205835E-01     1.0000000000000000E+00     0.0000000000000000E+00 
    4.6875000000192979E-01     1.0000000000000000E+00     0.0000000000000000E+00 
    4.3750000000180111E-01     1.0000000000000000E+00     0.0000000000000000E+00 
    4.0625000000167238E-01     1.0000000000000000E+00     0.0000000000000000E+00 
    3.7500000000154382E-01     1.0000000000000000E+00     0.0000000000000000E+00 
    3.4375000000141509E-01     1.0000000000000000E+00     0.0000000000000000E+00 
    3.1250000000128642E-01     1.0000000000000000E+00     0.0000000000000000E+00 
    2.8125000000115769E-01     1.0000000000000000E+00     0.0000000000000000E+00 
    2.5000000000102918E-01     1.0000000000000000E+00     0.0000000000000000E+00 
    2.1875000000090050E-01     1.0000000000000000E+00     0.0000000000000000E+00 
    1.8750000000077180E-01     1.0000000000000000E+00     0.0000000000000000E+00 
    1.5625000000064329E-01     1.0000000000000000E+00     0.0000000000000000E+00 
    1.2500000000051459E-01     1.0000000000000000E+00     0.0000000000000000E+00 
    9.3750000000385914E-02     1.0000000000000000E+00     0.0000000000000000E+00 
    6.2500000000257239E-02     1.0000000000000000E+00     0.0000000000000000E+00 
    3.1250000000128557E-02     1.0000000000000000E+00     0.0000000000000000E+00 
    0.0000000000000000E+00     9.6875000000003686E-01     0.0000000000000000E+00 
    0.0000000000000000E+00     9.3750000000011691E-01     0.0000000000000000E+00 
    0.0000000000000000E+00     9.0625000000015765E-01     0.0000000000000000E+00 
    0.0000000000000000E+00     8.7500000000017863E-01     0.0000000000000000E+00 
    0.0000000000000000E+00     8.4375000000028044E-01     0.0000000000000000E+00 
    0.0000000000000000E+00     8.1250000000040856E-01     0.0000000000000000E+00 
    0.0000000000000000E+00     7.8125000000054956E-01     0.0000000000000000E+00 
    0.0000000000000000E+00     7.5000000000066480E-01     0.0000000000000000E+00 
    0.0000000000000000E+00     7.1875000000086831E-01     0.0000000000000000E+00 
    0.0000000000000000E+00     6.8750000000102829E-01     0.0000000000000000E+00 
    0.0000000000000000E+00     6.5625000000114431E-01     0.0000000000000000E+00 
    0.0000000000000000E+00     6.2500000000129829E-01     0.0000000000000000E+00 
    0.0000000000000000E+00     5.9375000000147926E-01     0.0000000000000000E+00 
    0.0000000000000000E+00     5.6250000000168354E-01     0.0000000000000000E+00 
    0.0000000000000000E+00     5.3125000000188671E-01     0.0000000000000000E+00 
    0.0000000000000000E+00     5.0000000000205835E-01     0.0000000000000000E+00 
    0.0000000000000000E+00     4.6875000000192979E-01     0.0000000000000000E+00 
    0.0000000000000000E+00     4.3750000000180111E-01     0.0000000000000000E+00 
    0.0000000000000000E+00     4.0625000000167238E-01     0.0000000000000000E+00 
[...]
CELL_DATA 2795 
SCALARS Pressure double 1 
LOOKUP_TABLE default 

    6.1801194687497185E+00 
    1.4161566484195596E+01 
    9.9742311961140935E+00 
    9.5817790856582477E+00 
    7.6054570257373921E+00 
    1.4033258829655763E+01 
    1.4750662824577100E+01 
    5.5171345953136104E+00 
    1.0539565734691921E+01 
    8.0615657341119036E+00 
    6.8761524657161113E+00 
    1.3779915011927329E+01 
    1.4070176820403008E+01 
    1.4002693020311282E+01 
    9.2067913708797935E+00 
    5.4253944313025402E+00 
    8.8070406772947987E+00 
    7.3224253283888139E+00 
    1.3421440195932840E+01 
    9.9631663935421511E+00 
    9.8578063172773049E+00 
    1.3938309384681451E+01 
    9.3170384955393022E+00 
    3.6274609397328944E-01 
    1.3776628880561018E+01 
    1.4040419759992554E+01 
    1.4781504668286898E+01 
    6.6102554271808796E+00 
    1.3701278942492397E+01 
    1.4775797432259612E+01 
    1.0021545834513059E+01 
    1.0181603835068323E+01 
    7.1445237243168460E+00 
    9.9367005253671206E+00 
    3.1980824283764133E+00 
    8.8126368660886065E+00 
    9.9257021444407485E+00 
    1.4815122059861848E+01 
    1.4728028660151530E+01 
    1.3792632687045543E+01 
    7.5440762995907642E+00 
    1.3750669850094200E+01 
    7.5491771607328662E-01 
    9.8281110544676551E+00 
    1.4544473255588864E+01 
    1.4377976837909966E+01 
    1.3769334368344834E+01 
    1.0892664656712215E+01 
    1.3839680023922455E+01 
    9.0116341566379567E+00 
    8.5826158959576304E+00 
    1.0146457004369349E+01 
    9.7175586743523024E+00 
    8.8582765814352573E+00 
    1.0089868917727763E+01 
    1.3214025280096413E+01 
    1.1882425071717606E+01 
    7.6467989542257655E+00 
    1.3942476341716986E+01 
    1.3866255096097449E+01 
    9.5721410437005385E+00 
    9.5937385053107906E+00 
    9.4849401368854274E+00 
    1.4679241537122515E+01 
    1.4929105427073548E+01 
    8.8171230647550658E+00 
    1.0145860686029142E+01 
    1.3672307906061461E+01 
    1.1691972997505783E+01 
    9.6377728032579491E+00 
    1.4938684286470753E+01 
    1.3885965577083793E+01 
    8.6935708512829297E+00 
    1.4477831572612217E+01 
    1.0320114604204397E+01 
    1.3630129538113909E+01 
    1.4825442634447279E+01 
    1.0358123674185416E+01 
    6.3248804867528357E+00 
    1.0164902525833039E+01 
    1.4736872700663579E+01 
    1.4968370066215346E+01 
    8.8311950405814663E+00 
    1.0081225613743642E+01 
    1.5012115731416680E+01 
    9.9281723120314904E+00 
    9.4023130018221064E+00 
    1.2106609881941170E+01 
    6.0234597935161229E+00 
    8.6053852939118247E+00 
    1.0080647326951210E+01 
    1.0694287025321868E+01 
    1.6469730171499659E+01 
    7.3899551859217922E+00 
    1.0154266248682383E+01 
    1.3747443779748899E+01 
    1.4022135134734050E+01 
    6.5031494879792273E+00 
    9.7993995148331621E+00 
    1.0110969945104527E+01 
    1.4042309167265801E+01 
    1.0111214569058152E+01 
    1.3974919499929124E+01 
    3.9499353530982391E+00 
    6.6852486469620835E+00 
    1.0392385131353992E+01 
    1.4169712234148401E+01 
    8.7778425356209677E+00 
    9.3540846531105242E+00 
    1.0095131315786389E+01 
    9.3690353555364698E+00 
    1.1470809397443837E+01 
    9.0968602933914635E+00 
    8.7015127612818244E+00 
    6.8623715757010011E+00 
    1.1857364843699189E+01 
    1.0182581056139878E+01 
    1.4592158961772022E+01 
    8.7474833351769448E+00 
    9.5636215311586081E+00 
    1.3874240574126013E+01 
    7.9672687951606704E+00 
    1.4317071116122085E+01 
    1.0004766142013695E+01 
    9.4934603232527781E+00 
    1.4024138132215240E+01 
    1.0177644375125979E+01 
    1.4836243945469812E+01 
    1.2118988886360746E+01 
    1.3062977045636137E+01 
    1.4798051207287106E+01 
    7.4049848440080215E+00 
    1.0417217040954245E+01 
    1.4024824713724621E+01 
    2.9599459069235228E+00 
    1.0068682453819131E+01 
    1.4764875213985009E+01 
    9.5223019666276105E+00 
    1.1013414639308552E+01 
    6.4682751544995067E+00 
    1.3745526833252535E+01 
    1.6960179764754113E+01 
    1.2585777991655242E+01 
    9.5211540688275260E+00 
    8.5060498067844019E+00 
    1.0734142524631133E+01 
    1.0021660567924014E+01 
    6.9489812244850517E+00 
    1.4793931777565767E+01 
    1.4106012206362664E+01 
    1.3749102796846447E+01 
    1.0694443522412088E+01 
    8.6637768268243640E+00 
    9.8562172660732461E+00 
    1.4505247160160712E+01 
    8.9158265124120515E+00 
    9.9903666342205621E+00 
    9.0805033670823541E+00 
    1.1598298803525109E+01 
    1.6948389065740471E+01 
    1.3740807868869716E+01 
    8.6246405845153102E+00 
    1.4214915764709694E+01 
    1.4129341624869946E+01 
    1.4208579667921674E+01 
    1.5209395456803200E+01 
    1.5749371395116016E+01 
    1.4376083167891791E+01 
    1.0137508514473684E+01 
    1.0881523569832103E+01 
    1.4203785590684195E+01 
    1.4603874277040433E+01 
    7.2537997122147519E+00 
    1.3768990061196051E+01 
    1.4467561385822529E+01 
    7.0628352743856606E+00 
    1.5127634598144738E+01 
    1.5109538016638146E+01 
    1.3490526687615288E+01 
    1.0485197618439981E+01 
    2.6047258356605356E+00 
    1.4765581362560697E+01 
    1.0326777796064022E+01 
    1.4885347856452245E+01 
    9.4531728666800010E+00 
    1.4603363219551346E+01 
    9.2621209650575187E-01 
    1.3080696128688700E+01 
    9.6381271088362155E+00 
    8.6239525995014628E+00 
    8.4026242584921960E+00 
    9.9745840174909635E+00 
    1.1124845210650609E+01 
    1.0386760440646492E+01 
    6.9705210122886729E+00 
    1.4598691072056152E+01 
    1.4048756016600180E+01 
    1.1817824514133633E+01 
    1.0386847927307521E+01 
    1.5119718750303877E+00 
    7.7487502093385112E+00 
    5.3654874797572401E+00 
    1.4786501071624517E+01 
    1.1255798948464685E+01 
    1.4100217849427711E+01 
    1.4114380214248420E+01 
    8.9934949060817342E+00 
    1.1837625663009440E+01 
    1.3744758332363476E+01 
    1.5091772988078683E+01 
    6.4368219797108761E+00 
    1.2416560821143401E+01 
    1.0414433729814395E+01 
    5.7266749434354507E+00 
    8.9867542728465040E+00 
    1.2393501558147534E+01 
    1.4076592274424732E+01 
    1.0028764459691931E+01 
    1.4186403113172322E+01 
    1.3953512518956874E+01 
    1.3903044748042463E+01 
    9.8624691916864649E+00 
    8.5617467171617712E+00 
    1.3756861887431601E+01 
    8.6874295403665389E+00 
    1.0116040014011514E+01 
    8.5149702580609166E+00 
    9.9356097835624659E+00 
    1.4123122156824781E+01 
    6.2866103270883089E+00 
    8.8958583291280089E+00 
    1.4701131054065122E+01 
    9.8747938383186007E+00 
    1.1147561057128486E+01 
    6.4504738545282541E+00 
    8.7517779307431454E+00 
    1.3931759904539280E+01 
    1.4241754032145105E+01 
    5.2573447628327674E+00 
    9.8800574661379255E+00 
    8.5561185338564538E+00 
    1.5515211076117531E+01 
    1.4976130155788827E+01 
    1.5776521781338872E+01 
    9.9002362095848024E+00 
    1.4096884177755218E+01 
    1.3702107567965808E+01 
    9.7729927357966577E+00 
    1.3749507515307828E+01 
    1.0387255500906880E+01 
    5.8048233303159327E+00 
    1.0138664731351318E+01 
    1.4687232605688857E+01 
    1.3746348263093545E+01 
    6.8402906095786085E+00 
    1.3775900903607599E+01 
    1.1133954583734546E+01 
    1.0049210738971951E+01 
    9.5973694347267084E+00 
    1.3614054898820394E+01 
    1.0578166419705614E+01 
    1.3762281392951515E+01 
    9.7640006083045492E+00 
    6.0169311259214187E+00 
    1.0185946904003393E+01 
    8.4124670408058115E+00 
    1.2588262500987650E+01 
    1.4884357654248515E+01 
    1.3755188319744759E+01 
    1.4758486520065727E+01 
    9.8231574917709956E+00 
    6.6610070713394869E+00 
    6.7559265509280841E+00 
    1.0232668322262906E+01 
    1.0092244282972397E+01 
    1.4405089222816123E+00 
    1.3263393907386464E+01 
    1.5236835690438737E+01 
    9.4667660405525282E+00 
    6.0456709082656754E+00 
    1.1556577642446946E+01 
    1.3774509367969680E+01 
    7.1626427573049494E+00 
    4.8536260187692806E+00 
    1.0069229512476115E+01 
    1.3858198488912597E+01 
    1.4503457958202564E+01 
    1.4394893812260145E+01 
    1.4245427180705041E+01 
    7.0008326623308195E+00 
    1.0043199190141724E+01 
    1.3296475730901252E+01 
    7.9139585703520208E+00 
    1.4057289502510528E+01 
    1.2077561571706514E+01 
    6.8590215724733055E+00 
    1.3882757393577853E+01 
    1.4790847843763524E+01 
    1.3896076718145387E+01 
    6.8958627772525558E+00 
    1.0142073958872869E+01 
    7.5799751982225523E+00 
    9.5737104032842861E+00 
    1.3765925575459839E+01 
    1.3754102336413677E+01 
    6.9360616459060482E+00 
    1.4642634094741005E+01 
    1.0699124009680670E+01 
    1.3787126299718224E+01 
    1.4609801523622771E+01 
    1.3774058813798682E+01 
    1.2831050663133647E+01 
    1.5569545628543883E+01 
    9.4222846023818985E+00 
    1.4728004537640720E+01 
    1.3816213157278600E+01 
    1.4800191467078847E+01 
    1.4635750719094140E+01 
    9.5221823987326424E+00 
    9.9661233445485973E+00 
    9.4572779443492543E+00 
    1.2337114583137504E+01 
    3.9623906814347714E+00 
    1.0169107259560931E+01 
    1.5695648090095810E+01 
    1.0387538426761337E+01 
    1.0575465579913864E+01 
    1.4773389926971317E+01 
    1.5003865752302538E+01 
    9.3534154393951088E+00 
    1.3780253980009427E+01 
    1.3750193613088088E+01 
    1.0563086714202333E+01 
    1.4590938728149172E+01 
    7.2052692976499202E+00 
    4.5775445429765655E+00 
    1.0843853692550805E+01 
    1.0403134738444365E+01 
    1.3756379601386689E+01 
    6.4844837670904258E+00 
    1.4310223007413818E+01 
    4.6598644423688818E+00 
    1.0332086555704915E+01 
    9.5568294783986651E+00 
    1.0118611769429602E+01 
    1.6999819491705345E+01 
    3.8495954244957544E+00 
    1.0086160062612867E+01 
    1.2057462682793737E+01 
    9.7256906302211359E+00 
    7.6596751939279066E+00 
    1.4422877347147752E+01 
    1.6556912407238514E+01 
    1.4571718269264402E+01 
    1.0026331634164869E+01 
    5.6937680986098229E+00 
    1.6410421950370328E+01 
    1.4037815419317484E+01 
    7.3431187345487219E+00 
    9.6687988465812218E+00 
    1.5193272028767751E+01 
    3.2741138133512950E+00 
    1.0452785510827628E+01 
    1.4537612444916119E+01 
    1.0131895488118362E+01 
    8.8307368832383659E+00 
    1.0126028901477696E+01 
    1.3517336785186409E+01 
    1.0113076728633304E+01 
    5.0666486718952246E+00 
    8.9811893459397985E-01 
    7.5510486704483331E+00 
    1.5411033692375378E+01 
    9.4567462513782203E+00 
    1.1463480749355254E+01 
    1.0892366891182537E+01 
    1.2660786840711317E+01 
    1.0145350298318371E+01 
    1.3946933748576445E+01 
    1.7014135675991682E+01 
    1.2013728329864728E+01 
    1.4700702250681326E+01 
    5.3904036902550312E-01 
    1.3756137063657530E+01 
    5.6145682280064966E+00 
    1.5864614276121799E+01 
    1.0099831999627673E+01 
    8.9769702640327367E+00 
    7.7317908831301070E+00 
    5.3144543098926844E+00 
    1.1341213790675068E+01 
    7.9982463614424963E+00 
    1.2482119957965960E+01 
    2.1819461019736015E+00 
    1.1168477900131297E+01 
    1.3689140858797622E+01 
    6.1314738172574934E+00 
    1.4247825104789442E+01 
    1.5665612532244994E+01 
    1.4089081739359813E+01 
    9.9650028713009213E+00 
    1.0113386884750765E+01 
    1.0092523491677094E+01 
    5.7634216288492288E+00 
    9.1900615520174096E+00 
    9.0333618950964389E+00 
    1.0081520573809078E+01 
    9.3879781981186952E+00 
    6.8182552015327402E-01 
    6.4561051213973908E+00 
    9.7855812533805775E+00 
    1.0056434649361611E+01 
    1.2828063743453805E+01 
    2.1548191071937199E+00 
    1.0522862775857703E+01 
    1.0407395359874867E+01 
    3.7025831839636409E+00 
    1.3950213263744297E+01 
    8.7082058606803567E+00 
    1.0255335860220724E+01 
    1.4034358586093250E+01 
    5.3377158459934835E+00 
    1.4074223415145774E+01 
    8.8237674726274520E+00 
    9.8853579387577784E-01 
    9.5189178515634261E+00 
    1.4654070465126285E+01 
    1.3755961585711974E+01 
    1.3774443520565796E+01 
    1.0438789228164454E+01 
    1.0336694572371909E+01 
    8.6871688501234292E+00 
    7.0108965852344252E+00 
    1.4143933343020571E+01 
    9.6660894264357147E+00 
    6.8280365108584338E+00 
    1.3770113835541547E+01 
    1.4463097228531707E+01 
    1.0259412976391447E+01 
    9.9209772037742514E+00 
    1.6893195212182729E+01 
    1.0563950920860298E+01 
    1.4161496772375617E+01 
    8.2501732316649576E+00 
    1.7042782184698176E+01 
    6.7164837874362471E+00 
    9.0991509850394579E+00 
    7.5278381770184204E+00 
    1.0793500295332523E+01 
    8.6194020709457266E+00 
    1.7026248569833513E+01 
    1.0611699573185584E+01 
    1.3455851783172935E+01 
    6.9087905078319327E+00 
    1.0141538922250179E+01 
    1.4004189676634262E+01 
    8.6526543998726329E+00 
    7.2812409294801643E+00 
    1.1210449592602389E+01 
    1.4231770887441222E+01 
    7.4094034690186321E+00 
    9.5773778171142947E+00 
    9.9502116111233239E+00 
    1.3731509974240494E+01 
    9.7519889819994283E+00 
    1.4206573218033528E+01 
    1.4829034791152571E+01 
    8.7138574350286024E+00 
    8.5368832983753062E+00 
    8.0315737648031416E+00 
    1.3873503161253403E+01 
    1.0409547513610855E+01 
    1.6596467603868966E+01 
    1.3025504768348618E+01 
    1.3963220213766951E+01 
    1.6283659564229815E+01 
    1.5673292160774983E+01 
    1.0189952556649034E+01 
    1.0066359305064072E+01 
    1.3522266259984278E+01 
    1.3794038228716332E+01 
    1.4317198314523560E+01 
    1.4058147449235213E+01 
    1.6914008152808531E+01 
    1.0563490398338164E+01 
    8.8164582451557489E+00 
    1.0559360037073548E+01 
    1.4742645080779903E+01 
    1.0299449354992037E+01 
    5.9853898711437239E+00 
    9.9488931111292747E+00 
    1.5159858327493540E+01 
    1.0443440980195094E+01 
    8.8268701063031010E+00 
    9.8916901951343075E+00 
    1.5270921642600591E+01 
    1.3807159070825236E+01 
    8.3728798249872884E+00 
    1.5407720797944132E+01 
    1.0221848316144531E+01 
    1.4310357539033491E+01 
    1.5284340438813018E+01 
    1.0727118283616807E+01 
    5.3427503201034101E+00 
    1.1168538150488299E+01 
    5.5305071231317431E+00 
    1.0355595671216703E+01 
    1.0133579670916204E+01 
    1.1764513198173317E+01 
    5.8488149643410097E+00 
    1.2489124977779394E+01 
    1.0153875327254076E+01 
    1.4048389437956287E+01 
    1.0717349582024402E+01 
    8.1839476008737577E+00 
    9.7677025402228601E+00 
    1.0603935307152291E+01 
    1.0667362779820293E+01 
    1.4873199059835331E+01 
    8.4162923310401219E+00 
    8.2704546546863220E+00 
    6.1541154822215143E+00 
    1.4340685823339669E+01 
    9.8081833591255840E+00 
    1.3600564671004888E+01 
    1.0104182840375090E+01 
    6.7365264104740303E+00 
    1.3835994692442606E+01 
    1.0079627800482593E+01 
    7.3507922521346369E+00 
    7.7922632191483219E+00 
    8.0717965485982202E+00 
    1.4078566082981451E+01 
    1.0083509527960791E+01 
    1.4712262175935631E+01 
    1.0038402163843156E+01 
    9.9767346223333533E+00 
    9.4957359298275978E+00 
    1.3918627331215303E+01 
    9.8943275360559841E+00 
    8.1128446113975432E+00 
    1.5661287354967838E+01 
    1.3999040905675489E+01 
    7.0380906710040838E+00 
    2.7175994429620673E+00 
    1.0072992265559575E+01 
    9.4951248543423237E+00 
    8.5293318436568129E+00 
    9.2988338554396197E+00 
    1.3959957817701344E+01 
    9.7809906161611515E+00 
    8.8713377637559478E+00 
    1.3815877765489187E+01 
    6.9751415453534573E+00 
    1.3482280646171494E+01 
    9.1722210888154212E+00 
    8.0539026036906325E+00 
    8.6131132285902776E+00 
    1.4395143443238052E+01 
    1.0121570534416410E+01 
    1.0129610539856163E+01 
    5.9309452486787437E+00 
    6.4165653820789030E+00 
    1.2822208749169246E+01 
    1.0139377943274111E+01 
    1.0112913882534359E+01 
    1.5393113208718251E+01 
    8.2736878867856358E+00 
    1.0151827382889879E+01 
    7.2142794272110136E+00 
    7.4419232469175638E+00 
    1.3912193029030547E+01 
    9.7825991628508397E+00 
    7.0819358411302149E+00 
    1.0704141960999618E+01 
    1.0024867125386528E+01 
    1.3915078959876130E+01 
    1.5486444550037541E+01 
    1.0399898201878499E+00 
    1.0077887470856021E+01 
    1.0401134309598685E+01 
    1.3978976215550452E+01 
    9.5920792020939043E+00 
    1.0095496319098810E+01 
    1.4925862065601493E+01 
    8.6493669148133563E+00 
    7.1459569965112548E+00 
    1.2265433469437886E+01 
    1.3769745540688755E+01 
    1.4798840295279817E+01 
    1.5068148778221966E+01 
    9.9203055115981940E+00 
    1.0069420095390946E+01 
    1.1409064197814310E+01 
    6.6858785283091171E+00 
    1.3898091904107652E+01 
    7.7050112926103314E+00 
    6.9644951614730211E+00 
    1.2724247062120019E+01 
    1.1971270993336681E+01 
    6.8294274554660968E+00 
    1.3805583273338328E+01 
    1.4784831578657842E+01 
    1.0579193396787081E+01 
    1.5588472431384627E+01 
    1.3838695126510300E+01 
    9.6562781243355573E+00 
    1.4523591227743976E+01 
    7.4464600419485034E+00 
    1.3788449390054598E+01 
    1.0076825015853558E+01 
    1.0038418053239351E+01 
    1.5563934431615738E+01 
    9.8420211987080464E+00 
    1.2444280318047268E+01 
    8.5972158051961749E+00 
    1.4902781903400612E+01 
    1.3695220703750921E+01 
    8.9735305375789451E+00 
    1.3745232349881862E+01 
    9.1912884436640887E+00 
    1.0104705908432488E+01 
    1.4744442705127730E+01 
    1.4053299036542677E+01 
    1.4788011224152104E+01 
    1.3982225915539249E+01 
    9.1957698994186536E+00 
    9.4129386844184211E+00 
    1.4794927581735999E+01 
    9.5385838374074154E+00 
    1.3626888529816672E+01 
    9.8313342911952564E+00 
    3.9940056612444819E+00 
    7.0377639330020001E+00 
    6.5159920832301941E+00 
    1.4748026100001066E+01 
    1.5492874542087424E+01 
    1.3763367355805531E+01 
    1.1705851039473622E+01 
    1.4052142155621798E+01 
    1.3813378568126561E+01 
    1.4398278911790939E+01 
    5.7277900168397338E+00 
    3.7229568944495006E+00 
    1.1497986723006589E+01 
    9.7521752900382594E+00 
    1.3961526229541727E+01 
    1.3959011894869995E+01 
    1.0424788207733029E+01 
    1.3996252218054281E+01 
    1.0063762964787497E+01 
    9.9933801522109622E+00 
    5.1672661232729329E+00 
    3.7091810042899054E+00 
    1.5267764000953603E+01 
    7.9058338907465675E+00 
    8.9159871007424627E+00 
    1.0309411478905139E+01 
    1.6894934767670314E+01 
    1.0410783761082559E+01 
    1.0409947485484826E+01 
    4.2216926891899380E+00 
    1.0412262471997986E+01 
    1.0426714162716237E+01 
    1.4280563895772584E+01 
    8.6187260941657318E+00 
    9.6850374277130058E+00 
    1.5436639553769753E+01 
    1.0086184397599217E+01 
    1.3779344384580039E+01 
    1.4038743027081354E+01 
    1.2480885744091253E+01 
    8.5892333071897493E+00 
    1.3981769263419210E+01 
    9.8830631196224701E+00 
    1.3969658998987326E+01 
    1.3717874544194371E+01 
    1.4767175036055026E+01 
    1.3980129178459755E+01 
    1.3123656101025141E+01 
    1.0074913740226203E+01 
    6.7770729113254236E+00 
    1.6767192046463975E+01 
    7.8630334534152118E+00 
    1.4696619269187876E+01 
    1.0072346106501008E+01 
    8.3169818291215449E+00 
    4.9816975644498083E+00 
    1.0463592900370376E+01 
    1.3968645906940264E+01 
    1.3964928846949080E+01 
    1.0085581420578553E+01 
    1.0066570126313728E+01 
    1.5644371721230161E+01 
    1.5011046434922813E+01 
    1.0429249882417997E+01 
    3.4639053944290357E+00 
    1.3076109369721610E+01 
    1.7023755859181886E+01 
    1.0078198499036549E+01 
    1.2087834198812267E+01 
    9.5902840904988569E+00 
    1.6623052014212693E+01 
    1.5090786749566101E+01 
    1.4826762142170633E+01 
    1.0450746045431064E+01 
    4.6465399284598474E+00 
    9.5474621822710937E+00 
    9.6153002120832998E+00 
    9.6564254588845717E+00 
    3.7719802307244823E+00 