# vtk DataFile Version 2.0
Pressure Field Data 
ASCII 
DATASET UNSTRUCTURED_GRID 

POINTS 2860 double 

    0.0000000000000000E+00     0.0000000000000000E+00     0.0000000000000000E+00 
    1.0000000000000000E+00     0.0000000000000000E+00     0.0000000000000000E+00 
    1.0000000000000000E+00     1.0000000000000000E+00     0.0000000000000000E+00 
    0.0000000000000000E+00     1.0000000000000000E+00     0.0000000000000000E+00 
    2.5000000000000000E-01     2.5000000000000000E-01     0.0000000000000000E+00 
    7.5000000000000000E-01     2.5000000000000000E-01     0.0000000000000000E+00 
    7.5000000000000000E-01     7.5000000000000000E-01     0.0000000000000000E+00 
    2.5000000000000000E-01     7.5000000000000000E-01     0.0000000000000000E+00 
    3.1249999999942091E-02     0.0000000000000000E+00     0.0000000000000000E+00 
    6.2499999999873469E-02     0.0000000000000000E+00     0.0000000000000000E+00 
    9.3749999999826514E-02     0.0000000000000000E+00     0.0000000000000000E+00 
    1.2499999999977961E-01     0.0000000000000000E+00     0.0000000000000000E+00 
    1.5624999999968961E-01     0.0000000000000000E+00     0.0000000000000000E+00 
    1.8749999999959971E-01     0.0000000000000000E+00     0.0000000000000000E+00 
    2.1874999999950970E-01     0.0000000000000000E+00     0.0000000000000000E+00 
    2.4999999999941969E-01     0.0000000000000000E+00     0.0000000000000000E+00 
    2.8124999999932920E-01     0.0000000000000000E+00     0.0000000000000000E+00 
    3.1249999999923850E-01     0.0000000000000000E+00     0.0000000000000000E+00 
    3.4374999999914790E-01     0.0000000000000000E+00     0.0000000000000000E+00 
    3.7499999999905720E-01     0.0000000000000000E+00     0.0000000000000000E+00 
    4.0624999999896660E-01     0.0000000000000000E+00     0.0000000000000000E+00 
    4.3749999999887590E-01     0.0000000000000000E+00     0.0000000000000000E+00 
    4.6874999999878530E-01     0.0000000000000000E+00     0.0000000000000000E+00 
    4.9999999999869471E-01     0.0000000000000000E+00     0.0000000000000000E+00 
    5.3124999999877620E-01     0.0000000000000000E+00     0.0000000000000000E+00 
    5.6249999999885780E-01     0.0000000000000000E+00     0.0000000000000000E+00 
    5.9374999999893940E-01     0.0000000000000000E+00     0.0000000000000000E+00 
    6.2499999999902101E-01     0.0000000000000000E+00     0.0000000000000000E+00 
    6.5624999999910261E-01     0.0000000000000000E+00     0.0000000000000000E+00 
    6.8749999999918421E-01     0.0000000000000000E+00     0.0000000000000000E+00 
    7.1874999999926570E-01     0.0000000000000000E+00     0.0000000000000000E+00 
    7.4999999999934730E-01     0.0000000000000000E+00     0.0000000000000000E+00 
    7.8124999999942890E-01     0.0000000000000000E+00     0.0000000000000000E+00 
    8.1249999999951039E-01     0.0000000000000000E+00     0.0000000000000000E+00 
    8.4374999999959199E-01     0.0000000000000000E+00     0.0000000000000000E+00 
    8.7499999999967359E-01     0.0000000000000000E+00     0.0000000000000000E+00 
    9.0624999999975520E-01     0.0000000000000000E+00     0.0000000000000000E+00 
    9.3749999999983680E-01     0.0000000000000000E+00     0.0000000000000000E+00 
    9.6874999999991840E-01     0.0000000000000000E+00     0.0000000000000000E+00 
    1.0000000000000000E+00     3.1249999999942091E-02     0.0000000000000000E+00 
    1.0000000000000000E+00     6.2499999999873469E-02     0.0000000000000000E+00 
    1.0000000000000000E+00     9.3749999999826514E-02     0.0000000000000000E+00 
    1.0000000000000000E+00     1.2499999999977961E-01     0.0000000000000000E+00 
    1.0000000000000000E+00     1.5624999999968961E-01     0.0000000000000000E+00 
    1.0000000000000000E+00     1.8749999999959971E-01     0.0000000000000000E+00 
    1.0000000000000000E+00     2.1874999999950970E-01     0.0000000000000000E+00 
    1.0000000000000000E+00     2.4999999999941969E-01     0.0000000000000000E+00 
    1.0000000000000000E+00     2.8124999999932920E-01     0.0000000000000000E+00 
    1.0000000000000000E+00     3.1249999999923850E-01     0.0000000000000000E+00 
    1.0000000000000000E+00     3.4374999999914790E-01     0.0000000000000000E+00 
    1.0000000000000000E+00     3.7499999999905720E-01     0.0000000000000000E+00 
    1.0000000000000000E+00     4.0624999999896660E-01     0.0000000000000000E+00 
    1.0000000000000000E+00     4.3749999999887590E-01     0.0000000000000000E+00 
    1.0000000000000000E+00     4.6874999999878530E-01     0.0000000000000000E+00 
    1.0000000000000000E+00     4.9999999999869471E-01     0.0000000000000000E+00 
    1.0000000000000000E+00     5.3124999999877620E-01     0.0000000000000000E+00 
    1.0000000000000000E+00     5.6249999999885780E-01     0.0000000000000000E+00 
    1.0000000000000000E+00     5.9374999999893940E-01     0.0000000000000000E+00 
    1.0000000000000000E+00     6.2499999999902101E-01     0.0000000000000000E+00 
    1.0000000000000000E+00     6.5624999999910261E-01     0.0000000000000000E+00 
    1.0000000000000000E+00     6.8749999999918421E-01     0.0000000000000000E+00 
    1.0000000000000000E+00     7.1874999999926570E-01     0.0000000000000000E+00 
    1.0000000000000000E+00     7.4999999999934730E-01     0.0000000000000000E+00 
    1.0000000000000000E+00     7.8124999999942890E-01     0.0000000000000000E+00 
    1.0000000000000000E+00     8.1249999999951039E-01     0.0000000000000000E+00 
    1.0000000000000000E+00     8.4374999999959199E-01     0.0000000000000000E+00 
    1.0000000000000000E+00     8.7499999999967359E-01     0.0000000000000000E+00 
    1.0000000000000000E+00     9.0624999999975520E-01     0.0000000000000000E+00 
    1.0000000000000000E+00     9.3749999999983680E-01     0.0000000000000000E+00 
    1.0000000000000000E+00     9.6874999999991840E-01     0.0000000000000000E+00 
    9.6875000000003686E-01     1.0000000000000000E+00     0.0000000000000000E+00 
    9.3750000000011691E-01     1.0000000000000000E+00     0.0000000000000000E+00 
    9.0625000000015765E-01     1.0000000000000000E+00     0.0000000000000000E+00 
    8.7500000000017863E-01     1.0000000000000000E+00     0.0000000000000000E+00 
    8.4375000000028044E-01     1.0000000000000000E+00     0.0000000000000000E+00 
    8.1250000000040856E-01     1.0000000000000000E+00     0.0000000000000000E+00 
    7.8125000000054956E-01     1.0000000000000000E+00     0.0000000000000000E+00 
    7.5000000000066480E-01     1.0000000000000000E+00     0.0000000000000000E+00 
    7.1875000000086831E-01     1.0000000000000000E+00     0.0000000000000000E+00 
    6.8750000000102829E-01     1.0000000000000000E+00     0.0000000000000000E+00 
    6.5625000000114431E-01     1.0000000000000000E+00     0.0000000000000000E+00 
    6.2500000000129829E-01     1.0000000000000000E+00     0.0000000000000000E+00 
    5.9375000000147926E-01     1.0000000000000000E+00     0.0000000000000000E+00 
    5.6250000000168354E-01     1.0000000000000000E+00     0.0000000000000000E+00 
    5.3125000000188671E-01     1.0000000000000000E+00     0.0000000000000000E+00 
    5.0000000000205835E-01     1.0000000000000000E+00     0.0000000000000000E+00 
    4.6875000000192979E-01     1.0000000000000000E+00     0.0000000000000000E+00 
    4.3750000000180111E-01     1.0000000000000000E+00     0.0000000000000000E+00 
    4.0625000000167238E-01     1.0000000000000000E+00     0.0000000000000000E+00 
    3.7500000000154382E-01     1.0000000000000000E+00     0.0000000000000000E+00 
    3.4375000000141509E-01     1.0000000000000000E+00     0.0000000000000000E+00 
    3.1250000000128642E-01     1.0000000000000000E+00     0.0000000000000000E+00 
    2.8125000000115769E-01     1.0000000000000000E+00     0.0000000000000000E+00 
    2.5000000000102918E-01     1.0000000000000000E+00     0.0000000000000000E+00 
    2.1875000000090050E-01     1.0000000000000000E+00     0.0000000000000000E+00 
    1.8750000000077180E-01     1.0000000000000000E+00     0.0000000000000000E+00 
    1.5625000000064329E-01     1.0000000000000000E+00     0.0000000000000000E+00 
    1.2500000000051459E-01     1.0000000000000000E+00     0.0000000000000000E+00 
    9.3750000000385914E-02     1.0000000000000000E+00     0.0000000000000000E+00 
    6.2500000000257239E-02     1.0000000000000000E+00     0.0000000000000000E+00 
    3.1250000000128557E-02     1.0000000000000000E+00     0.0000000000000000E+00 
    0.0000000000000000E+00     9.6875000000003686E-01     0.0000000000000000E+00 
    0.0000000000000000E+00     9.3750000000011691E-01     0.0000000000000000E+00 
    0.0000000000000000E+00     9.0625000000015765E-01     0.0000000000000000E+00 
    0.0000000000000000E+00     8.7500000000017863E-01     0.0000000000000000E+00 
    0.0000000000000000E+00     8.4375000000028044E-01     0.0000000000000000E+00 
    0.0000000000000000E+00     8.1250000000040856E-01     0.0000000000000000E+00 
    0.0000000000000000E+00     7.8125000000054956E-01     0.0000000000000000E+00 
    0.0000000000000000E+00     7.5000000000066480E-01     0.0000000000000000E+00 
    0.0000000000000000E+00     7.1875000000086831E-01     0.0000000000000000E+00 
    0.0000000000000000E+00     6.8750000000102829E-01     0.0000000000000000E+00 
    0.0000000000000000E+00     6.5625000000114431E-01     0.0000000000000000E+00 
    0.0000000000000000E+00     6.2500000000129829E-01     0.0000000000000000E+00 
    0.0000000000000000E+00     5.9375000000147926E-01     0.0000000000000000E+00 
    0.0000000000000000E+00     5.6250000000168354E-01     0.0000000000000000E+00 
    0.0000000000000000E+00     5.3125000000188671E-01     0.0000000000000000E+00 
    0.0000000000000000E+00     5.0000000000205835E-01     0.0000000000000000E+00 
    0.0000000000000000E+00     4.6875000000192979E-01     0.0000000000000000E+00 
    0.0000000000000000E+00     4.3750000000180111E-01     0.0000000000000000E+00 
    0.0000000000000000E+00     4.0625000000167238E-01     0.0000000000000000E+00 
[...]
CELL_DATA 2795 
SCALARS Pressure double 1 
LOOKUP_TABLE default 

    7.1571271750957228E+00 
    1.6183030119830608E+01 
    1.1367780897373132E+01 
    1.1011667687408302E+01 
    8.7779143047088759E+00 
    1.6032096808642372E+01 
    1.6829893868136448E+01 
    6.4004195432589599E+00 
    1.1918219079546294E+01 
    9.1655185470622289E+00 
    7.8201355873739145E+00 
    1.5747221173796481E+01 
    1.6087450605371167E+01 
    1.5997688649284829E+01 
    1.0489399292816367E+01 
    6.2952911647971872E+00 
    1.0138710951248200E+01 
    8.3258514491667377E+00 
    1.5340488393028402E+01 
    1.1351081592334932E+01 
    1.1247708252058498E+01 
    1.5924661710175171E+01 
    1.0713943230186894E+01 
    4.1788874613328880E-01 
    1.5741845737240759E+01 
    1.6049315487076573E+01 
    1.6863433278370312E+01 
    7.5342810417796304E+00 
    1.5658669106869356E+01 
    1.6854198288482596E+01 
    1.1475835736967728E+01 
    1.1557194410325247E+01 
    8.1864759845361537E+00 
    1.1330940927946070E+01 
    3.6797108925096254E+00 
    1.0144040790568383E+01 
    1.1317452108683185E+01 
    1.6896463195141891E+01 
    1.6804731245853773E+01 
    1.5761315547633378E+01 
    8.7475653336197059E+00 
    1.5727357427385993E+01 
    8.6835389891902759E-01 
    1.1278645146611325E+01 
    1.6608954040957542E+01 
    1.6390143040426523E+01 
    1.5735409431267806E+01 
    1.2364499119652248E+01 
    1.5803292403475666E+01 
    1.0370329418793318E+01 
    9.8850004436183081E+00 
    1.1521728141585635E+01 
    1.1166718275660742E+01 
    1.0201206451854373E+01 
    1.1547893848152359E+01 
    1.5104938690521811E+01 
    1.3382519958440243E+01 
    8.8248496830627747E+00 
    1.5930313028852593E+01 
    1.5842932861525370E+01 
    1.0983332246245954E+01 
    1.0938857345378324E+01 
    1.0903327720488775E+01 
    1.6748722085490236E+01 
    1.7026486186555651E+01 
    1.0152219261536260E+01 
    1.1520310718581214E+01 
    1.5576325404571399E+01 
    1.3327125053445144E+01 
    1.0992497884677025E+01 
    1.7032957034426662E+01 
    1.5878461313364445E+01 
    1.0009568360776957E+01 
    1.6511442462274452E+01 
    1.1794085751802420E+01 
    1.5582951923975948E+01 
    1.6908247101464109E+01 
    1.1884625308462427E+01 
    7.3191734737362770E+00 
    1.1538461870011707E+01 
    1.6814742552733936E+01 
    1.7062457465953315E+01 
    1.0166707352781156E+01 
    1.1462957853298663E+01 
    1.7112682426371730E+01 
    1.1317221095494290E+01 
    1.0810140509027665E+01 
    1.3809168685283280E+01 
    6.9867489060256194E+00 
    9.9102211251183157E+00 
    1.1460684131555608E+01 
    1.2076349965610863E+01 
    1.8655071651521617E+01 
    8.5335597375238397E+00 
    1.1528164858204313E+01 
    1.5710859087166552E+01 
    1.6032754492705980E+01 
    7.5317785080216177E+00 
    1.1181037317182179E+01 
    1.1493533091396239E+01 
    1.6056139816290024E+01 
    1.1486474507114277E+01 
    1.5978696623310816E+01 
    4.5712782648416219E+00 
    7.6046917714064346E+00 
    1.1745595143082291E+01 
    1.6191333219154942E+01 
    1.0105319317938442E+01 
    1.0738184716291997E+01 
    1.1466163258453799E+01 
    1.0772253149483406E+01 
    1.2958717007842210E+01 
    1.0452567672758432E+01 
    1.0019283359651547E+01 
    8.0093376618796412E+00 
    1.3590684350975188E+01 
    1.1561803496915019E+01 
    1.6653235580603187E+01 
    9.9419218823941282E+00 
    1.0989755201437335E+01 
    1.5866405797960324E+01 
    9.2071464343743035E+00 
    1.6356845236528301E+01 
    1.1390534499595502E+01 
    1.0912971429819068E+01 
    1.6035522456807779E+01 
    1.1550788940421613E+01 
    1.6922549626666132E+01 
    1.3831666152021830E+01 
    1.4928002518824457E+01 
    1.6881435911711492E+01 
    8.5505093807478207E+00 
    1.1769026894361582E+01 
    1.6034059131523183E+01 
    3.4145033869459196E+00 
    1.1525342315865352E+01 
    1.6845143235665173E+01 
    1.0943686701782838E+01 
    1.2631983212141444E+01 
    7.5337816954854633E+00 
    1.5708055949823459E+01 
    1.9164010843500495E+01 
    1.4367849848867767E+01 
    1.0944143599969369E+01 
    9.7990654323658362E+00 
    1.2220488753429715E+01 
    1.1407387262437609E+01 
    7.9036448766773670E+00 
    1.6877011262210758E+01 
    1.6068945756181197E+01 
    1.5712691629146322E+01 
    1.2092893817626688E+01 
    9.9810063353029328E+00 
    1.1244640738174569E+01 
    1.6545462734363735E+01 
    1.0261294311861727E+01 
    1.1464097308405634E+01 
    1.0446559150165632E+01 
    1.3296817385391723E+01 
    1.9151768465373927E+01 
    1.5703416131422863E+01 
    9.9905074755923771E+00 
    1.6248000118024976E+01 
    1.6147231593614308E+01 
    1.6234125604416754E+01 
    1.7324161493547400E+01 
    1.7899046898147709E+01 
    1.6385000358919573E+01 
    1.1512064863849798E+01 
    1.2461136002844892E+01 
    1.6202149985635259E+01 
    1.6666715760989341E+01 
    8.2512000294299437E+00 
    1.5734973560096501E+01 
    1.6505510767653384E+01 
    8.0305161985693054E+00 
    1.7243365928931244E+01 
    1.7215860762478208E+01 
    1.5417942928938601E+01 
    1.1850742663468013E+01 
    2.9990243582418121E+00 
    1.6846196013487020E+01 
    1.1685533772788359E+01 
    1.6974668427047284E+01 
    1.0866036902449052E+01 
    1.6662843232332719E+01 
    1.0720892662254269E+00 
    1.4940203120460948E+01 
    1.0986449698677285E+01 
    9.9306378499666543E+00 
    9.6815754934760196E+00 
    1.1359286529236739E+01 
    1.2554541622627942E+01 
    1.1926232586654043E+01 
    8.1233443201432856E+00 
    1.6660431109248293E+01 
    1.6059430372611224E+01 
    1.3452790930721029E+01 
    1.1738044727685837E+01 
    1.7368085580109525E+00 
    8.9401628063433947E+00 
    6.2332934633058104E+00 
    1.6864989363163527E+01 
    1.2716179711319480E+01 
    1.6095123827974341E+01 
    1.6132446116956586E+01 
    1.0347614236341832E+01 
    1.3293877148760471E+01 
    1.5707454398261168E+01 
    1.7197260173293646E+01 
    7.4924526209095204E+00 
    1.4218078196269026E+01 
    1.1920981110446839E+01 
    6.6425062400857398E+00 
    1.0340286839906373E+01 
    1.3958002656154331E+01 
    1.6090341150830078E+01 
    1.1411001234658400E+01 
    1.6210494675439037E+01 
    1.5954978388160194E+01 
    1.5898553684716211E+01 
    1.1249657802635088E+01 
    9.8544448181430120E+00 
    1.5721247889997020E+01 
    1.0004731114871880E+01 
    1.1493860321706574E+01 
    9.8081934873493140E+00 
    1.1412194224919881E+01 
    1.6142528932749162E+01 
    7.1537769610334871E+00 
    1.0237442742673995E+01 
    1.6774305075087533E+01 
    1.1259233128831074E+01 
    1.2613479673770719E+01 
    7.3388201301118050E+00 
    1.0074978958416052E+01 
    1.5930908734737091E+01 
    1.6271020349979079E+01 
    5.9926836838886182E+00 
    1.1269437995191169E+01 
    9.8707426075411497E+00 
    1.7651635455284346E+01 
    1.7071389386407681E+01 
    1.7929097632196576E+01 
    1.1289364741744896E+01 
    1.6112903796800509E+01 
    1.5657521267746988E+01 
    1.1150168593910083E+01 
    1.5713189718684422E+01 
    1.1739452995857002E+01 
    6.7259480200520843E+00 
    1.1602595749146014E+01 
    1.6757218158924125E+01 
    1.5709650586696608E+01 
    7.7840652611335184E+00 
    1.5742802609546546E+01 
    1.2579252026338255E+01 
    1.1503554920154658E+01 
    1.1023255770438967E+01 
    1.5559958822035744E+01 
    1.2054613619367199E+01 
    1.5727354987875481E+01 
    1.1205638302516997E+01 
    6.9578216437385993E+00 
    1.1570177422014392E+01 
    9.6949833603087416E+00 
    1.4379695034812743E+01 
    1.6975137830468377E+01 
    1.5719224710978873E+01 
    1.6838375595790108E+01 
    1.1202506347177993E+01 
    7.5774484642337434E+00 
    7.6841579320937878E+00 
    1.1701294209976554E+01 
    1.1467071603525184E+01 
    1.6664945257819386E+00 
    1.5155737079918273E+01 
    1.7356362604731782E+01 
    1.0882405744610102E+01 
    7.0227654481128994E+00 
    1.3237223198970977E+01 
    1.5741008166367203E+01 
    8.2795492104482857E+00 
    5.6300591302605953E+00 
    1.1449229087701152E+01 
    1.5821860218348109E+01 
    1.6556543042755084E+01 
    1.6427610394733719E+01 
    1.6274217746004680E+01 
    8.1425454187600170E+00 
    1.1498345111155359E+01 
    1.5215635972747972E+01 
    8.9969173773476641E+00 
    1.6072996274494443E+01 
    1.3551767273696299E+01 
    7.7999686504452566E+00 
    1.5853156720309366E+01 
    1.6879203479422369E+01 
    1.5882869039718539E+01 
    7.9718187750096199E+00 
    1.1516437535020858E+01 
    8.7495150321629378E+00 
    1.0876729327650404E+01 
    1.5731601187090341E+01 
    1.5718345137429052E+01 
    8.0176860054933776E+00 
    1.6707609475349095E+01 
    1.2089115182077899E+01 
    1.5751939118231014E+01 
    1.6675467740320006E+01 
    1.5739226572301490E+01 
    1.4639037611402488E+01 
    1.7712237612939646E+01 
    1.0828161544489413E+01 
    1.6804676565165622E+01 
    1.5781165720344614E+01 
    1.6883950318107228E+01 
    1.6700470884106156E+01 
    1.0939834898614313E+01 
    1.1357553837093018E+01 
    1.0872129228986752E+01 
    1.4062715752024339E+01 
    4.5900870668226315E+00 
    1.1632399706862545E+01 
    1.7844542527473191E+01 
    1.1742003941565214E+01 
    1.1950107843293024E+01 
    1.6854826802859940E+01 
    1.7102612306680168E+01 
    1.0736696716084230E+01 
    1.5747661937158689E+01 
    1.5713878290627145E+01 
    1.1936139331713512E+01 
    1.6651692180726812E+01 
    8.1908453574088220E+00 
    5.2291414849842548E+00 
    1.2251590192896574E+01 
    1.1755775522389126E+01 
    1.5720237078591085E+01 
    7.5067115340403552E+00 
    1.6337674029300508E+01 
    5.3188000672115132E+00 
    1.1690448672719382E+01 
    1.0961514412889805E+01 
    1.1493381305581199E+01 
    1.9204164115154494E+01 
    4.4499188679231896E+00 
    1.1543845531688156E+01 
    1.3819873744845108E+01 
    1.1095730404235523E+01 
    8.9272789715839682E+00 
    1.6466302652954749E+01 
    1.8745881527563547E+01 
    1.6628126901312722E+01 
    1.1478401763340825E+01 
    6.6046742193474550E+00 
    1.8592101707645373E+01 
    1.6048603111245921E+01 
    8.5405528023980111E+00 
    1.1110498820222540E+01 
    1.7306450905054390E+01 
    3.7891649687565350E+00 
    1.1812962211889074E+01 
    1.6599116168479956E+01 
    1.1508100591511786E+01 
    1.0035659267618666E+01 
    1.1586606199715991E+01 
    1.5418334732328503E+01 
    1.1490111040175776E+01 
    5.8796481992247180E+00 
    1.0463234647144282E+00 
    8.5907653356248908E+00 
    1.7544598939593470E+01 
    1.0871560095351050E+01 
    1.2912972032092318E+01 
    1.2376466722673285E+01 
    1.4295927158475967E+01 
    1.1521609461108003E+01 
    1.5947998096188066E+01 
    1.9218878740596953E+01 
    1.3713962858403177E+01 
    1.6774551108470327E+01 
    6.2222981210980322E-01 
    1.5720601968912373E+01 
    6.5090251105159371E+00 
    1.8021808570580173E+01 
    1.1558478389034661E+01 
    1.0227012552663632E+01 
    8.9213922272660167E+00 
    6.1651147303341070E+00 
    1.2898743022677262E+01 
    9.1087059803459560E+00 
    1.4261002228515496E+01 
    2.5219071598221254E+00 
    1.2619721644847301E+01 
    1.5643911041873881E+01 
    6.9830982895392815E+00 
    1.6231453367597947E+01 
    1.7807499752602681E+01 
    1.6060016075558490E+01 
    1.1411029010649665E+01 
    1.1487545621423180E+01 
    1.1550698678068606E+01 
    6.6833299797446717E+00 
    1.0570748700102104E+01 
    1.0393996405133814E+01 
    1.1538856022225842E+01 
    1.0793924490566624E+01 
    7.9056645901606359E-01 
    7.4572294249814517E+00 
    1.1239797568312470E+01 
    1.1511440140902389E+01 
    1.4654705672328300E+01 
    2.4890100911734243E+00 
    1.1891162385651745E+01 
    1.1762882592904399E+01 
    4.2868004012675467E+00 
    1.5911240231951048E+01 
    1.0025920920611719E+01 
    1.1620895386713032E+01 
    1.6046064299292127E+01 
    6.1939333888488299E+00 
    1.6034459922025981E+01 
    1.0157209532450848E+01 
    1.1349055521501892E+00 
    1.0941269805005184E+01 
    1.6723207951197757E+01 
    1.5720361280838647E+01 
    1.5740535827383278E+01 
    1.1918920448522725E+01 
    1.1693513147734576E+01 
    1.0001861906161100E+01 
    8.1513354118608596E+00 
    1.6168962765385782E+01 
    1.1105494960900918E+01 
    7.9144108638482127E+00 
    1.5735938468547026E+01 
    1.6497770040655098E+01 
    1.1727287835790685E+01 
    1.1306859676134724E+01 
    1.9093302957478386E+01 
    1.1937186788496001E+01 
    1.6185287302077818E+01 
    9.5162225486480079E+00 
    1.9247753550372522E+01 
    7.6397605297210616E+00 
    1.0454381161113321E+01 
    8.5562421858427520E+00 
    1.2195972900024289E+01 
    9.8083632382403980E+00 
    1.9230855456481141E+01 
    1.1990927319609728E+01 
    1.5368312426170011E+01 
    7.8563669003315457E+00 
    1.1516617959534612E+01 
    1.6010984412761868E+01 
    9.8470057204021764E+00 
    8.4998874055376366E+00 
    1.2861405109504901E+01 
    1.6253851639718317E+01 
    8.4242204988430398E+00 
    1.0984980356588304E+01 
    1.1341441718328777E+01 
    1.5693000632356179E+01 
    1.1121903353563935E+01 
    1.6231499680955970E+01 
    1.6915236287163271E+01 
    1.0033365724078957E+01 
    9.8371375723086931E+00 
    9.1299260681492758E+00 
    1.5848983160143916E+01 
    1.1789406243953291E+01 
    1.8786716837962416E+01 
    1.4724242751787479E+01 
    1.5966180569505932E+01 
    1.8459292581069548E+01 
    1.7815052077124740E+01 
    1.1563263653347100E+01 
    1.1522341080926671E+01 
    1.5449159269741623E+01 
    1.5763147663997799E+01 
    1.6360554694569842E+01 
    1.6071537009119094E+01 
    1.9116334430911515E+01 
    1.1936651735002819E+01 
    1.0147945243626618E+01 
    1.1929924307020979E+01 
    1.6820968564725508E+01 
    1.1658461274939695E+01 
    6.8225353035633676E+00 
    1.1393387744269976E+01 
    1.7271777852805897E+01 
    1.1802142767391436E+01 
    1.0160112393476634E+01 
    1.1282602970222428E+01 
    1.7390886500571263E+01 
    1.5790932893019978E+01 
    9.6844880231220376E+00 
    1.7537119467434632E+01 
    1.1591734727314265E+01 
    1.6346091102830940E+01 
    1.7405344952294143E+01 
    1.2234104614144789E+01 
    6.2024343547232670E+00 
    1.2751225933907271E+01 
    6.4159705066865689E+00 
    1.1708330381443004E+01 
    1.1511910483212002E+01 
    1.3448525722232947E+01 
    6.7897011525626967E+00 
    1.4284296469775468E+01 
    1.1529171358662191E+01 
    1.6060473490665618E+01 
    1.2302565388908132E+01 
    9.5246752005646158E+00 
    1.1144266379924797E+01 
    1.2087406306440402E+01 
    1.2052902427267506E+01 
    1.6963946773663924E+01 
    9.6960647487889045E+00 
    9.5314891035647875E+00 
    7.1478802776879355E+00 
    1.6384621229855643E+01 
    1.1190291091011945E+01 
    1.5556621454698231E+01 
    1.1481178187673549E+01 
    7.8180567278638016E+00 
    1.5823004456587892E+01 
    1.1457670351450107E+01 
    8.5088861148101387E+00 
    8.9997792504604188E+00 
    9.3111425870367448E+00 
    1.6094639999595298E+01 
    1.1541014198617306E+01 
    1.6787671600481566E+01 
    1.1418010908066178E+01 
    1.1357455689899085E+01 
    1.0896240685657649E+01 
    1.5916191515916410E+01 
    1.1272880098749894E+01 
    9.3537436038794901E+00 
    1.7803122051301870E+01 
    1.6006617881585360E+01 
    8.0017528500659267E+00 
    3.1376685813139398E+00 
    1.1529776821526983E+01 
    1.0827363231660097E+01 
    9.8234809056560106E+00 
    1.0678375622223871E+01 
    1.5949062254977356E+01 
    1.1210073118489232E+01 
    1.0207101189058445E+01 
    1.5787481257257774E+01 
    7.9327710979899377E+00 
    1.5406322401709470E+01 
    1.0445991867778210E+01 
    9.3525116899774812E+00 
    9.9184585409264319E+00 
    1.6438868751246076E+01 
    1.1496017288645147E+01 
    1.1504336032981621E+01 
    6.8743837326988491E+00 
    7.4276082500560330E+00 
    1.4590568401519745E+01 
    1.1514156410398749E+01 
    1.1572880864497060E+01 
    1.7522454484753894E+01 
    9.5367597244611897E+00 
    1.1526389007543148E+01 
    8.2059488362380737E+00 
    8.4698261970270590E+00 
    1.5906836368865271E+01 
    1.1150000831341679E+01 
    8.1841587979252175E+00 
    1.2086140333797337E+01 
    1.1412918437611221E+01 
    1.5911120894849390E+01 
    1.7621682817337625E+01 
    1.1881011366317091E+00 
    1.1535089317938903E+01 
    1.1754341399561637E+01 
    1.5983849171744657E+01 
    1.1020866726111306E+01 
    1.1468888738594334E+01 
    1.7023294021624668E+01 
    9.9602397181782791E+00 
    8.2580865258120610E+00 
    1.3818173726424329E+01 
    1.5735770882730117E+01 
    1.6881955504347022E+01 
    1.7170758435300161E+01 
    1.1363957113647933E+01 
    1.1525733487658908E+01 
    1.2921509812523855E+01 
    7.6078165365213621E+00 
    1.5880386872722411E+01 
    8.8905912656565214E+00 
    7.9188758028627859E+00 
    1.4413039091116300E+01 
    1.3593313934648966E+01 
    7.7675589622390691E+00 
    1.5775289282134276E+01 
    1.6866989923092262E+01 
    1.1954314245274478E+01 
    1.7730416831730089E+01 
    1.5812489077782258E+01 
    1.1082775890408897E+01 
    1.6578600191458197E+01 
    8.4667853252938841E+00 
    1.5756785083422553E+01 
    1.1533855095834410E+01 
    1.1493057299516114E+01 
    1.7706007408157149E+01 
    1.1229879195672051E+01 
    1.4158285703833126E+01 
    9.9025854051400515E+00 
    1.6995128136084826E+01 
    1.5651455694722797E+01 
    1.0325661798304164E+01 
    1.5708008393747379E+01 
    1.0473855956832431E+01 
    1.1476561093024962E+01 
    1.6822753323153503E+01 
    1.6068429587641976E+01 
    1.6870345588901099E+01 
    1.5987586744758838E+01 
    1.0576629063261036E+01 
    1.0813616752535744E+01 
    1.6878110238558598E+01 
    1.0953002316876921E+01 
    1.5567497545827742E+01 
    1.1214866016351069E+01 
    4.6162537642176860E+00 
    8.0024995855030649E+00 
    7.4137898611860447E+00 
    1.6826812767601147E+01 
    1.7629219284188956E+01 
    1.5728358288001559E+01 
    1.3202033077285330E+01 
    1.6050431224539349E+01 
    1.5784931575580336E+01 
    1.6438889432695262E+01 
    6.6448584372254684E+00 
    4.2997014965133626E+00 
    1.2958460155198406E+01 
    1.1193605172807592E+01 
    1.5951704741454746E+01 
    1.5948914739860696E+01 
    1.1778311974470052E+01 
    1.5990665291647160E+01 
    1.1519567854088951E+01 
    1.1440323309019291E+01 
    5.9952971161185671E+00 
    4.2880732716130536E+00 
    1.7387096253902342E+01 
    8.9950579772172290E+00 
    1.0261130304372411E+01 
    1.1669990176726637E+01 
    1.9095832336447522E+01 
    1.1764268401910995E+01 
    1.1874642591143976E+01 
    4.8836883677011258E+00 
    1.1764663152207415E+01 
    1.1779662414816931E+01 
    1.6281435787537152E+01 
    9.9259779068528946E+00 
    1.1028574434993985E+01 
    1.7568383043227964E+01 
    1.1544111007288699E+01 
    1.5746059036590866E+01 
    1.6005588621805359E+01 
    1.4086071268478522E+01 
    9.7865033593963311E+00 
    1.5987235019520549E+01 
    1.1328081743734678E+01 
    1.5927383599770513E+01 
    1.5677635514943402E+01 
    1.6847778634957464E+01 
    1.5984830478185962E+01 
    1.4974735613273554E+01 
    1.1531752074864309E+01 
    7.7083778105622045E+00 
    1.8963850155527403E+01 
    9.0700459946099894E+00 
    1.6767160167700851E+01 
    1.1529002284369954E+01 
    9.5867631594586715E+00 
    5.7389732123896282E+00 
    1.1819939660950123E+01 
    1.5972341150012568E+01 
    1.5968335399770872E+01 
    1.1456856677395180E+01 
    1.1522818850080181E+01 
    1.7788397545196261E+01 
    1.7109386935950301E+01 
    1.1784543260003387E+01 
    3.9976691036519627E+00 
    1.4861480413889659E+01 
    1.9227702765114358E+01 
    1.1535259758703559E+01 
    1.3629103609815164E+01 
    1.1020192425045298E+01 
    1.8813482412161751E+01 
    1.7196584516031958E+01 
    1.6916336701095585E+01 
    1.1807663379123085E+01 
    5.3266823395113088E+00 
    1.0973522715842842E+01 
    1.1046106352564625E+01 
    1.1087816005525829E+01 
    4.3581709703725844E+00 