# vtk DataFile Version 2.0
Pressure Field Data 
ASCII 
DATASET UNSTRUCTURED_GRID 

POINTS 2860 double 

    0.0000000000000000E+00     0.0000000000000000E+00     0.0000000000000000E+00 
    1.0000000000000000E+00     0.0000000000000000E+00     0.0000000000000000E+00 
    1.0000000000000000E+00     1.0000000000000000E+00     0.0000000000000000E+00 
    0.0000000000000000E+00     1.0000000000000000E+00     0.0000000000000000E+00 
    2.5000000000000000E-01     2.5000000000000000E-01     0.0000000000000000E+00 
    7.5000000000000000E-01     2.5000000000000000E-01     0.0000000000000000E+00 
    7.5000000000000000E-01     7.5000000000000000E-01     0.0000000000000000E+00 
    2.5000000000000000E-01     7.5000000000000000E-01     0.0000000000000000E+00 
    3.1249999999942091E-02     0.0000000000000000E+00     0.0000000000000000E+00 
    6.2499999999873469E-02     0.0000000000000000E+00     0.0000000000000000E+00 
    9.3749999999826514E-02     0.0000000000000000E+00     0.0000000000000000E+00 
    1.2499999999977961E-01     0.0000000000000000E+00     0.0000000000000000E+00 
    1.5624999999968961E-01     0.0000000000000000E+00     0.0000000000000000E+00 
    1.8749999999959971E-01     0.0000000000000000E+00     0.0000000000000000E+00 
    2.1874999999950970E-01     0.0000000000000000E+00     0.0000000000000000E+00 
    2.4999999999941969E-01     0.0000000000000000E+00     0.0000000000000000E+00 
    2.8124999999932920E-01     0.0000000000000000E+00     0.0000000000000000E+00 
    3.1249999999923850E-01     0.0000000000000000E+00     0.0000000000000000E+00 
    3.4374999999914790E-01     0.0000000000000000E+00     0.0000000000000000E+00 
    3.7499999999905720E-01     0.0000000000000000E+00     0.0000000000000000E+00 
    4.0624999999896660E-01     0.0000000000000000E+00     0.0000000000000000E+00 
    4.3749999999887590E-01     0.0000000000000000E+00     0.0000000000000000E+00 
    4.6874999999878530E-01     0.0000000000000000E+00     0.0000000000000000E+00 
    4.9999999999869471E-01     0.0000000000000000E+00     0.0000000000000000E+00 
    5.3124999999877620E-01     0.0000000000000000E+00     0.0000000000000000E+00 
    5.6249999999885780E-01     0.0000000000000000E+00     0.0000000000000000E+00 
    5.9374999999893940E-01     0.0000000000000000E+00     0.0000000000000000E+00 
    6.2499999999902101E-01     0.0000000000000000E+00     0.0000000000000000E+00 
    6.5624999999910261E-01     0.0000000000000000E+00     0.0000000000000000E+00 
    6.8749999999918421E-01     0.0000000000000000E+00     0.0000000000000000E+00 
    7.1874999999926570E-01     0.0000000000000000E+00     0.0000000000000000E+00 
    7.4999999999934730E-01     0.0000000000000000E+00     0.0000000000000000E+00 
    7.8124999999942890E-01     0.0000000000000000E+00     0.0000000000000000E+00 
    8.1249999999951039E-01     0.0000000000000000E+00     0.0000000000000000E+00 
    8.4374999999959199E-01     0.0000000000000000E+00     0.0000000000000000E+00 
    8.7499999999967359E-01     0.0000000000000000E+00     0.0000000000000000E+00 
    9.0624999999975520E-01     0.0000000000000000E+00     0.0000000000000000E+00 
    9.3749999999983680E-01     0.0000000000000000E+00     0.0000000000000000E+00 
    9.6874999999991840E-01     0.0000000000000000E+00     0.0000000000000000E+00 
    1.0000000000000000E+00     3.1249999999942091E-02     0.0000000000000000E+00 
    1.0000000000000000E+00     6.2499999999873469E-02     0.0000000000000000E+00 
    1.0000000000000000E+00     9.3749999999826514E-02     0.0000000000000000E+00 
    1.0000000000000000E+00     1.2499999999977961E-01     0.0000000000000000E+00 
    1.0000000000000000E+00     1.5624999999968961E-01     0.0000000000000000E+00 
    1.0000000000000000E+00     1.8749999999959971E-01     0.0000000000000000E+00 
    1.0000000000000000E+00     2.1874999999950970E-01     0.0000000000000000E+00 
    1.0000000000000000E+00     2.4999999999941969E-01     0.0000000000000000E+00 
    1.0000000000000000E+00     2.8124999999932920E-01     0.0000000000000000E+00 
    1.0000000000000000E+00     3.1249999999923850E-01     0.0000000000000000E+00 
    1.0000000000000000E+00     3.4374999999914790E-01     0.0000000000000000E+00 
    1.0000000000000000E+00     3.7499999999905720E-01     0.0000000000000000E+00 
    1.0000000000000000E+00     4.0624999999896660E-01     0.0000000000000000E+00 
    1.0000000000000000E+00     4.3749999999887590E-01     0.0000000000000000E+00 
    1.0000000000000000E+00     4.6874999999878530E-01     0.0000000000000000E+00 
    1.0000000000000000E+00     4.9999999999869471E-01     0.0000000000000000E+00 
    1.0000000000000000E+00     5.3124999999877620E-01     0.0000000000000000E+00 
    1.0000000000000000E+00     5.6249999999885780E-01     0.0000000000000000E+00 
    1.0000000000000000E+00     5.9374999999893940E-01     0.0000000000000000E+00 
    1.0000000000000000E+00     6.2499999999902101E-01     0.0000000000000000E+00 
    1.0000000000000000E+00     6.5624999999910261E-01     0.0000000000000000E+00 
    1.0000000000000000E+00     6.8749999999918421E-01     0.0000000000000000E+00 
    1.0000000000000000E+00     7.1874999999926570E-01     0.0000000000000000E+00 
    1.0000000000000000E+00     7.4999999999934730E-01     0.0000000000000000E+00 
    1.0000000000000000E+00     7.8124999999942890E-01     0.0000000000000000E+00 
    1.0000000000000000E+00     8.1249999999951039E-01     0.0000000000000000E+00 
    1.0000000000000000E+00     8.4374999999959199E-01     0.0000000000000000E+00 
    1.0000000000000000E+00     8.7499999999967359E-01     0.0000000000000000E+00 
    1.0000000000000000E+00     9.0624999999975520E-01     0.0000000000000000E+00 
    1.0000000000000000E+00     9.3749999999983680E-01     0.0000000000000000E+00 
    1.0000000000000000E+00     9.6874999999991840E-01     0.0000000000000000E+00 
    9.6875000000003686E-01     1.0000000000000000E+00     0.0000000000000000E+00 
    9.3750000000011691E-01     1.0000000000000000E+00     0.0000000000000000E+00 
    9.0625000000015765E-01     1.0000000000000000E+00     0.0000000000000000E+00 
    8.7500000000017863E-01     1.0000000000000000E+00     0.0000000000000000E+00 
    8.4375000000028044E-01     1.0000000000000000E+00     0.0000000000000000E+00 
    8.1250000000040856E-01     1.0000000000000000E+00     0.0000000000000000E+00 
    7.8125000000054956E-01     1.0000000000000000E+00     0.0000000000000000E+00 
    7.5000000000066480E-01     1.0000000000000000E+00     0.0000000000000000E+00 
    7.1875000000086831E-01     1.0000000000000000E+00     0.0000000000000000E+00 
    6.8750000000102829E-01     1.0000000000000000E+00     0.0000000000000000E+00 
    6.5625000000114431E-01     1.0000000000000000E+00     0.0000000000000000E+00 
    6.2500000000129829E-01     1.0000000000000000E+00     0.0000000000000000E+00 
    5.9375000000147926E-01     1.0000000000000000E+00     0.0000000000000000E+00 
    5.6250000000168354E-01     1.0000000000000000E+00     0.0000000000000000E+00 
    5.3125000000188671E-01     1.0000000000000000E+00     0.0000000000000000E+00 
    5.0000000000205835E-01     1.0000000000000000E+00     0.0000000000000000E+00 
    4.6875000000192979E-01     1.0000000000000000E+00     0.0000000000000000E+00 
    4.3750000000180111E-01     1.0000000000000000E+00     0.0000000000000000E+00 
    4.0625000000167238E-01     1.0000000000000000E+00     0.0000000000000000E+00 
    3.7500000000154382E-01     1.0000000000000000E+00     0.0000000000000000E+00 
    3.4375000000141509E-01     1.0000000000000000E+00     0.0000000000000000E+00 
    3.1250000000128642E-01     1.0000000000000000E+00     0.0000000000000000E+00 
    2.8125000000115769E-01     1.0000000000000000E+00     0.0000000000000000E+00 
    2.5000000000102918E-01     1.0000000000000000E+00     0.0000000000000000E+00 
    2.1875000000090050E-01     1.0000000000000000E+00     0.0000000000000000E+00 
    1.8750000000077180E-01     1.0000000000000000E+00     0.0000000000000000E+00 
    1.5625000000064329E-01     1.0000000000000000E+00     0.0000000000000000E+00 
    1.2500000000051459E-01     1.0000000000000000E+00     0.0000000000000000E+00 
    9.3750000000385914E-02     1.0000000000000000E+00     0.0000000000000000E+00 
    6.2500000000257239E-02     1.0000000000000000E+00     0.0000000000000000E+00 
    3.1250000000128557E-02     1.0000000000000000E+00     0.0000000000000000E+00 
    0.0000000000000000E+00     9.6875000000003686E-01     0.0000000000000000E+00 
    0.0000000000000000E+00     9.3750000000011691E-01     0.0000000000000000E+00 
    0.0000000000000000E+00     9.0625000000015765E-01     0.0000000000000000E+00 
    0.0000000000000000E+00     8.7500000000017863E-01     0.0000000000000000E+00 
    0.0000000000000000E+00     8.4375000000028044E-01     0.0000000000000000E+00 
    0.0000000000000000E+00     8.1250000000040856E-01     0.0000000000000000E+00 
    0.0000000000000000E+00     7.8125000000054956E-01     0.0000000000000000E+00 
    0.0000000000000000E+00     7.5000000000066480E-01     0.0000000000000000E+00 
    0.0000000000000000E+00     7.1875000000086831E-01     0.0000000000000000E+00 
    0.0000000000000000E+00     6.8750000000102829E-01     0.0000000000000000E+00 
    0.0000000000000000E+00     6.5625000000114431E-01     0.0000000000000000E+00 
    0.0000000000000000E+00     6.2500000000129829E-01     0.0000000000000000E+00 
    0.0000000000000000E+00     5.9375000000147926E-01     0.0000000000000000E+00 
    0.0000000000000000E+00     5.6250000000168354E-01     0.0000000000000000E+00 
    0.0000000000000000E+00     5.3125000000188671E-01     0.0000000000000000E+00 
    0.0000000000000000E+00     5.0000000000205835E-01     0.0000000000000000E+00 
    0.0000000000000000E+00     4.6875000000192979E-01     0.0000000000000000E+00 
    0.0000000000000000E+00     4.3750000000180111E-01     0.0000000000000000E+00 
    0.0000000000000000E+00     4.0625000000167238E-01     0.0000000000000000E+00 
[...]
CELL_DATA 2795 
SCALARS Pressure double 1 
LOOKUP_TABLE default 

    5.2684238394548046E+00 
    1.2068814215275923E+01 
    8.5827232845670505E+00 
    8.1857442838645085E+00 
    6.4919196913278299E+00 
    1.1967348261082210E+01 
    1.2589143720130405E+01 
    4.7010868614966741E+00 
    9.0642731779043064E+00 
    6.9532600711082182E+00 
    5.9575038754937015E+00 
    1.1752626913925756E+01 
    1.1980815603314499E+01 
    1.1941073846169644E+01 
    7.9181142858276647E+00 
    4.6220759706240173E+00 
    7.5238919711018735E+00 
    6.3357587039807166E+00 
    1.1451271934671173E+01 
    8.5798164589132870E+00 
    8.4668064914283310E+00 
    1.1886226667311908E+01 
    7.9578651725107790E+00 
    3.1049264540806970E-01 
    1.1724360129151487E+01 
    1.1962211397791485E+01 
    1.2617195860785715E+01 
    5.7242029706017901E+00 
    1.1686174409884799E+01 
    1.2616290653778547E+01 
    8.6509330822523971E+00 
    8.8098951205997658E+00 
    6.1624363628442955E+00 
    8.5435570048420892E+00 
    2.7373327463511350E+00 
    7.5283975104146705E+00 
    8.5360046681222190E+00 
    1.2652330865951045E+01 
    1.2569915301319870E+01 
    1.1763353409405415E+01 
    6.4310956897307721E+00 
    1.1708761886578570E+01 
    6.4726893695865007E-01 
    8.3975216364649317E+00 
    1.2401825382558430E+01 
    1.2257918286322711E+01 
    1.1743727692478386E+01 
    9.3780227981121698E+00 
    1.1803687965436124E+01 
    7.7014622808292623E+00 
    7.3303257029000601E+00 
    8.7780420711669649E+00 
    8.2977827736919139E+00 
    7.5686100573379962E+00 
    8.7277068898882515E+00 
    1.1276904058755164E+01 
    1.0217185753212167E+01 
    6.5274717873140000E+00 
    1.1889633459135482E+01 
    1.1825317095307717E+01 
    8.2272714583007822E+00 
    8.2462004952519514E+00 
    8.1017246647994821E+00 
    1.2530050945952745E+01 
    1.2748372939187988E+01 
    7.5327422062078186E+00 
    8.7767325506758134E+00 
    1.1668970474449582E+01 
    1.0025924349984908E+01 
    8.2798671299132938E+00 
    1.2760096369846694E+01 
    1.1822918477388761E+01 
    7.4256268151583438E+00 
    1.2343222867317873E+01 
    8.9690863921164610E+00 
    1.1601572144105175E+01 
    1.2661390006279165E+01 
    8.8350042762845415E+00 
    5.3692105446487277E+00 
    8.7935968434949050E+00 
    1.2576995151531836E+01 
    1.2791131508446824E+01 
    7.5415174880583500E+00 
    8.7077276954807807E+00 
    1.2826705734082639E+01 
    8.5421449979569477E+00 
    8.0308268458192220E+00 
    1.0365624703157051E+01 
    5.1179621920108866E+00 
    7.3500909191702606E+00 
    8.7090593287370943E+00 
    9.1824971297505744E+00 
    1.4187412802939640E+01 
    6.3064106402616140E+00 
    8.7840114866848822E+00 
    1.1725480710863796E+01 
    1.1938544751791040E+01 
    5.5442997028077095E+00 
    8.4158983237288538E+00 
    8.7375395804860183E+00 
    1.1956614402174605E+01 
    8.7434936015067173E+00 
    1.1897335663037531E+01 
    3.3730109563142840E+00 
    5.7904308917858067E+00 
    8.9786535606779001E+00 
    1.2076916956618733E+01 
    7.4976475034208541E+00 
    8.0369762598750238E+00 
    8.7289368738745257E+00 
    8.0030643723517620E+00 
    9.9621490970789583E+00 
    7.8027379111167443E+00 
    7.4323229143019720E+00 
    5.8314051523908432E+00 
    1.0099376218410228E+01 
    8.8110176172253656E+00 
    1.2453186061714632E+01 
    7.5431109298959793E+00 
    8.1750103352701906E+00 
    1.1814499534919321E+01 
    6.7993669764732978E+00 
    1.2203106146932296E+01 
    8.6251702056633786E+00 
    8.1092866580207819E+00 
    1.1940733176824482E+01 
    8.8051819431614238E+00 
    1.2667148940134247E+01 
    1.0374441252093673E+01 
    1.1153212381543730E+01 
    1.2632049567351263E+01 
    6.3195754097944175E+00 
    8.9928917647465170E+00 
    1.1945658630534126E+01 
    2.5334866624989236E+00 
    8.7038846939474581E+00 
    1.2602560388344410E+01 
    8.1388906164266253E+00 
    9.3852191884643439E+00 
    5.4933617500436744E+00 
    1.1725357489972561E+01 
    1.4657480043403156E+01 
    1.0759758778324866E+01 
    8.1331671837901762E+00 
    7.2646512532033052E+00 
    9.3336448180668210E+00 
    8.6425190825510576E+00 
    6.0206228491302740E+00 
    1.2628458116327321E+01 
    1.2030076710835115E+01 
    1.1726977354200436E+01 
    9.2018713714712117E+00 
    7.4002727038287341E+00 
    8.4666458439466439E+00 
    1.2366990580851581E+01 
    7.6153094079005035E+00 
    8.5294558106521574E+00 
    7.7561338105257107E+00 
    9.8867828055230245E+00 
    1.4646214122359728E+01 
    1.1719634709270279E+01 
    7.3673835332786650E+00 
    1.2107704622668617E+01 
    1.2040775826392256E+01 
    1.2111211864248389E+01 
    1.3008341871300491E+01 
    1.3508282940038070E+01 
    1.2253998359373904E+01 
    8.7691520870416344E+00 
    9.2746557466758315E+00 
    1.2106074529173464E+01 
    1.2460997820096408E+01 
    6.2770548750283508E+00 
    1.1743286818393884E+01 
    1.2333929994978662E+01 
    6.1185728266165302E+00 
    1.2925726572269841E+01 
    1.2918212155081724E+01 
    1.1509575691646594E+01 
    9.0463776950786574E+00 
    2.2239775346581951E+00 
    1.2602929009176709E+01 
    8.9244673623269630E+00 
    1.2713814642980113E+01 
    8.0799740912093707E+00 
    1.2454869557168180E+01 
    7.8908653703294662E-01 
    1.1169533331921739E+01 
    8.2827697131456990E+00 
    7.3662316516726243E+00 
    7.1760719655932341E+00 
    8.5953976993269876E+00 
    9.6425744687986974E+00 
    8.8589480376242005E+00 
    5.9205285740513895E+00 
    1.2458123748581752E+01 
    1.1968253081747449E+01 
    1.0130912388973835E+01 
    8.9706193812040098E+00 
    1.2991558706091602E+00 
    6.6152470758209381E+00 
    4.5689470897456674E+00 
    1.2627324525207532E+01 
    9.7201625783200498E+00 
    1.2019952728353234E+01 
    1.2025272987047796E+01 
    7.6865652114955294E+00 
    1.0135943196974992E+01 
    1.1722806354736646E+01 
    1.2901451388516708E+01 
    5.4740170460289006E+00 
    1.0571082363003303E+01 
    8.8896271496455732E+00 
    4.8701260320587663E+00 
    7.6763702655380461E+00 
    1.0564178676348771E+01 
    1.1992501465354955E+01 
    8.6537318353013166E+00 
    1.2090599797240946E+01 
    1.1883370424687408E+01 
    1.1839993380182397E+01 
    8.4749691977254447E+00 
    7.3255135456138998E+00 
    1.1733912173082448E+01 
    7.4206425930729374E+00 
    8.7466538499559352E+00 
    7.2725531060894397E+00 
    8.4805081103171744E+00 
    1.2032419497079282E+01 
    5.4437039602563813E+00 
    7.5987606440869504E+00 
    1.2547409703134081E+01 
    8.4917478728602092E+00 
    9.6193654241238438E+00 
    5.5872500915067524E+00 
    7.4755079256546484E+00 
    1.1864212243454133E+01 
    1.2140006261506063E+01 
    4.5428630685790496E+00 
    8.4909871540527746E+00 
    7.3072201407621833E+00 
    1.3289210295586788E+01 
    1.2797609805618652E+01 
    1.3532202965197470E+01 
    8.5127946224880926E+00 
    1.2010154077283017E+01 
    1.1687065380170408E+01 
    8.3943795921611741E+00 
    1.1727095505019218E+01 
    8.9697045823559360E+00 
    4.9357173331522386E+00 
    8.6708083816177748E+00 
    1.2537958766558058E+01 
    1.1724368848006659E+01 
    5.9260336088207133E+00 
    1.1749170913261748E+01 
    9.6448663637115697E+00 
    8.6871708098583156E+00 
    8.2164283225328116E+00 
    1.1612693195057130E+01 
    9.1679156478897337E+00 
    1.1738146576397186E+01 
    8.3499383396758002E+00 
    5.1238982543794185E+00 
    8.8081075420769785E+00 
    7.1841583072502004E+00 
    1.0760181628444364E+01 
    1.2709953656186890E+01 
    1.1733220549317165E+01 
    1.2596458206194397E+01 
    8.4429537695162988E+00 
    5.7711368742196951E+00 
    5.8539564257846948E+00 
    8.8746032964759323E+00 
    8.7250998399084150E+00 
    1.2261259539465597E+00 
    1.1320381495527229E+01 
    1.3030349981132446E+01 
    8.0877053817460851E+00 
    5.1408583913807524E+00 
    9.8411541749238989E+00 
    1.1747889692560380E+01 
    6.1105682137910762E+00 
    4.1372158734021856E+00 
    8.6974086527625225E+00 
    1.1829804358845664E+01 
    1.2373862207968024E+01 
    1.2271237113836181E+01 
    1.2144337377381797E+01 
    5.9593129915721024E+00 
    8.6759650130973771E+00 
    1.1320740784521975E+01 
    6.8356026895499546E+00 
    1.1969581054336308E+01 
    1.0324509650190770E+01 
    5.9423109527480360E+00 
    1.1839655533182572E+01 
    1.2620403782976986E+01 
    1.1827591472744587E+01 
    5.8821802118407298E+00 
    8.7730508007420678E+00 
    6.4695429407388731E+00 
    8.2648403396225660E+00 
    1.1740773444350392E+01 
    1.1730883826516521E+01 
    5.9168855953486039E+00 
    1.2489889635356866E+01 
    9.2453381166804469E+00 
    1.1767004292267853E+01 
    1.2465773259267296E+01 
    1.1751853165338890E+01 
    1.0964756568098508E+01 
    1.3336430333296764E+01 
    8.0617631336452309E+00 
    1.2569934750095861E+01 
    1.1789363973332650E+01 
    1.2633767061076314E+01 
    1.2484074538951280E+01 
    8.1491042226603216E+00 
    8.5775881278659512E+00 
    8.0784270387390453E+00 
    1.0556811391976083E+01 
    3.3819673253231834E+00 
    8.8122500021955350E+00 
    1.3455506610293501E+01 
    8.9752115375492227E+00 
    9.1385167755378252E+00 
    1.2609593672173881E+01 
    1.2820117506259205E+01 
    8.0383020349694636E+00 
    1.1752775802705486E+01 
    1.1728034464550595E+01 
    9.1278503077717517E+00 
    1.2444801034505694E+01 
    6.2399865737763829E+00 
    3.9459558526447891E+00 
    9.3756935966812573E+00 
    8.9872487521572673E+00 
    1.1732582606340683E+01 
    5.5290629346779578E+00 
    1.2199598893039683E+01 
    4.0190205061055249E+00 
    8.9302593702400745E+00 
    8.2262892455155345E+00 
    8.7510415780664204E+00 
    1.4696685981393474E+01 
    3.2895178009532411E+00 
    8.7231252920762206E+00 
    1.0271117803774192E+01 
    8.3545253128328856E+00 
    6.5208287437408243E+00 
    1.2304232468912634E+01 
    1.4270426217718017E+01 
    1.2428862869798287E+01 
    8.6656691122581968E+00 
    4.8446129023562587E+00 
    1.4133111131569345E+01 
    1.1956823341405027E+01 
    6.2616292795575710E+00 
    8.2573914495490204E+00 
    1.2994022277288380E+01 
    2.7970257713172648E+00 
    9.0316522014421405E+00 
    1.2398524361181671E+01 
    8.7636365568913295E+00 
    7.6202590301244353E+00 
    8.7675730680288062E+00 
    1.1499836884447971E+01 
    8.7444508000006174E+00 
    4.3173615579449649E+00 
    7.5929536283261967E-01 
    6.5377771991332247E+00 
    1.3188375951026067E+01 
    8.0777574049734771E+00 
    9.8803644606211876E+00 
    9.4701990305441832E+00 
    1.0782923879094295E+01 
    8.7763696468652679E+00 
    1.1876816391082349E+01 
    1.4710548940292536E+01 
    1.0286376802432818E+01 
    1.2545978927141958E+01 
    4.6052167089291851E-01 
    1.1732512508651562E+01 
    4.7863330238823059E+00 
    1.3615063635882768E+01 
    8.7374768296064236E+00 
    7.7226463801301035E+00 
    6.6003059011255711E+00 
    4.5288110504502894E+00 
    9.7419263808243386E+00 
    6.9066623036341142E+00 
    1.0670820332212671E+01 
    1.8548636271478873E+00 
    9.6698587937325833E+00 
    1.1676023522783961E+01 
    5.3042974877667852E+00 
    1.2144406372553014E+01 
    1.3432319124743197E+01 
    1.2016194430782178E+01 
    8.6078542624311520E+00 
    8.7463109334729499E+00 
    8.7301622136946637E+00 
    4.9113464474837398E+00 
    7.8492705881644662E+00 
    7.7154336438519771E+00 
    8.7183513009818103E+00 
    8.0208240189628555E+00 
    5.7995569703534833E-01 
    5.4863063691742315E+00 
    8.3561379912218872E+00 
    8.6941602008163557E+00 
    1.0958885197651110E+01 
    1.8441727913202235E+00 
    9.0927382867324393E+00 
    8.9921579800313509E+00 
    3.1616370814145491E+00 
    1.1905850582496162E+01 
    7.4388644063199871E+00 
    8.8684955283312998E+00 
    1.1952064128125803E+01 
    4.5480566064520280E+00 
    1.2001977687267242E+01 
    7.5366491624555341E+00 
    8.5081051905906790E-01 
    8.1322024054060336E+00 
    1.2503105790775100E+01 
    1.1732731421128220E+01 
    1.1749964970420795E+01 
    9.0874633274866810E+00 
    8.9333536011921311E+00 
    7.4203210877615664E+00 
    5.9555699242723117E+00 
    1.2046432505566450E+01 
    8.2565241740452482E+00 
    5.8236080466735833E+00 
    1.1744908780184961E+01 
    1.2334145052366564E+01 
    8.8895302687804456E+00 
    8.5387006121386317E+00 
    1.4594975135587548E+01 
    9.1285098353382761E+00 
    1.2065782293576364E+01 
    7.0440573476870050E+00 
    1.4738997171541014E+01 
    5.8191076870102840E+00 
    7.8066830775639415E+00 
    6.5100741345306314E+00 
    9.3268213436275165E+00 
    7.4288177571728262E+00 
    1.4722877151620438E+01 
    9.1698234600195558E+00 
    1.1449966116343260E+01 
    5.9874661277343710E+00 
    8.7732933265144890E+00 
    1.1927930562826415E+01 
    7.4518829736003394E+00 
    6.1898654097656571E+00 
    9.5538545708975011E+00 
    1.2137908834252977E+01 
    6.4101359001203866E+00 
    8.2432609868023565E+00 
    8.5617937172293566E+00 
    1.1711815092426058E+01 
    8.3802431091972807E+00 
    1.2110010765065233E+01 
    1.2659805918812005E+01 
    7.4431959581422502E+00 
    7.2910480916501390E+00 
    6.9376598366373514E+00 
    1.1830688057401018E+01 
    8.9841578095294619E+00 
    1.4308643793608333E+01 
    1.1165492802600504E+01 
    1.1891039498558486E+01 
    1.4013155103957420E+01 
    1.3440258303984267E+01 
    8.8166425280822676E+00 
    8.7035217451247622E+00 
    1.1536848035824937E+01 
    1.1764361933863979E+01 
    1.2198703444546220E+01 
    1.1974113988084301E+01 
    1.4613000979418876E+01 
    9.1281262686295204E+00 
    7.5307939478021462E+00 
    9.0909584536505967E+00 
    1.2582492961680126E+01 
    8.9026901191485219E+00 
    5.1748123295433999E+00 
    8.5925019718524052E+00 
    1.2962125148560929E+01 
    9.0234909575826983E+00 
    7.5395383246067214E+00 
    8.5014711954480013E+00 
    1.3063881955121978E+01 
    1.1758024133176095E+01 
    7.1478821920830731E+00 
    1.3189670266917854E+01 
    8.8429310972169688E+00 
    1.2201122944707148E+01 
    1.3075820207991631E+01 
    9.1681475489008584E+00 
    4.5502752543406517E+00 
    9.5226567001738029E+00 
    4.7083750509920650E+00 
    8.9464998400076468E+00 
    8.7639000680911963E+00 
    1.0017230723780614E+01 
    4.9788094296350858E+00 
    1.0630645949642275E+01 
    8.7846143616316752E+00 
    1.1965878237417206E+01 
    9.1400813884443508E+00 
    6.9792112930694756E+00 
    8.3890804061213959E+00 
    9.2095714135476161E+00 
    9.2198163348059179E+00 
    1.2700130197039083E+01 
    7.1882768358402904E+00 
    7.0629247630787679E+00 
    5.2397495765332120E+00 
    1.2221867589530760E+01 
    8.4243313922437846E+00 
    1.1579212813120719E+01 
    8.7354514313543756E+00 
    5.7391624160470940E+00 
    1.1781211882298209E+01 
    8.7096425467423071E+00 
    6.2688484284809984E+00 
    6.6500811618872637E+00 
    6.8910928464052290E+00 
    1.1991470303445011E+01 
    8.7203798839056095E+00 
    1.2555378855155332E+01 
    8.6663823945479344E+00 
    8.6029373883387663E+00 
    8.1638793054559855E+00 
    1.1852279250981766E+01 
    8.5200277913022440E+00 
    6.9272542176904119E+00 
    1.3428159658045614E+01 
    1.1921256019498065E+01 
    6.0988199895912647E+00 
    2.3253174924035656E+00 
    8.7091287155839314E+00 
    8.1609218228056672E+00 
    7.2852837382595022E+00 
    7.9827160292330515E+00 
    1.1904504274390970E+01 
    8.4311738413224635E+00 
    7.5860307816118988E+00 
    1.1782729249562998E+01 
    6.0437357048003060E+00 
    1.1502975819038470E+01 
    7.8792977098380668E+00 
    6.8678764684064042E+00 
    7.3566454310257141E+00 
    1.2276592647623259E+01 
    8.7539845393635378E+00 
    8.7616700123876168E+00 
    5.0548723964760489E+00 
    5.4711323461786456E+00 
    1.0910711482788001E+01 
    8.7710530355895688E+00 
    8.7541446587520859E+00 
    1.3175289295361287E+01 
    7.0651161591595608E+00 
    8.7824852279030576E+00 
    6.2498673428346931E+00 
    6.4388171819912436E+00 
    1.1843802754917075E+01 
    8.4127895695191839E+00 
    6.0420642979950507E+00 
    9.2019533757829510E+00 
    8.6426393878418839E+00 
    1.1847497531954014E+01 
    1.3261859837052524E+01 
    8.9725717429700036E-01 
    8.7142984489537945E+00 
    8.9859273595342906E+00 
    1.1904449570865719E+01 
    8.2007657121864650E+00 
    8.7292735577630829E+00 
    1.2745022031403904E+01 
    7.3875857811731445E+00 
    6.0967886888035769E+00 
    1.0555538841862512E+01 
    1.1744210241347453E+01 
    1.2633213542457673E+01 
    1.2881058263761833E+01 
    8.5598614996324986E+00 
    8.7062899558854578E+00 
    9.8011613892234646E+00 
    5.7927002821390152E+00 
    1.1852126097423726E+01 
    6.5776613022651107E+00 
    6.0359854680095255E+00 
    1.0901311368948756E+01 
    1.0260738276460355E+01 
    5.9184915733114449E+00 
    1.1774357759230487E+01 
    1.2620275282591033E+01 
    9.1417295122686131E+00 
    1.3356242578311273E+01 
    1.1801805096691357E+01 
    8.2864636009880233E+00 
    1.2386811757164448E+01 
    6.4444009122969739E+00 
    1.1759639217176002E+01 
    8.7132923256603334E+00 
    8.6719522637334414E+00 
    1.3331524498251541E+01 
    8.4527467245580397E+00 
    1.0650507223005970E+01 
    7.3429673448025499E+00 
    1.2726498991106755E+01 
    1.1681073485743113E+01 
    7.6681976720607876E+00 
    1.1724678126507147E+01 
    7.9010692000162352E+00 
    8.7381616400304321E+00 
    1.2584436521996418E+01 
    1.1966531220634030E+01 
    1.2623273124800539E+01 
    1.1907028306737640E+01 
    7.8548754674289949E+00 
    8.0642544464919332E+00 
    1.2629148407011463E+01 
    8.1778745431514057E+00 
    1.1624676963829424E+01 
    8.4464116349406559E+00 
    3.4131376237280620E+00 
    6.0952626601414730E+00 
    5.6432602235179052E+00 
    1.2587393167673392E+01 
    1.3267032373345403E+01 
    1.1739800330280946E+01 
    1.0142036639792199E+01 
    1.1981879956673108E+01 
    1.1780614902060165E+01 
    1.2282954826808497E+01 
    4.8795867870672494E+00 
    3.1832682549722282E+00 
    9.9508707203802391E+00 
    8.3489839937174342E+00 
    1.1905963667206034E+01 
    1.1903816945275917E+01 
    9.0005749464900742E+00 
    1.1935467693368276E+01 
    8.7007854311422790E+00 
    8.5674710969355541E+00 
    4.4036716855124443E+00 
    3.1695957390086780E+00 
    1.3061437045235071E+01 
    6.8318022272954257E+00 
    7.6154298603254738E+00 
    8.9121694534098719E+00 
    1.4595718391626308E+01 
    8.9940692323308102E+00 
    8.9263737353403592E+00 
    3.6098710988089415E+00 
    8.9945469803256923E+00 
    9.0062824150921799E+00 
    1.2171794802447183E+01 
    7.3599669895148114E+00 
    8.3340902811081463E+00 
    1.3216039738346455E+01 
    8.7239101709606057E+00 
    1.1753005615539372E+01 
    1.1967398571375833E+01 
    1.0782061960147637E+01 
    7.4057904723546804E+00 
    1.1906265028360858E+01 
    8.5087652642016742E+00 
    1.1917001894005265E+01 
    1.1700219726057048E+01 
    1.2604420917913000E+01 
    1.1906066645981978E+01 
    1.1208261795576115E+01 
    8.7115124607549195E+00 
    5.8713687327140534E+00 
    1.4472675669977580E+01 
    6.7130144423496745E+00 
    1.2546317732920837E+01 
    8.7088103308173164E+00 
    7.0997353713327405E+00 
    4.2835747620212299E+00 
    9.0359053649702545E+00 
    1.1895352500362915E+01 
    1.1891031978510515E+01 
    8.7205582385308471E+00 
    8.7027593659034750E+00 
    1.3409347747431488E+01 
    1.2828666557716156E+01 
    9.0107957405362633E+00 
    2.9637194390405597E+00 
    1.1182722635325295E+01 
    1.4721182129760232E+01 
    8.7150142693725492E+00 
    1.0454241457731117E+01 
    8.1955150994989534E+00 
    1.4335696617861426E+01 
    1.2899665862364747E+01 
    1.2654966307860343E+01 
    9.0304937608748190E+00 
    3.9941961075272876E+00 
    8.1562223312207696E+00 
    8.2218012424727611E+00 
    8.2714224702058257E+00 
    3.2244306328074090E+00 