# vtk DataFile Version 2.0
Pressure Field Data 
ASCII 
DATASET UNSTRUCTURED_GRID 

POINTS 2860 double 

    0.0000000000000000E+00     0.0000000000000000E+00     0.0000000000000000E+00 
    1.0000000000000000E+00     0.0000000000000000E+00     0.0000000000000000E+00 
    1.0000000000000000E+00     1.0000000000000000E+00     0.0000000000000000E+00 
    0.0000000000000000E+00     1.0000000000000000E+00     0.0000000000000000E+00 
    2.5000000000000000E-01     2.5000000000000000E-01     0.0000000000000000E+00 
    7.5000000000000000E-01     2.5000000000000000E-01     0.0000000000000000E+00 
    7.5000000000000000E-01     7.5000000000000000E-01     0.0000000000000000E+00 
    2.5000000000000000E-01     7.5000000000000000E-01     0.0000000000000000E+00 
    3.1249999999942091E-02     0.0000000000000000E+00     0.0000000000000000E+00 
    6.2499999999873469E-02     0.0000000000000000E+00     0.0000000000000000E+00 
    9.3749999999826514E-02     0.0000000000000000E+00     0.0000000000000000E+00 
    1.2499999999977961E-01     0.0000000000000000E+00     0.0000000000000000E+00 
    1.5624999999968961E-01     0.0000000000000000E+00     0.0000000000000000E+00 
    1.8749999999959971E-01     0.0000000000000000E+00     0.0000000000000000E+00 
    2.1874999999950970E-01     0.0000000000000000E+00     0.0000000000000000E+00 
    2.4999999999941969E-01     0.0000000000000000E+00     0.0000000000000000E+00 
    2.8124999999932920E-01     0.0000000000000000E+00     0.0000000000000000E+00 
    3.1249999999923850E-01     0.0000000000000000E+00     0.0000000000000000E+00 
    3.4374999999914790E-01     0.0000000000000000E+00     0.0000000000000000E+00 
    3.7499999999905720E-01     0.0000000000000000E+00     0.0000000000000000E+00 
    4.0624999999896660E-01     0.0000000000000000E+00     0.0000000000000000E+00 
    4.3749999999887590E-01     0.0000000000000000E+00     0.0000000000000000E+00 
    4.6874999999878530E-01     0.0000000000000000E+00     0.0000000000000000E+00 
    4.9999999999869471E-01     0.0000000000000000E+00     0.0000000000000000E+00 
    5.3124999999877620E-01     0.0000000000000000E+00     0.0000000000000000E+00 
    5.6249999999885780E-01     0.0000000000000000E+00     0.0000000000000000E+00 
    5.9374999999893940E-01     0.0000000000000000E+00     0.0000000000000000E+00 
    6.2499999999902101E-01     0.0000000000000000E+00     0.0000000000000000E+00 
    6.5624999999910261E-01     0.0000000000000000E+00     0.0000000000000000E+00 
    6.8749999999918421E-01     0.0000000000000000E+00     0.0000000000000000E+00 
    7.1874999999926570E-01     0.0000000000000000E+00     0.0000000000000000E+00 
    7.4999999999934730E-01     0.0000000000000000E+00     0.0000000000000000E+00 
    7.8124999999942890E-01     0.0000000000000000E+00     0.0000000000000000E+00 
    8.1249999999951039E-01     0.0000000000000000E+00     0.0000000000000000E+00 
    8.4374999999959199E-01     0.0000000000000000E+00     0.0000000000000000E+00 
    8.7499999999967359E-01     0.0000000000000000E+00     0.0000000000000000E+00 
    9.0624999999975520E-01     0.0000000000000000E+00     0.0000000000000000E+00 
    9.3749999999983680E-01     0.0000000000000000E+00     0.0000000000000000E+00 
    9.6874999999991840E-01     0.0000000000000000E+00     0.0000000000000000E+00 
    1.0000000000000000E+00     3.1249999999942091E-02     0.0000000000000000E+00 
    1.0000000000000000E+00     6.2499999999873469E-02     0.0000000000000000E+00 
    1.0000000000000000E+00     9.3749999999826514E-02     0.0000000000000000E+00 
    1.0000000000000000E+00     1.2499999999977961E-01     0.0000000000000000E+00 
    1.0000000000000000E+00     1.5624999999968961E-01     0.0000000000000000E+00 
    1.0000000000000000E+00     1.8749999999959971E-01     0.0000000000000000E+00 
    1.0000000000000000E+00     2.1874999999950970E-01     0.0000000000000000E+00 
    1.0000000000000000E+00     2.4999999999941969E-01     0.0000000000000000E+00 
    1.0000000000000000E+00     2.8124999999932920E-01     0.0000000000000000E+00 
    1.0000000000000000E+00     3.1249999999923850E-01     0.0000000000000000E+00 
    1.0000000000000000E+00     3.4374999999914790E-01     0.0000000000000000E+00 
    1.0000000000000000E+00     3.7499999999905720E-01     0.0000000000000000E+00 
    1.0000000000000000E+00     4.0624999999896660E-01     0.0000000000000000E+00 
    1.0000000000000000E+00     4.3749999999887590E-01     0.0000000000000000E+00 
    1.0000000000000000E+00     4.6874999999878530E-01     0.0000000000000000E+00 
    1.0000000000000000E+00     4.9999999999869471E-01     0.0000000000000000E+00 
    1.0000000000000000E+00     5.3124999999877620E-01     0.0000000000000000E+00 
    1.0000000000000000E+00     5.6249999999885780E-01     0.0000000000000000E+00 
    1.0000000000000000E+00     5.9374999999893940E-01     0.0000000000000000E+00 
    1.0000000000000000E+00     6.2499999999902101E-01     0.0000000000000000E+00 
    1.0000000000000000E+00     6.5624999999910261E-01     0.0000000000000000E+00 
    1.0000000000000000E+00     6.8749999999918421E-01     0.0000000000000000E+00 
    1.0000000000000000E+00     7.1874999999926570E-01     0.0000000000000000E+00 
    1.0000000000000000E+00     7.4999999999934730E-01     0.0000000000000000E+00 
    1.0000000000000000E+00     7.8124999999942890E-01     0.0000000000000000E+00 
    1.0000000000000000E+00     8.1249999999951039E-01     0.0000000000000000E+00 
    1.0000000000000000E+00     8.4374999999959199E-01     0.0000000000000000E+00 
    1.0000000000000000E+00     8.7499999999967359E-01     0.0000000000000000E+00 
    1.0000000000000000E+00     9.0624999999975520E-01     0.0000000000000000E+00 
    1.0000000000000000E+00     9.3749999999983680E-01     0.0000000000000000E+00 
    1.0000000000000000E+00     9.6874999999991840E-01     0.0000000000000000E+00 
    9.6875000000003686E-01     1.0000000000000000E+00     0.0000000000000000E+00 
    9.3750000000011691E-01     1.0000000000000000E+00     0.0000000000000000E+00 
    9.0625000000015765E-01     1.0000000000000000E+00     0.0000000000000000E+00 
    8.7500000000017863E-01     1.0000000000000000E+00     0.0000000000000000E+00 
    8.4375000000028044E-01     1.0000000000000000E+00     0.0000000000000000E+00 
    8.1250000000040856E-01     1.0000000000000000E+00     0.0000000000000000E+00 
    7.8125000000054956E-01     1.0000000000000000E+00     0.0000000000000000E+00 
    7.5000000000066480E-01     1.0000000000000000E+00     0.0000000000000000E+00 
    7.1875000000086831E-01     1.0000000000000000E+00     0.0000000000000000E+00 
    6.8750000000102829E-01     1.0000000000000000E+00     0.0000000000000000E+00 
    6.5625000000114431E-01     1.0000000000000000E+00     0.0000000000000000E+00 
    6.2500000000129829E-01     1.0000000000000000E+00     0.0000000000000000E+00 
    5.9375000000147926E-01     1.0000000000000000E+00     0.0000000000000000E+00 
    5.6250000000168354E-01     1.0000000000000000E+00     0.0000000000000000E+00 
    5.3125000000188671E-01     1.0000000000000000E+00     0.0000000000000000E+00 
    5.0000000000205835E-01     1.0000000000000000E+00     0.0000000000000000E+00 
    4.6875000000192979E-01     1.0000000000000000E+00     0.0000000000000000E+00 
    4.3750000000180111E-01     1.0000000000000000E+00     0.0000000000000000E+00 
    4.0625000000167238E-01     1.0000000000000000E+00     0.0000000000000000E+00 
    3.7500000000154382E-01     1.0000000000000000E+00     0.0000000000000000E+00 
    3.4375000000141509E-01     1.0000000000000000E+00     0.0000000000000000E+00 
    3.1250000000128642E-01     1.0000000000000000E+00     0.0000000000000000E+00 
    2.8125000000115769E-01     1.0000000000000000E+00     0.0000000000000000E+00 
    2.5000000000102918E-01     1.0000000000000000E+00     0.0000000000000000E+00 
    2.1875000000090050E-01     1.0000000000000000E+00     0.0000000000000000E+00 
    1.8750000000077180E-01     1.0000000000000000E+00     0.0000000000000000E+00 
    1.5625000000064329E-01     1.0000000000000000E+00     0.0000000000000000E+00 
    1.2500000000051459E-01     1.0000000000000000E+00     0.0000000000000000E+00 
    9.3750000000385914E-02     1.0000000000000000E+00     0.0000000000000000E+00 
    6.2500000000257239E-02     1.0000000000000000E+00     0.0000000000000000E+00 
    3.1250000000128557E-02     1.0000000000000000E+00     0.0000000000000000E+00 
    0.0000000000000000E+00     9.6875000000003686E-01     0.0000000000000000E+00 
    0.0000000000000000E+00     9.3750000000011691E-01     0.0000000000000000E+00 
    0.0000000000000000E+00     9.0625000000015765E-01     0.0000000000000000E+00 
    0.0000000000000000E+00     8.7500000000017863E-01     0.0000000000000000E+00 
    0.0000000000000000E+00     8.4375000000028044E-01     0.0000000000000000E+00 
    0.0000000000000000E+00     8.1250000000040856E-01     0.0000000000000000E+00 
    0.0000000000000000E+00     7.8125000000054956E-01     0.0000000000000000E+00 
    0.0000000000000000E+00     7.5000000000066480E-01     0.0000000000000000E+00 
    0.0000000000000000E+00     7.1875000000086831E-01     0.0000000000000000E+00 
    0.0000000000000000E+00     6.8750000000102829E-01     0.0000000000000000E+00 
    0.0000000000000000E+00     6.5625000000114431E-01     0.0000000000000000E+00 
    0.0000000000000000E+00     6.2500000000129829E-01     0.0000000000000000E+00 
    0.0000000000000000E+00     5.9375000000147926E-01     0.0000000000000000E+00 
    0.0000000000000000E+00     5.6250000000168354E-01     0.0000000000000000E+00 
    0.0000000000000000E+00     5.3125000000188671E-01     0.0000000000000000E+00 
    0.0000000000000000E+00     5.0000000000205835E-01     0.0000000000000000E+00 
    0.0000000000000000E+00     4.6875000000192979E-01     0.0000000000000000E+00 
    0.0000000000000000E+00     4.3750000000180111E-01     0.0000000000000000E+00 
    0.0000000000000000E+00     4.0625000000167238E-01     0.0000000000000000E+00 
[...]
CELL_DATA 2795 
SCALARS Pressure double 1 
LOOKUP_TABLE default 

    7.5129594851484311E+00 
    1.6997785854703565E+01 
    1.1888769984802542E+01 
    1.1561997973183784E+01 
    9.2194623723258537E+00 
    1.6838516415834096E+01 
    1.7670401089284891E+01 
    6.7143277338455016E+00 
    1.2444737690796748E+01 
    9.5793478040660709E+00 
    8.1738216614245722E+00 
    1.6540470788347989E+01 
    1.6899764690970297E+01 
    1.6802430194738179E+01 
    1.0962742153010900E+01 
    6.6020474727390059E+00 
    1.0648624652673471E+01 
    8.7019641253540261E+00 
    1.6112097276807717E+01 
    1.1869737666483916E+01 
    1.1765605091479499E+01 
    1.6725356268743937E+01 
    1.1250553790503961E+01 
    4.3819649380922721E-01 
    1.6519481146388031E+01 
    1.6858397600813408E+01 
    1.7705222896170699E+01 
    7.8812523739990779E+00 
    1.6447440259843791E+01 
    1.7694025118908172E+01 
    1.2042362137956474E+01 
    1.2073925346864071E+01 
    8.5715306891233194E+00 
    1.1851719772222095E+01 
    3.8600052782208798E+00 
    1.0653641692233130E+01 
    1.1837084787060482E+01 
    1.7737577230180978E+01 
    1.7644305381467042E+01 
    1.6555196689339049E+01 
    9.1967286029621533E+00 
    1.6521932492686410E+01 
    9.1032292155616656E-01 
    1.1836676023731705E+01 
    1.7442693857625294E+01 
    1.7194906408744966E+01 
    1.6528125271043681E+01 
    1.2868800071474096E+01 
    1.6589972483560981E+01 
    1.0893001485239422E+01 
    1.0382056361650370E+01 
    1.2037712336639382E+01 
    1.1724907114471820E+01 
    1.0716388827373503E+01 
    1.2117002214612882E+01 
    1.5863941436889496E+01 
    1.3942194822889538E+01 
    9.2686418752967246E+00 
    1.6732108069902630E+01 
    1.6639255362652019E+01 
    1.1529181536296715E+01 
    1.1439056041120377E+01 
    1.1448895513420908E+01 
    1.7584613667800081E+01 
    1.7874742179598407E+01 
    1.0663892139468409E+01 
    1.2036155242037241E+01 
    1.6322350701824995E+01 
    1.3939179165743271E+01 
    1.1493660189209313E+01 
    1.7880109252715339E+01 
    1.6678486347701945E+01 
    1.0512859641470902E+01 
    1.7323454403769919E+01 
    1.2372573793685465E+01 
    1.6358336509070320E+01 
    1.7750080640510681E+01 
    1.2473112953643675E+01 
    7.6412286631645472E+00 
    1.2054433015432046E+01 
    1.7654688115820225E+01 
    1.7909219241813776E+01 
    1.0677792256410532E+01 
    1.1980685876229927E+01 
    1.7962347905231780E+01 
    1.1835853307908373E+01 
    1.1351281463135482E+01 
    1.4456025927755928E+01 
    7.3166186761107994E+00 
    1.0408910751869216E+01 
    1.1977785633091239E+01 
    1.2603185983791171E+01 
    1.9542048281910226E+01 
    8.9624920768119711E+00 
    1.2044052096239867E+01 
    1.6502501372902515E+01 
    1.6841305726041892E+01 
    7.9080456455129040E+00 
    1.1694686130488364E+01 
    1.2011859482583937E+01 
    1.6866793779619329E+01 
    1.2002224382643186E+01 
    1.6783188046778260E+01 
    4.7883167190125313E+00 
    7.9470595813004223E+00 
    1.2263039256002097E+01 
    1.7006204505206899E+01 
    1.0613280359549471E+01 
    1.1272418466285647E+01 
    1.1980460498478282E+01 
    1.1311528588971877E+01 
    1.3531045409052238E+01 
    1.0973969513536320E+01 
    1.0522972684809659E+01 
    8.3722888141060920E+00 
    1.4277141570659564E+01 
    1.2079444340172888E+01 
    1.7485506014772007E+01 
    1.0389733172242586E+01 
    1.1538894964570419E+01 
    1.6667832525682236E+01 
    9.6750434006887858E+00 
    1.7179730836613839E+01 
    1.1908899154887829E+01 
    1.1459072373680836E+01 
    1.6844844130664967E+01 
    1.2066852414000959E+01 
    1.7766053057195929E+01 
    1.4495179322478728E+01 
    1.5672895594240069E+01 
    1.7723848744798492E+01 
    8.9800928345155171E+00 
    1.2285405941041050E+01 
    1.6843156287900825E+01 
    3.5724616371260929E+00 
    1.2093621541459726E+01 
    1.7686242349382667E+01 
    1.1490851400246774E+01 
    1.3264389667592678E+01 
    7.8493534784535237E+00 
    1.6499295644217231E+01 
    2.0059218532207478E+01 
    1.5058318709192326E+01 
    1.1491710825126031E+01 
    1.0291803627005613E+01 
    1.2815160294131273E+01 
    1.1925937003681240E+01 
    8.2642325092676998E+00 
    1.7719190294361336E+01 
    1.6866967545717149E+01 
    1.6504413337369460E+01 
    1.2598647795058037E+01 
    1.0484336324599507E+01 
    1.1762025907273824E+01 
    1.7362447885071596E+01 
    1.0777079512215375E+01 
    1.2029647809737655E+01 
    1.0970354624676601E+01 
    1.3967846512929764E+01 
    2.0046778339339703E+01 
    1.6494637528525960E+01 
    1.0499591644263258E+01 
    1.7067469368185808E+01 
    1.6960389597259283E+01 
    1.7050755628867908E+01 
    1.8180027782757456E+01 
    1.8770296745275502E+01 
    1.7186266742167582E+01 
    1.2027831998435282E+01 
    1.3069250175879482E+01 
    1.6999186218032783E+01 
    1.7499070913163191E+01 
    8.6301167755998289E+00 
    1.6527518920288589E+01 
    1.7321242005636474E+01 
    8.3959569615067036E+00 
    1.8099663358878885E+01 
    1.8068010953098771E+01 
    1.6192225192681327E+01 
    1.2360228497308610E+01 
    3.1443317068600276E+00 
    1.7687282436575025E+01 
    1.2202310460161605E+01 
    1.7819377815894075E+01 
    1.1409741208574522E+01 
    1.7489936825501260E+01 
    1.1268818826431877E+00 
    1.5672912824700280E+01 
    1.1488600882293596E+01 
    1.0430198446587337E+01 
    1.0168801331223648E+01 
    1.1876899855698577E+01 
    1.3105462069247281E+01 
    1.2524618449421544E+01 
    8.4394200098506023E+00 
    1.7492773649618709E+01 
    1.6869256118237789E+01 
    1.4036794837555394E+01 
    1.2254890039594287E+01 
    1.8134472451436967E+00 
    9.3900651414187521E+00 
    6.5315450171603180E+00 
    1.7704900835301167E+01 
    1.3329353239050377E+01 
    1.6894360247384029E+01 
    1.6945589700300296E+01 
    1.0866690975400511E+01 
    1.3917210353546904E+01 
    1.6498374818434794E+01 
    1.8049051433209616E+01 
    7.8492745197503266E+00 
    1.4933580676535858E+01 
    1.2497760159041318E+01 
    6.9609837585924241E+00 
    1.0858886374908225E+01 
    1.4566463765903492E+01 
    1.6901543145854696E+01 
    1.1928339210961560E+01 
    1.7026429122218055E+01 
    1.6760624091133476E+01 
    1.6701606410897131E+01 
    1.1766751935684123E+01 
    1.0348092362008623E+01 
    1.6513303377789189E+01 
    1.0508069298003177E+01 
    1.2010523552843214E+01 
    1.0301904747847750E+01 
    1.1981064463964305E+01 
    1.6956258514366709E+01 
    7.4789814271379074E+00 
    1.0751185642379429E+01 
    1.7611912849857095E+01 
    1.1775590035338061E+01 
    1.3221360758095935E+01 
    7.6728045162741854E+00 
    1.0581205793358849E+01 
    1.6735510816396847E+01 
    1.7089287584955752E+01 
    6.2633465001321902E+00 
    1.1787542415933565E+01 
    1.0372033235865105E+01 
    1.8517029765383004E+01 
    1.7918681395138069E+01 
    1.8801642331847511E+01 
    1.1807659482213294E+01 
    1.6925127440405710E+01 
    1.6444136279079849E+01 
    1.1662045128661626E+01 
    1.6504916389441526E+01 
    1.2256198956158299E+01 
    7.0372486881823004E+00 
    1.2168013137363948E+01 
    1.7593406570491201E+01 
    1.6501198881783470E+01 
    8.1403213603533509E+00 
    1.6535825779735159E+01 
    1.3134174692311078E+01 
    1.2070830178190130E+01 
    1.1573123858731211E+01 
    1.6343668443920944E+01 
    1.2642939446839405E+01 
    1.6519692923264724E+01 
    1.1762083184485961E+01 
    7.2536074592138666E+00 
    1.2089763962015711E+01 
    1.0182779033855098E+01 
    1.5087844703290850E+01 
    1.7820648091322617E+01 
    1.6511120705760689E+01 
    1.7679254327785134E+01 
    1.1716510791187478E+01 
    7.9221062946116083E+00 
    8.0327636621002139E+00 
    1.2276403713786793E+01 
    1.1982526971833879E+01 
    1.7508461051260866E+00 
    1.5910801367707990E+01 
    1.8214335535207837E+01 
    1.1427063651185360E+01 
    7.3531683902707368E+00 
    1.3894853386218522E+01 
    1.6533650086196026E+01 
    8.6951748660684647E+00 
    5.9047910558358865E+00 
    1.1966200482862561E+01 
    1.6616438092640404E+01 
    1.7385320123787473E+01 
    1.7242017550022158E+01 
    1.7092317748813450E+01 
    8.5549474354205586E+00 
    1.2065635241402411E+01 
    1.5984868434257157E+01 
    9.4028623539563050E+00 
    1.6884550108671736E+01 
    1.4169911362275615E+01 
    8.1517579925562220E+00 
    1.6642994657354702E+01 
    1.7723330579148939E+01 
    1.6675353461922029E+01 
    8.3710612339731156E+00 
    1.2032226326065913E+01 
    9.1899339536221536E+00 
    1.1365394234927393E+01 
    1.6524095636723899E+01 
    1.6510274893925786E+01 
    8.4190909837510031E+00 
    1.7539204961387295E+01 
    1.2621654717773922E+01 
    1.6544561169776564E+01 
    1.7509797975432466E+01 
    1.6531788781324579E+01 
    1.5332885308619572E+01 
    1.8580402617150721E+01 
    1.1369427849336203E+01 
    1.7644240598210953E+01 
    1.6575017222961566E+01 
    1.7726492305234370E+01 
    1.7532424866188737E+01 
    1.1486105797484248E+01 
    1.1877609200920212E+01 
    1.1416357518626514E+01 
    1.4700721746780420E+01 
    4.8094063247809853E+00 
    1.2204737189968975E+01 
    1.8715457404434165E+01 
    1.2259592964013985E+01 
    1.2476404090707051E+01 
    1.7696325941572592E+01 
    1.7951740952801554E+01 
    1.1270705582354820E+01 
    1.6540837955734194E+01 
    1.6505640527124875E+01 
    1.2461790805071072E+01 
    1.7482135620062945E+01 
    8.5615180482571720E+00 
    5.4694493725606064E+00 
    1.2791318452135405E+01 
    1.2273229944500006E+01 
    1.6511487995245762E+01 
    7.8808575459655126E+00 
    1.7151251905425664E+01 
    5.5658437597774073E+00 
    1.2207449546656553E+01 
    1.1505404884969160E+01 
    1.2009036523478917E+01 
    2.0099621723222459E+01 
    4.6608884435335787E+00 
    1.2112789819649350E+01 
    1.4520680263407225E+01 
    1.1604168582945409E+01 
    9.3734504757316603E+00 
    1.7291726057102636E+01 
    1.9634473714866811E+01 
    1.7454337017239204E+01 
    1.2044598759649492E+01 
    6.9236433883120210E+00 
    1.9477541417697410E+01 
    1.6858390223168144E+01 
    8.8320226387382199E+00 
    1.1665298264248715E+01 
    1.8161614265624113E+01 
    3.9677116728385524E+00 
    1.2333269912439128E+01 
    1.7431619214595610E+01 
    1.2024347705784310E+01 
    1.0487416591746547E+01 
    1.2157194840293618E+01 
    1.6150825138608294E+01 
    1.2006463491885954E+01 
    6.1637383582602547E+00 
    1.1029010457647686E+00 
    8.9778981543924825E+00 
    1.8408720867828936E+01 
    1.1415687391977137E+01 
    1.3532862388626176E+01 
    1.2977319077714858E+01 
    1.4901819973434701E+01 
    1.2038037814446637E+01 
    1.6753335589924735E+01 
    2.0114512331286026E+01 
    1.4377545767696711E+01 
    1.7612914347941359E+01 
    6.5313390394696547E-01 
    1.6512567986693025E+01 
    6.7907630135526977E+00 
    1.8896400376904637E+01 
    1.2127986235252093E+01 
    1.0694566975624092E+01 
    9.3707889032306060E+00 
    6.4678878536504962E+00 
    1.3439736801036561E+01 
    9.5241472647141094E+00 
    1.4967210876251684E+01 
    2.6516981757006537E+00 
    1.3177312734093663E+01 
    1.6430769416025932E+01 
    7.2976634680732833E+00 
    1.7026587649139426E+01 
    1.8675437186306919E+01 
    1.6860940308751200E+01 
    1.1974347567251815E+01 
    1.2002967989528127E+01 
    1.2119910346444769E+01 
    7.0124317024375751E+00 
    1.1100713336607733E+01 
    1.0915840603519504E+01 
    1.2107605059934857E+01 
    1.1334705322231184E+01 
    8.3146904391062471E-01 
    7.7715584519509093E+00 
    1.1798814007578942E+01 
    1.2079042905840884E+01 
    1.5377241206755786E+01 
    2.6034799042033643E+00 
    1.2414852156768212E+01 
    1.2281140657397597E+01 
    4.4902780689971848E+00 
    1.6707664312036201E+01 
    1.0529447327192514E+01 
    1.2137408730704948E+01 
    1.6856186184103976E+01 
    6.4963507154652893E+00 
    1.6829455957608374E+01 
    1.0667779312411884E+01 
    1.1838797322314518E+00 
    1.1488617863851466E+01 
    1.7558118349509716E+01 
    1.6512413304318240E+01 
    1.6533463463533494E+01 
    1.2502214487991456E+01 
    1.2210454245608750E+01 
    1.0504674818571269E+01 
    8.4514516877210202E+00 
    1.6985071644507180E+01 
    1.1659259597675758E+01 
    8.2057990771405329E+00 
    1.6528623802434598E+01 
    1.7312503448281312E+01 
    1.2303811841369980E+01 
    1.1824272331019454E+01 
    1.9986904236456837E+01 
    1.2462907204973723E+01 
    1.7000988830335004E+01 
    9.9962896723355801E+00 
    2.0143499545401600E+01 
    7.9859881755137323E+00 
    1.0975704145573966E+01 
    8.9454058228380671E+00 
    1.2733620002033760E+01 
    1.0247827934143432E+01 
    2.0126440193613419E+01 
    1.2519093067890374E+01 
    1.6110689543809780E+01 
    8.2132380631325645E+00 
    1.2032515086954335E+01 
    1.6819012417096381E+01 
    1.0291866346437118E+01 
    8.8759865563848575E+00 
    1.3511707020751929E+01 
    1.7069883259894958E+01 
    8.8044433645501421E+00 
    1.1530058490408560E+01 
    1.1861207405752037E+01 
    1.6483785652759622E+01 
    1.1631829433717927E+01 
    1.7047883643765488E+01 
    1.7758831729561820E+01 
    1.0537725026683892E+01 
    1.0332679287965114E+01 
    9.5416067718154505E+00 
    1.6645796881278056E+01 
    1.2311800960342488E+01 
    1.9675882662046220E+01 
    1.5380076193164646E+01 
    1.6772404280467573E+01 
    1.9342043166867025E+01 
    1.8682929714190717E+01 
    1.2079671980939276E+01 
    1.2090409222992543E+01 
    1.6219583285645083E+01 
    1.6557031418604943E+01 
    1.7184833393413996E+01 
    1.6882482040812206E+01 
    2.0010874202565102E+01 
    1.2462343349294663E+01 
    1.0657672790897237E+01 
    1.2452652109398345E+01 
    1.7661191787409155E+01 
    1.2175148634229473E+01 
    7.1361736836342837E+00 
    1.1955963691317379E+01 
    1.8126401264218988E+01 
    1.2321899344981292E+01 
    1.0670442103209851E+01 
    1.1801435731740129E+01 
    1.8249041446228535E+01 
    1.6588852409359919E+01 
    1.0180966513199762E+01 
    1.8399409994084682E+01 
    1.2108168042720241E+01 
    1.7167240592282081E+01 
    1.8263938570603486E+01 
    1.2816682092994188E+01 
    6.5033788346042218E+00 
    1.3359408588672139E+01 
    6.7267536639867851E+00 
    1.2225210055368409E+01 
    1.2028909510216783E+01 
    1.4103594187178363E+01 
    7.1163754928173573E+00 
    1.4992328348926938E+01 
    1.2045368569175190E+01 
    1.6870837636600523E+01 
    1.2923372467037423E+01 
    9.9964259595154985E+00 
    1.1655412391668760E+01 
    1.2676734164218482E+01 
    1.2583631416420255E+01 
    1.7809304215149790E+01 
    1.0184392853902981E+01 
    1.0011408435245629E+01 
    7.4977060603738526E+00 
    1.7209320623183675E+01 
    1.1704585358010014E+01 
    1.6340838661239086E+01 
    1.1997437924512727E+01 
    8.2137326891898521E+00 
    1.6621743958657127E+01 
    1.1974059904811423E+01 
    8.9411368594864253E+00 
    9.4541423757413554E+00 
    9.7796720992108064E+00 
    1.6906797142952282E+01 
    1.2109850235090549E+01 
    1.7626594298165145E+01 
    1.1934532554335629E+01 
    1.1873734070391524E+01 
    1.1437730795610806E+01 
    1.6719860700472761E+01 
    1.1787587965418677E+01 
    9.8240817766613642E+00 
    1.8671009674001308E+01 
    1.6814789065359474E+01 
    8.3644949193853950E+00 
    3.2827055757594543E+00 
    1.2098189144664650E+01 
    1.1319246575225698E+01 
    1.0317886979580424E+01 
    1.1210252645947449E+01 
    1.6750904878533451E+01 
    1.1765048571770775E+01 
    1.0718607282913235E+01 
    1.6582533679960207E+01 
    8.2920236970064369E+00 
    1.6176783854309161E+01 
    1.0922294160488335E+01 
    9.8343217716778284E+00 
    1.0417448642488615E+01 
    1.7263547849213868E+01 
    1.2011598406291009E+01 
    1.2020068667027029E+01 
    7.2141750960600151E+00 
    7.7973506155821024E+00 
    1.5244856718862209E+01 
    1.2029981415741640E+01 
    1.2142984381564725E+01 
    1.8384736588924394E+01 
    1.0016329226053090E+01 
    1.2042300516260260E+01 
    8.5770002124664657E+00 
    8.8536085924983627E+00 
    1.6706329845951277E+01 
    1.1659901038524641E+01 
    8.5942402002100451E+00 
    1.2602908313053909E+01 
    1.1932390590680718E+01 
    1.6712510129037106E+01 
    1.8486562882334905E+01 
    1.2405640592558789E+00 
    1.2103717035060241E+01 
    1.2271928438534200E+01 
    1.6790872415331027E+01 
    1.1571191292148217E+01 
    1.1983922243346813E+01 
    1.7871534520636079E+01 
    1.0461142125567406E+01 
    8.6721285707763389E+00 
    1.4416884991685466E+01 
    1.6528502258406398E+01 
    1.7724290435239258E+01 
    1.8021266254142805E+01 
    1.1925659396882295E+01 
    1.2093951930765545E+01 
    1.3441053872768061E+01 
    7.9552535965858233E+00 
    1.6679829938758534E+01 
    9.3380828029391036E+00 
    8.2779491335723367E+00 
    1.5033283457804913E+01 
    1.4151087470404914E+01 
    8.1210519833092025E+00 
    1.6569771981232968E+01 
    1.7708889108336443E+01 
    1.2480805321316252E+01 
    1.8598259162908334E+01 
    1.6608503335205150E+01 
    1.1634195396891192E+01 
    1.7407172525643972E+01 
    8.8474780369888446E+00 
    1.6550279481798871E+01 
    1.2102417534082614E+01 
    1.2060118604431512E+01 
    1.8573900459832704E+01 
    1.1746712429266822E+01 
    1.4776186555159846E+01 
    1.0400499498147541E+01 
    1.7841358409882215E+01 
    1.6439452527677744E+01 
    1.0845239451469928E+01 
    1.6499357091924953E+01 
    1.0950093365369646E+01 
    1.1991198231373584E+01 
    1.7663016411140330E+01 
    1.6879844985265599E+01 
    1.7712331662478881E+01 
    1.6794782788681541E+01 
    1.1106577214286405E+01 
    1.1353356020153027E+01 
    1.7720424369253227E+01 
    1.1498871644548990E+01 
    1.6345029814351303E+01 
    1.1730253728294109E+01 
    4.8373597843196192E+00 
    8.3637282679825873E+00 
    7.7482524424786625E+00 
    1.7667255319874748E+01 
    1.8494588920354371E+01 
    1.6520696203512394E+01 
    1.3783267997188100E+01 
    1.6854785547289268E+01 
    1.6579844304920677E+01 
    1.7263115225250456E+01 
    6.9702682660030542E+00 
    4.5031097511732154E+00 
    1.3525253153045361E+01 
    1.1750253639194126E+01 
    1.6754450328100958E+01 
    1.6751574757965813E+01 
    1.2293583925423192E+01 
    1.6795153863671278E+01 
    1.2087531985945747E+01 
    1.2004144342919755E+01 
    6.2880538636662795E+00 
    4.4904333393865210E+00 
    1.8244969570500263E+01 
    9.3978386891739127E+00 
    1.0776426023018077E+01 
    1.2186800161674858E+01 
    1.9989764018147184E+01 
    1.2282076676618740E+01 
    1.2450294372904059E+01 
    5.1182643349563186E+00 
    1.2282082951988627E+01 
    1.2296858872859000E+01 
    1.7080181022071041E+01 
    1.0425443328523112E+01 
    1.1530558516463032E+01 
    1.8431719710693141E+01 
    1.2113109649094870E+01 
    1.6539234858030643E+01 
    1.6798082807878192E+01 
    1.4720634140382369E+01 
    1.0226108449648715E+01 
    1.6794394837185887E+01 
    1.1889107996665915E+01 
    1.6722820691502235E+01 
    1.6467628963885101E+01 
    1.7689003346651614E+01 
    1.6791866927166375E+01 
    1.5695643994110174E+01 
    1.2100224361101001E+01 
    8.0567835681343958E+00 
    1.9855885006623424E+01 
    9.5272068394828917E+00 
    1.7603515171593475E+01 
    1.2097369932611214E+01 
    1.0070677615226055E+01 
    6.0060976526839704E+00 
    1.2335465048760566E+01 
    1.6778788482103952E+01 
    1.6774201755709207E+01 
    1.1971147329034125E+01 
    1.2090951790372539E+01 
    1.8657122395756502E+01 
    1.7957989810901687E+01 
    1.2303018348986431E+01 
    4.1865482153447697E+00 
    1.5537243903317453E+01 
    2.0123005002496708E+01 
    1.2103864307811376E+01 
    1.4234405959435753E+01 
    1.1570680251271012E+01 
    1.9702775091815855E+01 
    1.8048482464930451E+01 
    1.7761066278319227E+01 
    1.2326640331272806E+01 
    5.5787968843315898E+00 
    1.1522408052054109E+01 
    1.1597276964694290E+01 
    1.1640252165429610E+01 
    4.5680011213520508E+00 