# vtk DataFile Version 2.0
Pressure Field Data 
ASCII 
DATASET UNSTRUCTURED_GRID 

POINTS 2860 double 

    0.0000000000000000E+00     0.0000000000000000E+00     0.0000000000000000E+00 
    1.0000000000000000E+00     0.0000000000000000E+00     0.0000000000000000E+00 
    1.0000000000000000E+00     1.0000000000000000E+00     0.0000000000000000E+00 
    0.0000000000000000E+00     1.0000000000000000E+00     0.0000000000000000E+00 
    2.5000000000000000E-01     2.5000000000000000E-01     0.0000000000000000E+00 
    7.5000000000000000E-01     2.5000000000000000E-01     0.0000000000000000E+00 
    7.5000000000000000E-01     7.5000000000000000E-01     0.0000000000000000E+00 
    2.5000000000000000E-01     7.5000000000000000E-01     0.0000000000000000E+00 
    3.1249999999942091E-02     0.0000000000000000E+00     0.0000000000000000E+00 
    6.2499999999873469E-02     0.0000000000000000E+00     0.0000000000000000E+00 
    9.3749999999826514E-02     0.0000000000000000E+00     0.0000000000000000E+00 
    1.2499999999977961E-01     0.0000000000000000E+00     0.0000000000000000E+00 
    1.5624999999968961E-01     0.0000000000000000E+00     0.0000000000000000E+00 
    1.8749999999959971E-01     0.0000000000000000E+00     0.0000000000000000E+00 
    2.1874999999950970E-01     0.0000000000000000E+00     0.0000000000000000E+00 
    2.4999999999941969E-01     0.0000000000000000E+00     0.0000000000000000E+00 
    2.8124999999932920E-01     0.0000000000000000E+00     0.0000000000000000E+00 
    3.1249999999923850E-01     0.0000000000000000E+00     0.0000000000000000E+00 
    3.4374999999914790E-01     0.0000000000000000E+00     0.0000000000000000E+00 
    3.7499999999905720E-01     0.0000000000000000E+00     0.0000000000000000E+00 
    4.0624999999896660E-01     0.0000000000000000E+00     0.0000000000000000E+00 
    4.3749999999887590E-01     0.0000000000000000E+00     0.0000000000000000E+00 
    4.6874999999878530E-01     0.0000000000000000E+00     0.0000000000000000E+00 
    4.9999999999869471E-01     0.0000000000000000E+00     0.0000000000000000E+00 
    5.3124999999877620E-01     0.0000000000000000E+00     0.0000000000000000E+00 
    5.6249999999885780E-01     0.0000000000000000E+00     0.0000000000000000E+00 
    5.9374999999893940E-01     0.0000000000000000E+00     0.0000000000000000E+00 
    6.2499999999902101E-01     0.0000000000000000E+00     0.0000000000000000E+00 
    6.5624999999910261E-01     0.0000000000000000E+00     0.0000000000000000E+00 
    6.8749999999918421E-01     0.0000000000000000E+00     0.0000000000000000E+00 
    7.1874999999926570E-01     0.0000000000000000E+00     0.0000000000000000E+00 
    7.4999999999934730E-01     0.0000000000000000E+00     0.0000000000000000E+00 
    7.8124999999942890E-01     0.0000000000000000E+00     0.0000000000000000E+00 
    8.1249999999951039E-01     0.0000000000000000E+00     0.0000000000000000E+00 
    8.4374999999959199E-01     0.0000000000000000E+00     0.0000000000000000E+00 
    8.7499999999967359E-01     0.0000000000000000E+00     0.0000000000000000E+00 
    9.0624999999975520E-01     0.0000000000000000E+00     0.0000000000000000E+00 
    9.3749999999983680E-01     0.0000000000000000E+00     0.0000000000000000E+00 
    9.6874999999991840E-01     0.0000000000000000E+00     0.0000000000000000E+00 
    1.0000000000000000E+00     3.1249999999942091E-02     0.0000000000000000E+00 
    1.0000000000000000E+00     6.2499999999873469E-02     0.0000000000000000E+00 
    1.0000000000000000E+00     9.3749999999826514E-02     0.0000000000000000E+00 
    1.0000000000000000E+00     1.2499999999977961E-01     0.0000000000000000E+00 
    1.0000000000000000E+00     1.5624999999968961E-01     0.0000000000000000E+00 
    1.0000000000000000E+00     1.8749999999959971E-01     0.0000000000000000E+00 
    1.0000000000000000E+00     2.1874999999950970E-01     0.0000000000000000E+00 
    1.0000000000000000E+00     2.4999999999941969E-01     0.0000000000000000E+00 
    1.0000000000000000E+00     2.8124999999932920E-01     0.0000000000000000E+00 
    1.0000000000000000E+00     3.1249999999923850E-01     0.0000000000000000E+00 
    1.0000000000000000E+00     3.4374999999914790E-01     0.0000000000000000E+00 
    1.0000000000000000E+00     3.7499999999905720E-01     0.0000000000000000E+00 
    1.0000000000000000E+00     4.0624999999896660E-01     0.0000000000000000E+00 
    1.0000000000000000E+00     4.3749999999887590E-01     0.0000000000000000E+00 
    1.0000000000000000E+00     4.6874999999878530E-01     0.0000000000000000E+00 
    1.0000000000000000E+00     4.9999999999869471E-01     0.0000000000000000E+00 
    1.0000000000000000E+00     5.3124999999877620E-01     0.0000000000000000E+00 
    1.0000000000000000E+00     5.6249999999885780E-01     0.0000000000000000E+00 
    1.0000000000000000E+00     5.9374999999893940E-01     0.0000000000000000E+00 
    1.0000000000000000E+00     6.2499999999902101E-01     0.0000000000000000E+00 
    1.0000000000000000E+00     6.5624999999910261E-01     0.0000000000000000E+00 
    1.0000000000000000E+00     6.8749999999918421E-01     0.0000000000000000E+00 
    1.0000000000000000E+00     7.1874999999926570E-01     0.0000000000000000E+00 
    1.0000000000000000E+00     7.4999999999934730E-01     0.0000000000000000E+00 
    1.0000000000000000E+00     7.8124999999942890E-01     0.0000000000000000E+00 
    1.0000000000000000E+00     8.1249999999951039E-01     0.0000000000000000E+00 
    1.0000000000000000E+00     8.4374999999959199E-01     0.0000000000000000E+00 
    1.0000000000000000E+00     8.7499999999967359E-01     0.0000000000000000E+00 
    1.0000000000000000E+00     9.0624999999975520E-01     0.0000000000000000E+00 
    1.0000000000000000E+00     9.3749999999983680E-01     0.0000000000000000E+00 
    1.0000000000000000E+00     9.6874999999991840E-01     0.0000000000000000E+00 
    9.6875000000003686E-01     1.0000000000000000E+00     0.0000000000000000E+00 
    9.3750000000011691E-01     1.0000000000000000E+00     0.0000000000000000E+00 
    9.0625000000015765E-01     1.0000000000000000E+00     0.0000000000000000E+00 
    8.7500000000017863E-01     1.0000000000000000E+00     0.0000000000000000E+00 
    8.4375000000028044E-01     1.0000000000000000E+00     0.0000000000000000E+00 
    8.1250000000040856E-01     1.0000000000000000E+00     0.0000000000000000E+00 
    7.8125000000054956E-01     1.0000000000000000E+00     0.0000000000000000E+00 
    7.5000000000066480E-01     1.0000000000000000E+00     0.0000000000000000E+00 
    7.1875000000086831E-01     1.0000000000000000E+00     0.0000000000000000E+00 
    6.8750000000102829E-01     1.0000000000000000E+00     0.0000000000000000E+00 
    6.5625000000114431E-01     1.0000000000000000E+00     0.0000000000000000E+00 
    6.2500000000129829E-01     1.0000000000000000E+00     0.0000000000000000E+00 
    5.9375000000147926E-01     1.0000000000000000E+00     0.0000000000000000E+00 
    5.6250000000168354E-01     1.0000000000000000E+00     0.0000000000000000E+00 
    5.3125000000188671E-01     1.0000000000000000E+00     0.0000000000000000E+00 
    5.0000000000205835E-01     1.0000000000000000E+00     0.0000000000000000E+00 
    4.6875000000192979E-01     1.0000000000000000E+00     0.0000000000000000E+00 
    4.3750000000180111E-01     1.0000000000000000E+00     0.0000000000000000E+00 
    4.0625000000167238E-01     1.0000000000000000E+00     0.0000000000000000E+00 
    3.7500000000154382E-01     1.0000000000000000E+00     0.0000000000000000E+00 
    3.4375000000141509E-01     1.0000000000000000E+00     0.0000000000000000E+00 
    3.1250000000128642E-01     1.0000000000000000E+00     0.0000000000000000E+00 
    2.8125000000115769E-01     1.0000000000000000E+00     0.0000000000000000E+00 
    2.5000000000102918E-01     1.0000000000000000E+00     0.0000000000000000E+00 
    2.1875000000090050E-01     1.0000000000000000E+00     0.0000000000000000E+00 
    1.8750000000077180E-01     1.0000000000000000E+00     0.0000000000000000E+00 
    1.5625000000064329E-01     1.0000000000000000E+00     0.0000000000000000E+00 
    1.2500000000051459E-01     1.0000000000000000E+00     0.0000000000000000E+00 
    9.3750000000385914E-02     1.0000000000000000E+00     0.0000000000000000E+00 
    6.2500000000257239E-02     1.0000000000000000E+00     0.0000000000000000E+00 
    3.1250000000128557E-02     1.0000000000000000E+00     0.0000000000000000E+00 
    0.0000000000000000E+00     9.6875000000003686E-01     0.0000000000000000E+00 
    0.0000000000000000E+00     9.3750000000011691E-01     0.0000000000000000E+00 
    0.0000000000000000E+00     9.0625000000015765E-01     0.0000000000000000E+00 
    0.0000000000000000E+00     8.7500000000017863E-01     0.0000000000000000E+00 
    0.0000000000000000E+00     8.4375000000028044E-01     0.0000000000000000E+00 
    0.0000000000000000E+00     8.1250000000040856E-01     0.0000000000000000E+00 
    0.0000000000000000E+00     7.8125000000054956E-01     0.0000000000000000E+00 
    0.0000000000000000E+00     7.5000000000066480E-01     0.0000000000000000E+00 
    0.0000000000000000E+00     7.1875000000086831E-01     0.0000000000000000E+00 
    0.0000000000000000E+00     6.8750000000102829E-01     0.0000000000000000E+00 
    0.0000000000000000E+00     6.5625000000114431E-01     0.0000000000000000E+00 
    0.0000000000000000E+00     6.2500000000129829E-01     0.0000000000000000E+00 
    0.0000000000000000E+00     5.9375000000147926E-01     0.0000000000000000E+00 
    0.0000000000000000E+00     5.6250000000168354E-01     0.0000000000000000E+00 
    0.0000000000000000E+00     5.3125000000188671E-01     0.0000000000000000E+00 
    0.0000000000000000E+00     5.0000000000205835E-01     0.0000000000000000E+00 
    0.0000000000000000E+00     4.6875000000192979E-01     0.0000000000000000E+00 
    0.0000000000000000E+00     4.3750000000180111E-01     0.0000000000000000E+00 
    0.0000000000000000E+00     4.0625000000167238E-01     0.0000000000000000E+00 
[...]
CELL_DATA 2795 
SCALARS Pressure double 1 
LOOKUP_TABLE default 

    7.0235480714785306E+00 
    1.5887677112070280E+01 
    1.1172793351086064E+01 
    1.0807278321947472E+01 
    8.6135240467089194E+00 
    1.5739863695579368E+01 
    1.6525619829220716E+01 
    6.2818318233880781E+00 
    1.1721476012633813E+01 
    9.0175869836284015E+00 
    7.6978754384126962E+00 
    1.5459669954618427E+01 
    1.5792850091239925E+01 
    1.5706047910352591E+01 
    1.0315372847761775E+01 
    6.1792574376012848E+00 
    9.9491560333898299E+00 
    8.1941755214935643E+00 
    1.5059782623574407E+01 
    1.1157090705656755E+01 
    1.1053445646512479E+01 
    1.5634374129552254E+01 
    1.0514626544347264E+01 
    4.1071236150166951E-01 
    1.5457320105328385E+01 
    1.5755905301081270E+01 
    1.6558724339430274E+01 
    7.4131269644422906E+00 
    1.5372561540207762E+01 
    1.6550126547825307E+01 
    1.1266412338959064E+01 
    1.1365027602957950E+01 
    8.0463964066478741E+00 
    1.1135865875969740E+01 
    3.6166828506245077E+00 
    9.9546115489830669E+00 
    1.1122818740294329E+01 
    1.6591942100446690E+01 
    1.6500804802084062E+01 
    1.5473545034202806E+01 
    8.5787035251768664E+00 
    1.5438923276336581E+01 
    8.5356605926091866E-01 
    1.1071391104811569E+01 
    1.6306996392710673E+01 
    1.6098286460832472E+01 
    1.5448047260670323E+01 
    1.2155259914058615E+01 
    1.5517209152983833E+01 
    1.0176120528879968E+01 
    9.7002130264114808E+00 
    1.1329874679281335E+01 
    1.0959405488165169E+01 
    1.0009645282865820E+01 
    1.1337696178428770E+01 
    1.4828308929184901E+01 
    1.3175725817436470E+01 
    8.6596114320221158E+00 
    1.5639722894171147E+01 
    1.5554131259725398E+01 
    1.0781146802847193E+01 
    1.0752114333434484E+01 
    1.0700707740219523E+01 
    1.6446021715033574E+01 
    1.6719478349258086E+01 
    9.9620092421886781E+00 
    1.1328529413911667E+01 
    1.5302113497841393E+01 
    1.3089066119489500E+01 
    1.0805036486388586E+01 
    1.6726368893489855E+01 
    1.5587877806020520E+01 
    9.8226388350223406E+00 
    1.6216143446572751E+01 
    1.1580875815250714E+01 
    1.5299616773343367E+01 
    1.6603484697584236E+01 
    1.1665826669602104E+01 
    7.2059651329332661E+00 
    1.1346697419572907E+01 
    1.6510668910821636E+01 
    1.6755971548420863E+01 
    9.9769058409719609E+00 
    1.1269950374303441E+01 
    1.6805187128005539E+01 
    1.1123056253677658E+01 
    1.0609149209493408E+01 
    1.3561639544243612E+01 
    6.8646081483192241E+00 
    9.7249897012818458E+00 
    1.1267989824767149E+01 
    1.1882090191513072E+01 
    1.8334558680526776E+01 
    8.3737144923025859E+00 
    1.1336397842045116E+01 
    1.5423899225981133E+01 
    1.5739337392162962E+01 
    7.3903133004827826E+00 
    1.0988351299959886E+01 
    1.1300311026087201E+01 
    1.5762093857918298E+01 
    1.1294591810465509E+01 
    1.5686502394680696E+01 
    4.4901246481156800E+00 
    7.4859033690484162E+00 
    1.1554148951122256E+01 
    1.5895947758817682E+01 
    9.9165617687483376E+00 
    1.0540253063198069E+01 
    1.1274962990181649E+01 
    1.0571973118097217E+01 
    1.2747158492911950E+01 
    1.0259230705651362E+01 
    9.8320653617993958E+00 
    7.8539580997935978E+00 
    1.3339356816596721E+01 
    1.1369121140102301E+01 
    1.6351809701503122E+01 
    9.7793168413119211E+00 
    1.0785872424045191E+01 
    1.5575606472963086E+01 
    9.0325072601610916E+00 
    1.6058674459655819E+01 
    1.1196890475852125E+01 
    1.0710170115887738E+01 
    1.5741898014996492E+01 
    1.1359030419004213E+01 
    1.6617218929226851E+01 
    1.3581251219240414E+01 
    1.4655035708875095E+01 
    1.6576507642562401E+01 
    8.3903964789497181E+00 
    1.1578374533918526E+01 
    1.5740625037268238E+01 
    3.3559379535079032E+00 
    1.1315404178990869E+01 
    1.6540679665902971E+01 
    1.0740538792104612E+01 
    1.2398580044301811E+01 
    7.3980448589178991E+00 
    1.5421298056008515E+01 
    1.8840639095487880E+01 
    1.4108436693088864E+01 
    1.0740803802472312E+01 
    9.6157780570418669E+00 
    1.2002090988032627E+01 
    1.1213734965609728E+01 
    7.7795377066535423E+00 
    1.6572154023175045E+01 
    1.5781134589702871E+01 
    1.5425708637190450E+01 
    1.1906282046236035E+01 
    9.7937879509651573E+00 
    1.1050636880730883E+01 
    1.6248640747675982E+01 
    1.0069730347658634E+01 
    1.1253612507649670E+01 
    1.0251988139674532E+01 
    1.3050912551092056E+01 
    1.8828465880900168E+01 
    1.5416565684432086E+01 
    9.7974463747487146E+00 
    1.5950938399260760E+01 
    1.5852428187492686E+01 
    1.5938135632518746E+01 
    1.7014498990194422E+01 
    1.7584018838387632E+01 
    1.6093925511138622E+01 
    1.1320287302571165E+01 
    1.2234742810603855E+01 
    1.5912254745370129E+01 
    1.6365141143919519E+01 
    8.1202586473237499E+00 
    1.5447633776212033E+01 
    1.6208932490083026E+01 
    7.9048649562308331E+00 
    1.6933547060313721E+01 
    1.6907495006507453E+01 
    1.5136120394881114E+01 
    1.1663184477046352E+01 
    2.9493679537912505E+00 
    1.6541717984678360E+01 
    1.1493831316142014E+01 
    1.6668902795980809E+01 
    1.0664184850781352E+01 
    1.6362531384527827E+01 
    1.0528930257847957E+00 
    1.4669289131562358E+01 
    1.0799082053825915E+01 
    9.7451331788852489E+00 
    9.5004291146480995E+00 
    1.1165841964115671E+01 
    1.2351220294458244E+01 
    1.1704853682021916E+01 
    7.9840626190106878E+00 
    1.6358946707387584E+01 
    1.5765757321051787E+01 
    1.3218917577339743E+01 
    1.1546642607339107E+01 
    1.7086384604159166E+00 
    8.7727705091660919E+00 
    6.1219434055944859E+00 
    1.6560895425321565E+01 
    1.2492806301884844E+01 
    1.5804983629726616E+01 
    1.5837633564489648E+01 
    1.0154889440963847E+01 
    1.3073941882610699E+01 
    1.5420607850369164E+01 
    1.6889020431085903E+01 
    7.3488982816070578E+00 
    1.3956623100776115E+01 
    1.1706125801927939E+01 
    6.5228052852088556E+00 
    1.0147658632257802E+01 
    1.3743403411533384E+01 
    1.5796194921707331E+01 
    1.1217955985030132E+01 
    1.5914736378084529E+01 
    1.5662735741865855E+01 
    1.5607213448696562E+01 
    1.1055857133430887E+01 
    9.6711500963582839E+00 
    1.5434147865844201E+01 
    9.8175461086567655E+00 
    1.1301524837695224E+01 
    9.6247673057290584E+00 
    1.1200797939754493E+01 
    1.5847512084127629E+01 
    7.0418144783530900E+00 
    1.0046652603052268E+01 
    1.6471013822130296E+01 
    1.1065877241735169E+01 
    1.2391117993302077E+01 
    7.2240684035318505E+00 
    9.8869708701098737E+00 
    1.5639024865521927E+01 
    1.5974461482508639E+01 
    5.8985564626342164E+00 
    1.1075253101089171E+01 
    9.6840634363177269E+00 
    1.7338647368524740E+01 
    1.6764720053199824E+01 
    1.7613620441228768E+01 
    1.1095205645592388E+01 
    1.5818407105113128E+01 
    1.5371866646348536E+01 
    1.0958234652207658E+01 
    1.5426186134978051E+01 
    1.1547958431923519E+01 
    6.6105788214338785E+00 
    1.1393267666597168E+01 
    1.6454425055426363E+01 
    1.5422700846993079E+01 
    7.6610794471728454E+00 
    1.5455320025349861E+01 
    1.2374198958595716E+01 
    1.1293986552990750E+01 
    1.0819235159479019E+01 
    1.5275478818782641E+01 
    1.1838395623916742E+01 
    1.5440143539056637E+01 
    1.0999204321568612E+01 
    6.8527556246657699E+00 
    1.1376473833742175E+01 
    9.5134052098652848E+00 
    1.4117360072763574E+01 
    1.6669110744071730E+01 
    1.5432194263316905E+01 
    1.6533982469106029E+01 
    1.1010019638195567E+01 
    7.4590267079519670E+00 
    7.5641466094226564E+00 
    1.1489092814517653E+01 
    1.1275256779165950E+01 
    1.6369653966699746E+00 
    1.4879223560475461E+01 
    1.7045965385547930E+01 
    1.0680169780668919E+01 
    6.8945543657679824E+00 
    1.2994775299269614E+01 
    1.5453605195417934E+01 
    8.1241337624983920E+00 
    5.5265907407950339E+00 
    1.1256550827348097E+01 
    1.5534007663257910E+01 
    1.6256336974324782E+01 
    1.6131610733563974E+01 
    1.5977725098674069E+01 
    7.9837709844119606E+00 
    1.1288712930185394E+01 
    1.4935961058735510E+01 
    8.8523646839087231E+00 
    1.5778649390373584E+01 
    1.3336298114143505E+01 
    7.6780954251541838E+00 
    1.5566007860425358E+01 
    1.6573604314069893E+01 
    1.5594203714473199E+01 
    7.8226412794442677E+00 
    1.1324668611453527E+01 
    8.5855600446872344E+00 
    1.0696540387180145E+01 
    1.5444301888565455E+01 
    1.5431257002283649E+01 
    7.8676817790592084E+00 
    1.6406091865096144E+01 
    1.1892277973811064E+01 
    1.5464740710343497E+01 
    1.6373323628263595E+01 
    1.5451979536603934E+01 
    1.4377688604817573E+01 
    1.7398284475341296E+01 
    1.0627290072024847E+01 
    1.6500754039061661E+01 
    1.5493476485324303E+01 
    1.6578973424879983E+01 
    1.6398887557356918E+01 
    1.0737123691311391E+01 
    1.1162946226102880E+01 
    1.0670035570619598E+01 
    1.3814774308801782E+01 
    4.5078601374729041E+00 
    1.1421171200388120E+01 
    1.7529632793490304E+01 
    1.1550461150469896E+01 
    1.1755541073445659E+01 
    1.6550210436320906E+01 
    1.6795335260731576E+01 
    1.0538867203752643E+01 
    1.5460109319303955E+01 
    1.5426884958967394E+01 
    1.1741809430202940E+01 
    1.6350653910890170E+01 
    8.0632297727161610E+00 
    5.1456522151552733E+00 
    1.2052137507304714E+01 
    1.1564444329522063E+01 
    1.5433246030952390E+01 
    7.3662353959476441E+00 
    1.6042141738831393E+01 
    5.2342403409266200E+00 
    1.1498898347846136E+01 
    1.0760177864244648E+01 
    1.1301579587473345E+01 
    1.8880708537567880E+01 
    4.3714824579028395E+00 
    1.1333704215317155E+01 
    1.3563911801229100E+01 
    1.0905160689371938E+01 
    8.7513627365610898E+00 
    1.6167370668174772E+01 
    1.8424807098894327E+01 
    1.6328189656315505E+01 
    1.1269211903892305E+01 
    6.4856184598131765E+00 
    1.8272136426639872E+01 
    1.5754930987974451E+01 
    8.4055056381902507E+00 
    1.0904383198680389E+01 
    1.6997033163510533E+01 
    3.7224037957750693E+00 
    1.1620527628656466E+01 
    1.6297605041577572E+01 
    1.1316043949762337E+01 
    9.8713505780108601E+00 
    1.1375931836808080E+01 
    1.5147219324259412E+01 
    1.1297927142066696E+01 
    5.7721035264153722E+00 
    1.0269699831941137E+00 
    8.4548617121363865E+00 
    1.7232050608828438E+01 
    1.0669484995946259E+01 
    1.2689377031437425E+01 
    1.2156211972184616E+01 
    1.4074755102645179E+01 
    1.1329499676651448E+01 
    1.5655843210193144E+01 
    1.8895361828731065E+01 
    1.3464802798810048E+01 
    1.6471052397706408E+01 
    6.1134810778569837E-01 
    1.5433481061096458E+01 
    6.4080055504692846E+00 
    1.7705619033191176E+01 
    1.1348155082993726E+01 
    1.0055491187904767E+01 
    8.7542371172659692E+00 
    6.0509378694561260E+00 
    1.2675776761113955E+01 
    8.9602095303544278E+00 
    1.4000139980778012E+01 
    2.4787904327029651E+00 
    1.2413683065209224E+01 
    1.5358247747107507E+01 
    6.8734392973607390E+00 
    1.5943581028709893E+01 
    1.7493638834461041E+01 
    1.5770979186242537E+01 
    1.1202847666633019E+01 
    1.1295841531644681E+01 
    1.1340469362430344E+01 
    6.5591099802879533E+00 
    1.0373899183213311E+01 
    1.0200171812150865E+01 
    1.1328778814122188E+01 
    1.0593142240518393E+01 
    7.7626776279269361E-01 
    7.3527554145270893E+00 
    1.1031957594664538E+01 
    1.1301758936808467E+01 
    1.4387652043355017E+01 
    2.4463888013293325E+00 
    1.1697531038863401E+01 
    1.1571147688031306E+01 
    4.2106341674589025E+00 
    1.5623172208727661E+01 
    9.8388838362902220E+00 
    1.1429247312441948E+01 
    1.5752265842382009E+01 
    6.0795696521743112E+00 
    1.5747679562262125E+01 
    9.9675524129232063E+00 
    1.1169267758632460E+00 
    1.0738021019415871E+01 
    1.6420698249017924E+01 
    1.5433254251572809E+01 
    1.5453136305544964E+01 
    1.1704204317396780E+01 
    1.1501959898008650E+01 
    9.8151510056390272E+00 
    8.0277445669169651E+00 
    1.5873102017709435E+01 
    1.0899767358745398E+01 
    7.8005013225793682E+00 
    1.5448602287864473E+01 
    1.6201908769068744E+01 
    1.1514550399490906E+01 
    1.1113237843631184E+01 
    1.8770496466682818E+01 
    1.1742827688913788E+01 
    1.5889591600975328E+01 
    9.3373605307438279E+00 
    1.8924199080847671E+01 
    7.5203918783086916E+00 
    1.0261092507979869E+01 
    8.4218718599251101E+00 
    1.1997253940780547E+01 
    9.6498784433103353E+00 
    1.8907357154768814E+01 
    1.1795678182845949E+01 
    1.5093628268385238E+01 
    7.7336893349702311E+00 
    1.1324790237895863E+01 
    1.5717921323898397E+01 
    9.6878899137549599E+00 
    8.3371853134008784E+00 
    1.2622604386943658E+01 
    1.5958187007140323E+01 
    8.2906424111702801E+00 
    1.0783198897126482E+01 
    1.1146882856377315E+01 
    1.5406314420585574E+01 
    1.0931013820049397E+01 
    1.5935599736855046E+01 
    1.6609889220542431E+01 
    9.8458569572576877E+00 
    9.6527173785300544E+00 
    8.9828607909301610E+00 
    1.5560264099258026E+01 
    1.1594568035633488E+01 
    1.8465443703599320E+01 
    1.4483421005591268E+01 
    1.5673726404222139E+01 
    1.8140261822009133E+01 
    1.7501211483674368E+01 
    1.1371326534963803E+01 
    1.1312496886499522E+01 
    1.5168027929618741E+01 
    1.5475343214625116E+01 
    1.6061865301038228E+01 
    1.5777465285734062E+01 
    1.8793194986177454E+01 
    1.1742304015977689E+01 
    9.9586782737636259E+00 
    1.1735080315215500E+01 
    1.6516807988083176E+01 
    1.1466775916842300E+01 
    6.7145426868949247E+00 
    1.1185464658082278E+01 
    1.6962549833300766E+01 
    1.1609922177027443E+01 
    9.9705532823640972E+00 
    1.1088143225968325E+01 
    1.7080425439680688E+01 
    1.5501373725061882E+01 
    9.4987407696458277E+00 
    1.7225212465341794E+01 
    1.1399912434858299E+01 
    1.6048536983708519E+01 
    1.7094727180530175E+01 
    1.2018627038794088E+01 
    6.0887181661733818E+00 
    1.2524853226346375E+01 
    6.2995474295325469E+00 
    1.1516763469218162E+01 
    1.1319450492587155E+01 
    1.3206626659742346E+01 
    6.6642426056402471E+00 
    1.4024900439798182E+01 
    1.1337224453814532E+01 
    1.5766602411061283E+01 
    1.2073976283019276E+01 
    9.3383906369267375E+00 
    1.0952563629155218E+01 
    1.1870715214941558E+01 
    1.1856749208618620E+01 
    1.6657955538271118E+01 
    9.5147103485415503E+00 
    9.3531220795569912E+00 
    7.0126166690363938E+00 
    1.6085813891465445E+01 
    1.0997428983007262E+01 
    1.5271573195971479E+01 
    1.1289005555666950E+01 
    7.6681741416346920E+00 
    1.5533068431320750E+01 
    1.1265324356635800E+01 
    8.3470176079893275E+00 
    8.8302148197859403E+00 
    9.1365158353989280E+00 
    1.5800151815510212E+01 
    1.1330907589411828E+01 
    1.6483962077725689E+01 
    1.1225407922185806E+01 
    1.1164677312577638E+01 
    1.0695687070146031E+01 
    1.5624594006089888E+01 
    1.1080477336846288E+01 
    9.1786910497934411E+00 
    1.7489275355068457E+01 
    1.5713475015007873E+01 
    7.8770007632945118E+00 
    3.0837182351940822E+00 
    1.1319805673725829E+01 
    1.0643897034836694E+01 
    9.6399098547588586E+00 
    1.0481243717754818E+01 
    1.5658367464453988E+01 
    1.1004775891494631E+01 
    1.0017180284217181E+01 
    1.5499288987417344E+01 
    7.8086756103196517E+00 
    1.5125270571130592E+01 
    1.0270553000498001E+01 
    9.1697236719656132E+00 
    9.7331804725116342E+00 
    1.6140089606647926E+01 
    1.1304266738060507E+01 
    1.1312541984072837E+01 
    6.7463565239401344E+00 
    7.2888516977323219E+00 
    1.4345265515909915E+01 
    1.1322356978022917E+01 
    1.1362347303701229E+01 
    1.7210553384387897E+01 
    9.3582395406899650E+00 
    1.1334598910325568E+01 
    8.0769526119487622E+00 
    8.3348799766474997E+00 
    1.5616175106251328E+01 
    1.0959455459563488E+01 
    8.0309618670868641E+00 
    1.1896954358201763E+01 
    1.1218841245981793E+01 
    1.5620027065162111E+01 
    1.7308875426133561E+01 
    1.1693294075410683E+00 
    1.1325044843071549E+01 
    1.1562911806903424E+01 
    1.5691111133461948E+01 
    1.0816545790154244E+01 
    1.1277307363126924E+01 
    1.6716284260763334E+01 
    9.7741012163349588E+00 
    8.1033737626805635E+00 
    1.3597873782946477E+01 
    1.5448411566392359E+01 
    1.6577058766353566E+01 
    1.6862964736346381E+01 
    1.1156271786158696E+01 
    1.1315835445180555E+01 
    1.2714240513490207E+01 
    7.4881997209490567E+00 
    1.5590619950859322E+01 
    8.7240948195386157E+00 
    7.7953670710085783E+00 
    1.4178231084565645E+01 
    1.3368588756366211E+01 
    7.6460131269065874E+00 
    1.5487324039419262E+01 
    1.6562243657752312E+01 
    1.1759676027450311E+01 
    1.7416577299512721E+01 
    1.5523972264656278E+01 
    1.0878391271096289E+01 
    1.6278292590861859E+01 
    8.3345911056927786E+00 
    1.5469103083090451E+01 
    1.1323836815820677E+01 
    1.1283509365725429E+01 
    1.7392149389999400E+01 
    1.1035997354514496E+01 
    1.3916061795490625E+01 
    9.7173557974652702E+00 
    1.6688853133817219E+01 
    1.5365525730481826E+01 
    1.0132629283017065E+01 
    1.5421191990257043E+01 
    1.0299992258830832E+01 
    1.1285226306677432E+01 
    1.6518584350759831E+01 
    1.5774148406639290E+01 
    1.6565570021764390E+01 
    1.5694782046187125E+01 
    1.0379800275417425E+01 
    1.0613416343466380E+01 
    1.6573215389508011E+01 
    1.0750593535470891E+01 
    1.5284407134572161E+01 
    1.1021700672062908E+01 
    4.5345467137673543E+00 
    7.8769422615589813E+00 
    7.2979758160772681E+00 
    1.6522577630430117E+01 
    1.7316241527182409E+01 
    1.5441158545100041E+01 
    1.2987160308288326E+01 
    1.5758755186483128E+01 
    1.5496763873106204E+01 
    1.6140379656088932E+01 
    6.5215899938278197E+00 
    4.2244305875661343E+00 
    1.2749773813994491E+01 
    1.0987066010808794E+01 
    1.5660766961459576E+01 
    1.5658013722803691E+01 
    1.1589048184603255E+01 
    1.5699103857994498E+01 
    1.1309757067460984E+01 
    1.1231920931398630E+01 
    5.8847326307025112E+00 
    4.2126976000461829E+00 
    1.7076733095875412E+01 
    8.8522587097610774E+00 
    1.0069720441387462E+01 
    1.1478407482197680E+01 
    1.8772908124759599E+01 
    1.1572815627269859E+01 
    1.1663276251595358E+01 
    4.7975077921616309E+00 
    1.1573495415049207E+01 
    1.1588937446560927E+01 
    1.5991208702410283E+01 
    9.7404874066328517E+00 
    1.0841852153486590E+01 
    1.7256113442454705E+01 
    1.1333938992912085E+01 
    1.5458556437148291E+01 
    1.5719206880804379E+01 
    1.3853497466006170E+01 
    9.6261143616331744E+00 
    1.5694429354917476E+01 
    1.1120437494552357E+01 
    1.5639968370413541E+01 
    1.5391194756734114E+01 
    1.6543268760432596E+01 
    1.5692101249268855E+01 
    1.4706827353287480E+01 
    1.1321765650890828E+01 
    7.5879405681583671E+00 
    1.8641583647415537E+01 
    8.9001231668990251E+00 
    1.6464299111714880E+01 
    1.1319049691434932E+01 
    9.4070761165768211E+00 
    5.6404049416313704E+00 
    1.1630298062104121E+01 
    1.5679793585135410E+01 
    1.5675911880317470E+01 
    1.1265617871199721E+01 
    1.1312942146699774E+01 
    1.7474244446251319E+01 
    1.6802253626344598E+01 
    1.1592905589270321E+01 
    3.9280791454421191E+00 
    1.4608106636351293E+01 
    1.8904304196023318E+01 
    1.1325231051207792E+01 
    1.3405987579290539E+01 
    1.0815762981667755E+01 
    1.8492172698650371E+01 
    1.6888302489473777E+01 
    1.6610540197393373E+01 
    1.1615974952532222E+01 
    5.2385104018721433E+00 
    1.0769705564416142E+01 
    1.0841478188382114E+01 
    1.0882881207342443E+01 
    4.2813630676996759E+00 