# vtk DataFile Version 2.0
Pressure Field Data 
ASCII 
DATASET UNSTRUCTURED_GRID 

POINTS 2860 double 

    0.0000000000000000E+00     0.0000000000000000E+00     0.0000000000000000E+00 
    1.0000000000000000E+00     0.0000000000000000E+00     0.0000000000000000E+00 
    1.0000000000000000E+00     1.0000000000000000E+00     0.0000000000000000E+00 
    0.0000000000000000E+00     1.0000000000000000E+00     0.0000000000000000E+00 
    2.5000000000000000E-01     2.5000000000000000E-01     0.0000000000000000E+00 
    7.5000000000000000E-01     2.5000000000000000E-01     0.0000000000000000E+00 
    7.5000000000000000E-01     7.5000000000000000E-01     0.0000000000000000E+00 
    2.5000000000000000E-01     7.5000000000000000E-01     0.0000000000000000E+00 
    3.1249999999942091E-02     0.0000000000000000E+00     0.0000000000000000E+00 
    6.2499999999873469E-02     0.0000000000000000E+00     0.0000000000000000E+00 
    9.3749999999826514E-02     0.0000000000000000E+00     0.0000000000000000E+00 
    1.2499999999977961E-01     0.0000000000000000E+00     0.0000000000000000E+00 
    1.5624999999968961E-01     0.0000000000000000E+00     0.0000000000000000E+00 
    1.8749999999959971E-01     0.0000000000000000E+00     0.0000000000000000E+00 
    2.1874999999950970E-01     0.0000000000000000E+00     0.0000000000000000E+00 
    2.4999999999941969E-01     0.0000000000000000E+00     0.0000000000000000E+00 
    2.8124999999932920E-01     0.0000000000000000E+00     0.0000000000000000E+00 
    3.1249999999923850E-01     0.0000000000000000E+00     0.0000000000000000E+00 
    3.4374999999914790E-01     0.0000000000000000E+00     0.0000000000000000E+00 
    3.7499999999905720E-01     0.0000000000000000E+00     0.0000000000000000E+00 
    4.0624999999896660E-01     0.0000000000000000E+00     0.0000000000000000E+00 
    4.3749999999887590E-01     0.0000000000000000E+00     0.0000000000000000E+00 
    4.6874999999878530E-01     0.0000000000000000E+00     0.0000000000000000E+00 
    4.9999999999869471E-01     0.0000000000000000E+00     0.0000000000000000E+00 
    5.3124999999877620E-01     0.0000000000000000E+00     0.0000000000000000E+00 
    5.6249999999885780E-01     0.0000000000000000E+00     0.0000000000000000E+00 
    5.9374999999893940E-01     0.0000000000000000E+00     0.0000000000000000E+00 
    6.2499999999902101E-01     0.0000000000000000E+00     0.0000000000000000E+00 
    6.5624999999910261E-01     0.0000000000000000E+00     0.0000000000000000E+00 
    6.8749999999918421E-01     0.0000000000000000E+00     0.0000000000000000E+00 
    7.1874999999926570E-01     0.0000000000000000E+00     0.0000000000000000E+00 
    7.4999999999934730E-01     0.0000000000000000E+00     0.0000000000000000E+00 
    7.8124999999942890E-01     0.0000000000000000E+00     0.0000000000000000E+00 
    8.1249999999951039E-01     0.0000000000000000E+00     0.0000000000000000E+00 
    8.4374999999959199E-01     0.0000000000000000E+00     0.0000000000000000E+00 
    8.7499999999967359E-01     0.0000000000000000E+00     0.0000000000000000E+00 
    9.0624999999975520E-01     0.0000000000000000E+00     0.0000000000000000E+00 
    9.3749999999983680E-01     0.0000000000000000E+00     0.0000000000000000E+00 
    9.6874999999991840E-01     0.0000000000000000E+00     0.0000000000000000E+00 
    1.0000000000000000E+00     3.1249999999942091E-02     0.0000000000000000E+00 
    1.0000000000000000E+00     6.2499999999873469E-02     0.0000000000000000E+00 
    1.0000000000000000E+00     9.3749999999826514E-02     0.0000000000000000E+00 
    1.0000000000000000E+00     1.2499999999977961E-01     0.0000000000000000E+00 
    1.0000000000000000E+00     1.5624999999968961E-01     0.0000000000000000E+00 
    1.0000000000000000E+00     1.8749999999959971E-01     0.0000000000000000E+00 
    1.0000000000000000E+00     2.1874999999950970E-01     0.0000000000000000E+00 
    1.0000000000000000E+00     2.4999999999941969E-01     0.0000000000000000E+00 
    1.0000000000000000E+00     2.8124999999932920E-01     0.0000000000000000E+00 
    1.0000000000000000E+00     3.1249999999923850E-01     0.0000000000000000E+00 
    1.0000000000000000E+00     3.4374999999914790E-01     0.0000000000000000E+00 
    1.0000000000000000E+00     3.7499999999905720E-01     0.0000000000000000E+00 
    1.0000000000000000E+00     4.0624999999896660E-01     0.0000000000000000E+00 
    1.0000000000000000E+00     4.3749999999887590E-01     0.0000000000000000E+00 
    1.0000000000000000E+00     4.6874999999878530E-01     0.0000000000000000E+00 
    1.0000000000000000E+00     4.9999999999869471E-01     0.0000000000000000E+00 
    1.0000000000000000E+00     5.3124999999877620E-01     0.0000000000000000E+00 
    1.0000000000000000E+00     5.6249999999885780E-01     0.0000000000000000E+00 
    1.0000000000000000E+00     5.9374999999893940E-01     0.0000000000000000E+00 
    1.0000000000000000E+00     6.2499999999902101E-01     0.0000000000000000E+00 
    1.0000000000000000E+00     6.5624999999910261E-01     0.0000000000000000E+00 
    1.0000000000000000E+00     6.8749999999918421E-01     0.0000000000000000E+00 
    1.0000000000000000E+00     7.1874999999926570E-01     0.0000000000000000E+00 
    1.0000000000000000E+00     7.4999999999934730E-01     0.0000000000000000E+00 
    1.0000000000000000E+00     7.8124999999942890E-01     0.0000000000000000E+00 
    1.0000000000000000E+00     8.1249999999951039E-01     0.0000000000000000E+00 
    1.0000000000000000E+00     8.4374999999959199E-01     0.0000000000000000E+00 
    1.0000000000000000E+00     8.7499999999967359E-01     0.0000000000000000E+00 
    1.0000000000000000E+00     9.0624999999975520E-01     0.0000000000000000E+00 
    1.0000000000000000E+00     9.3749999999983680E-01     0.0000000000000000E+00 
    1.0000000000000000E+00     9.6874999999991840E-01     0.0000000000000000E+00 
    9.6875000000003686E-01     1.0000000000000000E+00     0.0000000000000000E+00 
    9.3750000000011691E-01     1.0000000000000000E+00     0.0000000000000000E+00 
    9.0625000000015765E-01     1.0000000000000000E+00     0.0000000000000000E+00 
    8.7500000000017863E-01     1.0000000000000000E+00     0.0000000000000000E+00 
    8.4375000000028044E-01     1.0000000000000000E+00     0.0000000000000000E+00 
    8.1250000000040856E-01     1.0000000000000000E+00     0.0000000000000000E+00 
    7.8125000000054956E-01     1.0000000000000000E+00     0.0000000000000000E+00 
    7.5000000000066480E-01     1.0000000000000000E+00     0.0000000000000000E+00 
    7.1875000000086831E-01     1.0000000000000000E+00     0.0000000000000000E+00 
    6.8750000000102829E-01     1.0000000000000000E+00     0.0000000000000000E+00 
    6.5625000000114431E-01     1.0000000000000000E+00     0.0000000000000000E+00 
    6.2500000000129829E-01     1.0000000000000000E+00     0.0000000000000000E+00 
    5.9375000000147926E-01     1.0000000000000000E+00     0.0000000000000000E+00 
    5.6250000000168354E-01     1.0000000000000000E+00     0.0000000000000000E+00 
    5.3125000000188671E-01     1.0000000000000000E+00     0.0000000000000000E+00 
    5.0000000000205835E-01     1.0000000000000000E+00     0.0000000000000000E+00 
    4.6875000000192979E-01     1.0000000000000000E+00     0.0000000000000000E+00 
    4.3750000000180111E-01     1.0000000000000000E+00     0.0000000000000000E+00 
    4.0625000000167238E-01     1.0000000000000000E+00     0.0000000000000000E+00 
    3.7500000000154382E-01     1.0000000000000000E+00     0.0000000000000000E+00 
    3.4375000000141509E-01     1.0000000000000000E+00     0.0000000000000000E+00 
    3.1250000000128642E-01     1.0000000000000000E+00     0.0000000000000000E+00 
    2.8125000000115769E-01     1.0000000000000000E+00     0.0000000000000000E+00 
    2.5000000000102918E-01     1.0000000000000000E+00     0.0000000000000000E+00 
    2.1875000000090050E-01     1.0000000000000000E+00     0.0000000000000000E+00 
    1.8750000000077180E-01     1.0000000000000000E+00     0.0000000000000000E+00 
    1.5625000000064329E-01     1.0000000000000000E+00     0.0000000000000000E+00 
    1.2500000000051459E-01     1.0000000000000000E+00     0.0000000000000000E+00 
    9.3750000000385914E-02     1.0000000000000000E+00     0.0000000000000000E+00 
    6.2500000000257239E-02     1.0000000000000000E+00     0.0000000000000000E+00 
    3.1250000000128557E-02     1.0000000000000000E+00     0.0000000000000000E+00 
    0.0000000000000000E+00     9.6875000000003686E-01     0.0000000000000000E+00 
    0.0000000000000000E+00     9.3750000000011691E-01     0.0000000000000000E+00 
    0.0000000000000000E+00     9.0625000000015765E-01     0.0000000000000000E+00 
    0.0000000000000000E+00     8.7500000000017863E-01     0.0000000000000000E+00 
    0.0000000000000000E+00     8.4375000000028044E-01     0.0000000000000000E+00 
    0.0000000000000000E+00     8.1250000000040856E-01     0.0000000000000000E+00 
    0.0000000000000000E+00     7.8125000000054956E-01     0.0000000000000000E+00 
    0.0000000000000000E+00     7.5000000000066480E-01     0.0000000000000000E+00 
    0.0000000000000000E+00     7.1875000000086831E-01     0.0000000000000000E+00 
    0.0000000000000000E+00     6.8750000000102829E-01     0.0000000000000000E+00 
    0.0000000000000000E+00     6.5625000000114431E-01     0.0000000000000000E+00 
    0.0000000000000000E+00     6.2500000000129829E-01     0.0000000000000000E+00 
    0.0000000000000000E+00     5.9375000000147926E-01     0.0000000000000000E+00 
    0.0000000000000000E+00     5.6250000000168354E-01     0.0000000000000000E+00 
    0.0000000000000000E+00     5.3125000000188671E-01     0.0000000000000000E+00 
    0.0000000000000000E+00     5.0000000000205835E-01     0.0000000000000000E+00 
    0.0000000000000000E+00     4.6875000000192979E-01     0.0000000000000000E+00 
    0.0000000000000000E+00     4.3750000000180111E-01     0.0000000000000000E+00 
    0.0000000000000000E+00     4.0625000000167238E-01     0.0000000000000000E+00 
[...]
CELL_DATA 2795 
SCALARS Pressure double 1 
LOOKUP_TABLE default 

    5.2118370578201549E+00 
    1.1931896270917317E+01 
    8.4860193483680781E+00 
    8.0943894441962740E+00 
    6.4207096306927234E+00 
    1.1830837987693883E+01 
    1.2447323522105689E+01 
    4.6514150444251650E+00 
    8.9592785450369519E+00 
    6.8759151555549769E+00 
    5.9031744582825088E+00 
    1.1618291346781598E+01 
    1.1844335998108669E+01 
    1.1804809812598714E+01 
    7.8296669411938682E+00 
    4.5733804850535700E+00 
    7.4401909622608686E+00 
    6.2734508544743157E+00 
    1.1320124995992220E+01 
    8.4827015148303282E+00 
    8.3710840042703207E+00 
    1.1750468734008651E+01 
    7.8690672940646289E+00 
    3.0775500627961527E-01 
    1.1590243313917574E+01 
    1.1826282775280946E+01 
    1.2475210844531524E+01 
    5.6728131706818976E+00 
    1.1552543194249177E+01 
    1.2475013316733525E+01 
    8.5620688960906897E+00 
    8.7092917405822590E+00 
    6.1002542518352563E+00 
    8.4471007969982903E+00 
    2.7184370027103948E+00 
    7.4446644215545534E+00 
    8.4394967304156570E+00 
    1.2510886601078216E+01 
    1.2428267111439006E+01 
    1.1628892762471422E+01 
    6.3607750337217714E+00 
    1.1575320115425223E+01 
    6.4167041145759141E-01 
    8.3035669754673105E+00 
    1.2261939283714062E+01 
    1.2118542654030898E+01 
    1.1609496283524305E+01 
    9.2708271018540920E+00 
    1.1668651014486434E+01 
    7.6155335236280806E+00 
    7.2490158657447417E+00 
    8.6783219285994910E+00 
    8.2048628631013631E+00 
    7.4843126684869867E+00 
    8.6399020660723362E+00 
    1.1147632635476054E+01 
    1.0100510547595110E+01 
    6.4558428901421934E+00 
    1.1753860097168461E+01 
    1.1690175852417090E+01 
    8.1400037210544358E+00 
    8.1581280330090618E+00 
    8.0112694052180693E+00 
    1.2389392868193536E+01 
    1.2606053085732043E+01 
    7.4489038897970916E+00 
    8.6771128419433428E+00 
    1.1535240532021270E+01 
    9.9108627107377227E+00 
    8.1861937769285884E+00 
    1.2617297074507547E+01 
    1.1688112695315695E+01 
    7.3432048719555469E+00 
    1.2203023005577258E+01 
    8.8752929711881006E+00 
    1.1469033955142843E+01 
    1.2519943436302153E+01 
    8.7352853324325697E+00 
    5.3124842946377084E+00 
    8.6937830323966061E+00 
    1.2435259431913025E+01 
    1.2648859998057567E+01 
    7.4577244713018800E+00 
    8.6090060899944660E+00 
    1.2683758948334956E+01 
    8.4454824644894817E+00 
    7.9411766735133140E+00 
    1.0246567791395767E+01 
    5.0636605125115279E+00 
    7.2685683227631630E+00 
    8.6102790616759997E+00 
    9.0761742030159223E+00 
    1.4038780267127708E+01 
    6.2373864705392803E+00 
    8.6843265032109844E+00 
    1.1591474419905156E+01 
    1.1802431245570949E+01 
    5.4844947662975647E+00 
    8.3206800705782662E+00 
    8.6380906371549493E+00 
    1.1820364562264126E+01 
    8.6442912353546504E+00 
    1.1761611690340741E+01 
    3.3393074833316492E+00 
    5.7379136911806894E+00 
    8.8765177129872406E+00 
    1.1939973133006680E+01 
    7.4142998073506101E+00 
    7.9516649779677335E+00 
    8.6303270732005490E+00 
    7.9138025072577403E+00 
    9.8546387331418526E+00 
    7.7189335001428043E+00 
    7.3497709238935789E+00 
    5.7688586985129771E+00 
    9.9845054015849026E+00 
    8.7100099683454015E+00 
    1.2313242632631864E+01 
    7.4568969894830461E+00 
    8.0842121151852524E+00 
    1.1679886306875069E+01 
    6.7244479192787310E+00 
    1.2064905229649449E+01 
    8.5275451268216766E+00 
    8.0187774688367153E+00 
    1.1804629864570352E+01 
    8.7051853994257655E+00 
    1.2525081199317791E+01 
    1.0255282891462510E+01 
    1.1025275448251129E+01 
    1.2489974527166545E+01 
    6.2504150602079305E+00 
    8.8903763640884463E+00 
    1.1809732014024410E+01 
    2.5088075068551090E+00 
    8.6157991854191636E+00 
    1.2460677543091160E+01 
    8.0484845391914472E+00 
    9.2787829999359008E+00 
    5.4348485559854147E+00 
    1.1591451405875873E+01 
    1.4507725314713287E+01 
    1.0636173294767385E+01 
    8.0423985090841406E+00 
    7.1841270414072698E+00 
    9.2310388851092178E+00 
    8.5447824644350465E+00 
    5.9645531202990183E+00 
    1.2486523010556350E+01 
    1.1892384915795523E+01 
    1.1592959295390084E+01 
    9.0963610885120758E+00 
    7.3180568064045959E+00 
    8.3709638251438658E+00 
    1.2226514193419105E+01 
    7.5305392999716894E+00 
    8.4336357297660189E+00 
    7.6697664227963900E+00 
    9.7748518387643841E+00 
    1.4496491272438673E+01 
    1.1585670139413919E+01 
    7.2858993330325079E+00 
    1.1970109641029817E+01 
    1.1904132142144954E+01 
    1.1973962317125155E+01 
    1.2864647919095319E+01 
    1.3362194717117873E+01 
    1.2114357271548556E+01 
    8.6696234835205317E+00 
    9.1693495226498118E+00 
    1.1967766124432037E+01 
    1.2320630385122348E+01 
    6.2149041107268870E+00 
    1.1609049049195161E+01 
    1.2193670945240054E+01 
    6.0602769366838771E+00 
    1.2782143023743217E+01 
    1.2775099256666703E+01 
    1.1377783037442359E+01 
    8.9431900412260816E+00 
    2.2045756309137601E+00 
    1.2461155115216725E+01 
    8.8226428045395391E+00 
    1.2571940454555362E+01 
    7.9902992789145868E+00 
    1.2313941909988595E+01 
    7.8238379014393000E-01 
    1.1041380820058608E+01 
    8.1961830500733281E+00 
    7.2845361760467862E+00 
    7.0966339015794953E+00 
    8.4980152741910420E+00 
    9.5353501132090983E+00 
    8.7590389458749591E+00 
    5.8573333156680327E+00 
    1.2317968733045008E+01 
    1.1832196332867607E+01 
    1.0014596456941069E+01 
    8.8684391643999092E+00 
    1.2869918501521889E+00 
    6.5425769053409724E+00 
    4.5215461275681346E+00 
    1.2486149105822513E+01 
    9.6104487520601047E+00 
    1.1882672849274533E+01 
    1.1888651561586778E+01 
    7.6016912723076153E+00 
    1.0020002878049874E+01 
    1.1588774112003751E+01 
    1.2758412683882385E+01 
    5.4153925560886274E+00 
    1.0450507672773261E+01 
    8.7892298063058796E+00 
    4.8187730546756740E+00 
    7.5909835712406899E+00 
    1.0442684525758896E+01 
    1.1856205638143187E+01 
    8.5556149854452528E+00 
    1.1953481322163318E+01 
    1.1748054020763835E+01 
    1.1705144841884376E+01 
    8.3793021429249066E+00 
    7.2456633862211293E+00 
    1.1599817947730706E+01 
    7.3382055802842778E+00 
    8.6472903680325093E+00 
    7.1919612493146214E+00 
    8.3852725359364317E+00 
    1.1895709961564771E+01 
    5.3978255734151679E+00 
    7.5143003832929356E+00 
    1.2406348614049092E+01 
    8.3961966193376050E+00 
    9.5111966393338410E+00 
    5.5402826925161426E+00 
    7.3925020474489163E+00 
    1.1729076643473423E+01 
    1.2002483373503550E+01 
    4.5037667046813183E+00 
    8.3950159935280979E+00 
    7.2261142074390126E+00 
    1.3144013878382275E+01 
    1.2655274752769587E+01 
    1.3385933731982181E+01 
    8.4165211463439427E+00 
    1.1873684577888412E+01 
    1.1553375669229814E+01 
    8.2994797944568042E+00 
    1.1593060283595662E+01 
    8.8674033650835078E+00 
    4.8841427133709674E+00 
    8.5736407848105802E+00 
    1.2397394886410519E+01 
    1.1590358792394083E+01 
    5.8717972179160185E+00 
    1.1614875107174019E+01 
    9.5420640831121979E+00 
    8.5992053448813657E+00 
    8.1262700159970009E+00 
    1.1479838658210463E+01 
    9.0679490942446233E+00 
    1.1603988964893857E+01 
    8.2569848009632221E+00 
    5.0708630795329110E+00 
    8.7069178272652632E+00 
    7.1045915315060952E+00 
    1.0636612014205822E+01 
    1.2567511700572732E+01 
    1.1599154070989497E+01 
    1.2454602685625023E+01 
    8.3488798828430291E+00 
    5.7212537588746120E+00 
    5.8022828884369071E+00 
    8.7820996204057771E+00 
    8.6262177291776094E+00 
    1.2166981749142511E+00 
    1.1190592162132367E+01 
    1.2886370246789804E+01 
    7.9975511535211252E+00 
    5.0861348618517690E+00 
    9.7290241710722984E+00 
    1.1613592821469995E+01 
    6.0439282261058755E+00 
    4.0941840165550163E+00 
    8.5987563919902765E+00 
    1.1694177599674349E+01 
    1.2234512331569036E+01 
    1.2131543983616744E+01 
    1.2006826991285019E+01 
    5.8948499192619366E+00 
    8.5874493322903422E+00 
    1.1191645063067183E+01 
    6.7627975893134602E+00 
    1.1833205067530033E+01 
    1.0205955673117064E+01 
    5.8878898620275839E+00 
    1.1704243577628953E+01 
    1.2478830806853702E+01 
    1.1692435052388271E+01 
    5.8182185283573284E+00 
    8.6734914027554755E+00 
    6.3985702836438403E+00 
    8.1703592554975017E+00 
    1.1606571141843474E+01 
    1.1596798307541814E+01 
    5.8525368116540548E+00 
    1.2348622997703480E+01 
    9.1411839823232519E+00 
    1.1632364383907060E+01 
    1.2325613757049188E+01 
    1.1617461246536829E+01 
    1.0838866485687721E+01 
    1.3190835220856691E+01 
    7.9730700643034966E+00 
    1.2428288201497798E+01 
    1.1654360669985902E+01 
    1.2491697481256505E+01 
    1.2342822957758425E+01 
    8.0595135728203129E+00 
    8.4807950592190444E+00 
    7.9882768059128830E+00 
    1.0435530896049629E+01 
    3.3478970158233201E+00 
    8.7239044789955784E+00 
    1.3309486488070899E+01 
    8.8731458144584803E+00 
    9.0352170844709594E+00 
    1.2467679821724280E+01 
    1.2677001498225843E+01 
    7.9531516944501259E+00 
    1.1618435512698014E+01 
    1.1594010867992731E+01 
    9.0246466352981969E+00 
    1.2303849539095452E+01 
    6.1792559819205835E+00 
    3.9104660270754068E+00 
    9.2721228713219155E+00 
    8.8850318910464328E+00 
    1.1598435550328594E+01 
    5.4694137030040428E+00 
    1.2060661776233676E+01 
    3.9886495021579269E+00 
    8.8287303639869101E+00 
    8.1401705464818814E+00 
    8.6517675219397425E+00 
    1.4546918923150486E+01 
    3.2569674829473856E+00 
    8.6351803736411163E+00 
    1.0154381480836344E+01 
    8.2599812089322686E+00 
    6.4499956956499807E+00 
    1.2164782281743943E+01 
    1.4121529446688681E+01 
    1.2288376097299812E+01 
    8.5777832939263909E+00 
    4.7933528198316822E+00 
    1.3984886447877649E+01 
    1.1820779716439002E+01 
    6.1950250499576649E+00 
    8.1650044889017721E+00 
    1.2850430016610732E+01 
    2.7693099645800374E+00 
    8.9291547791098509E+00 
    1.2258750733492183E+01 
    8.6640295765574464E+00 
    7.5343755582904910E+00 
    8.6793573948199629E+00 
    1.1367822864558747E+01 
    8.6451471035042697E+00 
    4.2723527709913176E+00 
    7.5245137900903714E-01 
    6.4714502469082813E+00 
    1.3043453664954807E+01 
    7.9875981800812559E+00 
    9.7681311246019451E+00 
    9.3650876559103846E+00 
    1.0658687748545317E+01 
    8.6764818347445445E+00 
    1.1741522474679828E+01 
    1.4560755019929088E+01 
    1.0168222565949536E+01 
    1.2404518462219562E+01 
    4.5646223755626986E-01 
    1.1598399912850935E+01 
    4.7374813559244604E+00 
    1.3468485600494290E+01 
    8.6496284743295710E+00 
    7.6397740749471383E+00 
    6.5277925950099949E+00 
    4.4811284570509775E+00 
    9.6302819763787859E+00 
    6.8305311384784746E+00 
    1.0548243522462366E+01 
    1.8372145723035809E+00 
    9.5672335848804906E+00 
    1.1542464896352719E+01 
    5.2565523200914859E+00 
    1.2005606559070630E+01 
    1.3286382900601033E+01 
    1.1878974300506410E+01 
    8.5201586790634831E+00 
    8.6471726169410434E+00 
    8.6423418762971345E+00 
    4.8591456012056069E+00 
    7.7617428845223779E+00 
    7.6294796989794129E+00 
    8.6303802698735073E+00 
    7.9314819631366138E+00 
    5.7482407773807165E-01 
    5.4286623464947583E+00 
    8.2625147503238434E+00 
    8.6061965974426169E+00 
    1.0833072488005305E+01 
    1.8263253484022222E+00 
    8.9897927511258970E+00 
    8.8899458764193309E+00 
    3.1300530533563271E+00 
    1.1769366628812469E+01 
    7.3565125212231539E+00 
    8.7678196347420378E+00 
    1.1815986246530315E+01 
    4.5002415614458169E+00 
    1.1864467596870609E+01 
    7.4528535836186620E+00 
    8.4307398978923842E-01 
    8.0415372027007272E+00 
    1.2362138271744536E+01 
    1.1598641147863706E+01 
    1.1615637818014910E+01 
    8.9915619456441771E+00 
    8.8317295868664480E+00 
    7.3379793069674237E+00 
    5.8922430245251514E+00 
    1.1909420480608757E+01 
    8.1642175687325711E+00 
    5.7624892208106635E+00 
    1.1610662754375747E+01 
    1.2194436184839118E+01 
    8.7958121600548527E+00 
    8.4421470082999530E+00 
    1.4445507638336055E+01 
    9.0252897706004607E+00 
    1.1928759527722544E+01 
    6.9661589988696697E+00 
    1.4589195557233317E+01 
    5.7676429790956405E+00 
    7.7230156630599103E+00 
    6.4434214883749776E+00 
    9.2221297811036482E+00 
    7.3468163215256901E+00 
    1.4573100090477537E+01 
    9.0662563428412319E+00 
    1.1318852684374246E+01 
    5.9327186245645906E+00 
    8.6736684750048809E+00 
    1.1792192031274727E+01 
    7.3703592899173405E+00 
    6.1232762429274636E+00 
    9.4455838900371347E+00 
    1.1999857476846000E+01 
    6.3466102513712981E+00 
    8.1568779692451301E+00 
    8.4650565266089615E+00 
    1.1577942551997882E+01 
    8.2878797847369903E+00 
    1.1972799705141606E+01 
    1.2517585344943837E+01 
    7.3605023358564940E+00 
    7.2101727283471337E+00 
    6.8636348351326379E+00 
    1.1695455540478759E+01 
    8.8800587340370889E+00 
    1.4159684182946492E+01 
    1.1037747803531701E+01 
    1.1755604694517206E+01 
    1.3865330117252446E+01 
    1.3294358087273245E+01 
    8.7161691845244018E+00 
    8.6155280977199844E+00 
    1.1404706106507829E+01 
    1.1629894052218647E+01 
    1.2060377202749160E+01 
    1.1837885981067744E+01 
    1.4463344822843334E+01 
    9.0249114841595812E+00 
    7.4471351634482090E+00 
    8.9857663736316358E+00 
    1.2440737352728179E+01 
    8.8012716372305810E+00 
    5.1337583472439032E+00 
    8.5048397366974431E+00 
    1.2818649348146501E+01 
    8.9210626744064978E+00 
    7.4557546610987462E+00 
    8.4053519741892515E+00 
    1.2919831537508625E+01 
    1.1624089631328300E+01 
    7.0688151718377652E+00 
    1.3044929553182355E+01 
    8.7422031641701263E+00 
    1.2063104814275851E+01 
    1.2931623459562042E+01 
    9.0645472771143059E+00 
    4.5025096881627231E+00 
    9.4143108786176004E+00 
    4.6586898960759457E+00 
    8.8446341139474747E+00 
    8.6640930260511126E+00 
    9.9028369832351899E+00 
    4.9258962391327499E+00 
    1.0509156323866229E+01 
    8.6846998663457100E+00 
    1.1829740045494393E+01 
    9.0369333429047511E+00 
    6.9029176204897462E+00 
    8.2941103263193963E+00 
    9.1092423648869172E+00 
    9.1159993908992423E+00 
    1.2558215237888986E+01 
    7.1087231258159456E+00 
    6.9848690981354666E+00 
    5.1837458570235802E+00 
    1.2083426216363174E+01 
    8.3291561026720053E+00 
    1.1447133214854563E+01 
    8.6362852229275457E+00 
    5.6771659491490967E+00 
    1.1646933182155646E+01 
    8.6108052016870964E+00 
    6.2003702993781094E+00 
    6.5769448614724642E+00 
    6.8150511035697638E+00 
    1.1855058998693396E+01 
    8.6324393570389653E+00 
    1.2413806284387240E+01 
    8.5680817585036113E+00 
    8.5055715651687152E+00 
    8.0775657816321846E+00 
    1.1717237818442486E+01 
    8.4249759667192627E+00 
    6.8508135813538553E+00 
    1.3282270720758497E+01 
    1.1785474095931193E+01 
    6.0412827891719107E+00 
    2.3026406873177017E+00 
    8.6210533879084430E+00 
    8.0686909859935643E+00 
    7.2045700596344915E+00 
    7.8974110077470581E+00 
    1.1768555759292134E+01 
    8.3437911847870261E+00 
    7.5026483857146644E+00 
    1.1648055949361893E+01 
    5.9880906502233655E+00 
    1.1371215321417015E+01 
    7.7966013760048360E+00 
    6.7924830223265031E+00 
    7.2750530908134108E+00 
    1.2137972416825180E+01 
    8.6546979360981933E+00 
    8.6622384064187639E+00 
    5.0009257851200521E+00 
    5.4121616465837761E+00 
    1.0785476081811565E+01 
    8.6714829288722299E+00 
    8.6654951988668323E+00 
    1.3030593763097517E+01 
    6.9869992870673112E+00 
    8.6827686185317976E+00 
    6.1897559717142521E+00 
    6.3740682997037226E+00 
    1.1708664906224854E+01 
    8.3226284711515017E+00 
    5.9762323411695384E+00 
    9.0961000645730135E+00 
    8.5450516161943497E+00 
    1.1712399499497050E+01 
    1.3116756301548385E+01 
    8.8925777498814396E-01 
    8.6263888627849923E+00 
    8.8837072554909238E+00 
    1.1768865973668813E+01 
    8.1097453037835283E+00 
    8.6305064774609388E+00 
    1.2602723912734467E+01 
    7.3055905590893779E+00 
    6.0303075641789112E+00 
    1.0435725916757624E+01 
    1.1609973866004783E+01 
    1.2491139686817258E+01 
    1.2738191574019238E+01 
    8.4717784353985248E+00 
    8.6182689879375030E+00 
    9.6887611119493968E+00 
    5.7417199158532544E+00 
    1.1716735912282170E+01 
    6.5054378544971625E+00 
    5.9801165938384653E+00 
    1.0776619542323342E+01 
    1.0142921842046277E+01 
    5.8651796947445174E+00 
    1.1639764789361358E+01 
    1.2478271740292746E+01 
    9.0384015708296204E+00 
    1.3210687802917173E+01 
    1.1666914471644056E+01 
    8.1972696374215026E+00 
    1.2246390580267185E+01 
    6.3798554111403689E+00 
    1.1625219019901161E+01 
    8.6252871450116153E+00 
    8.5834058259543990E+00 
    1.3185967348671763E+01 
    8.3571727916252083E+00 
    1.0528240904420420E+01 
    7.2614837064878639E+00 
    1.2583907599479895E+01 
    1.1547478005631005E+01 
    7.5826994787489586E+00 
    1.1590751796406211E+01 
    7.8133067134021754E+00 
    8.6392878732817255E+00 
    1.2442682085075059E+01 
    1.1830209541649355E+01 
    1.2481254822549106E+01 
    1.1771407159303848E+01 
    7.7673632699242576E+00 
    7.9764934178942166E+00 
    1.2487092654939925E+01 
    8.0892898456927664E+00 
    1.1491607215457671E+01 
    8.3512586412560097E+00 
    3.3796157254433989E+00 
    6.0381003843216412E+00 
    5.5931217916693683E+00 
    1.2445608969883834E+01 
    1.3121859016914716E+01 
    1.1605626471728376E+01 
    1.0029007409783921E+01 
    1.1845156799071411E+01 
    1.1645970613951128E+01 
    1.2143687839620133E+01 
    4.8278010538402452E+00 
    3.1521558146991286E+00 
    9.8387584193369140E+00 
    8.2568363170412145E+00 
    1.1770031917243889E+01 
    1.1767908532731873E+01 
    8.8980400111894511E+00 
    1.1799238969066192E+01 
    8.6127590143446380E+00 
    8.4727326138143564E+00 
    4.3575595336768087E+00 
    3.1382154135148257E+00 
    1.2917423064716308E+01 
    6.7601853075022742E+00 
    7.5307114177431052E+00 
    8.8108215718602807E+00 
    1.4446185143110442E+01 
    8.8918003057465160E+00 
    8.8267701323305694E+00 
    3.5768527215489048E+00 
    8.8922472753971373E+00 
    8.9038403315375749E+00 
    1.2032801614391728E+01 
    7.2782769801937750E+00 
    8.2494476741894385E+00 
    1.3071170615608208E+01 
    8.6360116219560812E+00 
    1.1618653569797917E+01 
    1.1830385095537363E+01 
    1.0660318830477644E+01 
    7.3248224369496349E+00 
    1.1770633072443292E+01 
    8.4193869756817641E+00 
    1.1780365990393763E+01 
    1.1566461686145930E+01 
    1.2462519427979284E+01 
    1.1770497619036034E+01 
    1.1079692020458499E+01 
    8.6234797049612020E+00 
    5.8183577424266790E+00 
    1.4323413696083970E+01 
    6.6391573931626784E+00 
    1.2405628952004626E+01 
    8.6207386792352789E+00 
    7.0211551316991416E+00 
    4.2464709858725413E+00 
    8.9330948674739794E+00 
    1.1759854698124455E+01 
    1.1755517605798563E+01 
    8.6222663863626341E+00 
    8.6146125918334455E+00 
    1.3263561014546990E+01 
    1.2686049134195459E+01 
    8.9085354976411466E+00 
    2.9353108076922427E+00 
    1.1054619231064649E+01 
    1.4571455619756366E+01 
    8.6270289016325794E+00 
    1.0337165750369920E+01 
    8.1042407136090215E+00 
    1.4186867077467960E+01 
    1.2756487192723450E+01 
    1.2513270585733149E+01 
    8.9281505516836202E+00 
    3.9646876900370485E+00 
    8.0652227263205081E+00 
    8.1306050925671887E+00 
    8.1809597739199464E+00 
    3.1947952132419579E+00 