# vtk DataFile Version 2.0
Pressure Field Data 
ASCII 
DATASET UNSTRUCTURED_GRID 

POINTS 2860 double 

    0.0000000000000000E+00     0.0000000000000000E+00     0.0000000000000000E+00 
    1.0000000000000000E+00     0.0000000000000000E+00     0.0000000000000000E+00 
    1.0000000000000000E+00     1.0000000000000000E+00     0.0000000000000000E+00 
    0.0000000000000000E+00     1.0000000000000000E+00     0.0000000000000000E+00 
    2.5000000000000000E-01     2.5000000000000000E-01     0.0000000000000000E+00 
    7.5000000000000000E-01     2.5000000000000000E-01     0.0000000000000000E+00 
    7.5000000000000000E-01     7.5000000000000000E-01     0.0000000000000000E+00 
    2.5000000000000000E-01     7.5000000000000000E-01     0.0000000000000000E+00 
    3.1249999999942091E-02     0.0000000000000000E+00     0.0000000000000000E+00 
    6.2499999999873469E-02     0.0000000000000000E+00     0.0000000000000000E+00 
    9.3749999999826514E-02     0.0000000000000000E+00     0.0000000000000000E+00 
    1.2499999999977961E-01     0.0000000000000000E+00     0.0000000000000000E+00 
    1.5624999999968961E-01     0.0000000000000000E+00     0.0000000000000000E+00 
    1.8749999999959971E-01     0.0000000000000000E+00     0.0000000000000000E+00 
    2.1874999999950970E-01     0.0000000000000000E+00     0.0000000000000000E+00 
    2.4999999999941969E-01     0.0000000000000000E+00     0.0000000000000000E+00 
    2.8124999999932920E-01     0.0000000000000000E+00     0.0000000000000000E+00 
    3.1249999999923850E-01     0.0000000000000000E+00     0.0000000000000000E+00 
    3.4374999999914790E-01     0.0000000000000000E+00     0.0000000000000000E+00 
    3.7499999999905720E-01     0.0000000000000000E+00     0.0000000000000000E+00 
    4.0624999999896660E-01     0.0000000000000000E+00     0.0000000000000000E+00 
    4.3749999999887590E-01     0.0000000000000000E+00     0.0000000000000000E+00 
    4.6874999999878530E-01     0.0000000000000000E+00     0.0000000000000000E+00 
    4.9999999999869471E-01     0.0000000000000000E+00     0.0000000000000000E+00 
    5.3124999999877620E-01     0.0000000000000000E+00     0.0000000000000000E+00 
    5.6249999999885780E-01     0.0000000000000000E+00     0.0000000000000000E+00 
    5.9374999999893940E-01     0.0000000000000000E+00     0.0000000000000000E+00 
    6.2499999999902101E-01     0.0000000000000000E+00     0.0000000000000000E+00 
    6.5624999999910261E-01     0.0000000000000000E+00     0.0000000000000000E+00 
    6.8749999999918421E-01     0.0000000000000000E+00     0.0000000000000000E+00 
    7.1874999999926570E-01     0.0000000000000000E+00     0.0000000000000000E+00 
    7.4999999999934730E-01     0.0000000000000000E+00     0.0000000000000000E+00 
    7.8124999999942890E-01     0.0000000000000000E+00     0.0000000000000000E+00 
    8.1249999999951039E-01     0.0000000000000000E+00     0.0000000000000000E+00 
    8.4374999999959199E-01     0.0000000000000000E+00     0.0000000000000000E+00 
    8.7499999999967359E-01     0.0000000000000000E+00     0.0000000000000000E+00 
    9.0624999999975520E-01     0.0000000000000000E+00     0.0000000000000000E+00 
    9.3749999999983680E-01     0.0000000000000000E+00     0.0000000000000000E+00 
    9.6874999999991840E-01     0.0000000000000000E+00     0.0000000000000000E+00 
    1.0000000000000000E+00     3.1249999999942091E-02     0.0000000000000000E+00 
    1.0000000000000000E+00     6.2499999999873469E-02     0.0000000000000000E+00 
    1.0000000000000000E+00     9.3749999999826514E-02     0.0000000000000000E+00 
    1.0000000000000000E+00     1.2499999999977961E-01     0.0000000000000000E+00 
    1.0000000000000000E+00     1.5624999999968961E-01     0.0000000000000000E+00 
    1.0000000000000000E+00     1.8749999999959971E-01     0.0000000000000000E+00 
    1.0000000000000000E+00     2.1874999999950970E-01     0.0000000000000000E+00 
    1.0000000000000000E+00     2.4999999999941969E-01     0.0000000000000000E+00 
    1.0000000000000000E+00     2.8124999999932920E-01     0.0000000000000000E+00 
    1.0000000000000000E+00     3.1249999999923850E-01     0.0000000000000000E+00 
    1.0000000000000000E+00     3.4374999999914790E-01     0.0000000000000000E+00 
    1.0000000000000000E+00     3.7499999999905720E-01     0.0000000000000000E+00 
    1.0000000000000000E+00     4.0624999999896660E-01     0.0000000000000000E+00 
    1.0000000000000000E+00     4.3749999999887590E-01     0.0000000000000000E+00 
    1.0000000000000000E+00     4.6874999999878530E-01     0.0000000000000000E+00 
    1.0000000000000000E+00     4.9999999999869471E-01     0.0000000000000000E+00 
    1.0000000000000000E+00     5.3124999999877620E-01     0.0000000000000000E+00 
    1.0000000000000000E+00     5.6249999999885780E-01     0.0000000000000000E+00 
    1.0000000000000000E+00     5.9374999999893940E-01     0.0000000000000000E+00 
    1.0000000000000000E+00     6.2499999999902101E-01     0.0000000000000000E+00 
    1.0000000000000000E+00     6.5624999999910261E-01     0.0000000000000000E+00 
    1.0000000000000000E+00     6.8749999999918421E-01     0.0000000000000000E+00 
    1.0000000000000000E+00     7.1874999999926570E-01     0.0000000000000000E+00 
    1.0000000000000000E+00     7.4999999999934730E-01     0.0000000000000000E+00 
    1.0000000000000000E+00     7.8124999999942890E-01     0.0000000000000000E+00 
    1.0000000000000000E+00     8.1249999999951039E-01     0.0000000000000000E+00 
    1.0000000000000000E+00     8.4374999999959199E-01     0.0000000000000000E+00 
    1.0000000000000000E+00     8.7499999999967359E-01     0.0000000000000000E+00 
    1.0000000000000000E+00     9.0624999999975520E-01     0.0000000000000000E+00 
    1.0000000000000000E+00     9.3749999999983680E-01     0.0000000000000000E+00 
    1.0000000000000000E+00     9.6874999999991840E-01     0.0000000000000000E+00 
    9.6875000000003686E-01     1.0000000000000000E+00     0.0000000000000000E+00 
    9.3750000000011691E-01     1.0000000000000000E+00     0.0000000000000000E+00 
    9.0625000000015765E-01     1.0000000000000000E+00     0.0000000000000000E+00 
    8.7500000000017863E-01     1.0000000000000000E+00     0.0000000000000000E+00 
    8.4375000000028044E-01     1.0000000000000000E+00     0.0000000000000000E+00 
    8.1250000000040856E-01     1.0000000000000000E+00     0.0000000000000000E+00 
    7.8125000000054956E-01     1.0000000000000000E+00     0.0000000000000000E+00 
    7.5000000000066480E-01     1.0000000000000000E+00     0.0000000000000000E+00 
    7.1875000000086831E-01     1.0000000000000000E+00     0.0000000000000000E+00 
    6.8750000000102829E-01     1.0000000000000000E+00     0.0000000000000000E+00 
    6.5625000000114431E-01     1.0000000000000000E+00     0.0000000000000000E+00 
    6.2500000000129829E-01     1.0000000000000000E+00     0.0000000000000000E+00 
    5.9375000000147926E-01     1.0000000000000000E+00     0.0000000000000000E+00 
    5.6250000000168354E-01     1.0000000000000000E+00     0.0000000000000000E+00 
    5.3125000000188671E-01     1.0000000000000000E+00     0.0000000000000000E+00 
    5.0000000000205835E-01     1.0000000000000000E+00     0.0000000000000000E+00 
    4.6875000000192979E-01     1.0000000000000000E+00     0.0000000000000000E+00 
    4.3750000000180111E-01     1.0000000000000000E+00     0.0000000000000000E+00 
    4.0625000000167238E-01     1.0000000000000000E+00     0.0000000000000000E+00 
    3.7500000000154382E-01     1.0000000000000000E+00     0.0000000000000000E+00 
    3.4375000000141509E-01     1.0000000000000000E+00     0.0000000000000000E+00 
    3.1250000000128642E-01     1.0000000000000000E+00     0.0000000000000000E+00 
    2.8125000000115769E-01     1.0000000000000000E+00     0.0000000000000000E+00 
    2.5000000000102918E-01     1.0000000000000000E+00     0.0000000000000000E+00 
    2.1875000000090050E-01     1.0000000000000000E+00     0.0000000000000000E+00 
    1.8750000000077180E-01     1.0000000000000000E+00     0.0000000000000000E+00 
    1.5625000000064329E-01     1.0000000000000000E+00     0.0000000000000000E+00 
    1.2500000000051459E-01     1.0000000000000000E+00     0.0000000000000000E+00 
    9.3750000000385914E-02     1.0000000000000000E+00     0.0000000000000000E+00 
    6.2500000000257239E-02     1.0000000000000000E+00     0.0000000000000000E+00 
    3.1250000000128557E-02     1.0000000000000000E+00     0.0000000000000000E+00 
    0.0000000000000000E+00     9.6875000000003686E-01     0.0000000000000000E+00 
    0.0000000000000000E+00     9.3750000000011691E-01     0.0000000000000000E+00 
    0.0000000000000000E+00     9.0625000000015765E-01     0.0000000000000000E+00 
    0.0000000000000000E+00     8.7500000000017863E-01     0.0000000000000000E+00 
    0.0000000000000000E+00     8.4375000000028044E-01     0.0000000000000000E+00 
    0.0000000000000000E+00     8.1250000000040856E-01     0.0000000000000000E+00 
    0.0000000000000000E+00     7.8125000000054956E-01     0.0000000000000000E+00 
    0.0000000000000000E+00     7.5000000000066480E-01     0.0000000000000000E+00 
    0.0000000000000000E+00     7.1875000000086831E-01     0.0000000000000000E+00 
    0.0000000000000000E+00     6.8750000000102829E-01     0.0000000000000000E+00 
    0.0000000000000000E+00     6.5625000000114431E-01     0.0000000000000000E+00 
    0.0000000000000000E+00     6.2500000000129829E-01     0.0000000000000000E+00 
    0.0000000000000000E+00     5.9375000000147926E-01     0.0000000000000000E+00 
    0.0000000000000000E+00     5.6250000000168354E-01     0.0000000000000000E+00 
    0.0000000000000000E+00     5.3125000000188671E-01     0.0000000000000000E+00 
    0.0000000000000000E+00     5.0000000000205835E-01     0.0000000000000000E+00 
    0.0000000000000000E+00     4.6875000000192979E-01     0.0000000000000000E+00 
    0.0000000000000000E+00     4.3750000000180111E-01     0.0000000000000000E+00 
    0.0000000000000000E+00     4.0625000000167238E-01     0.0000000000000000E+00 
[...]
CELL_DATA 2795 
SCALARS Pressure double 1 
LOOKUP_TABLE default 

    5.6664076239523231E+00 
    1.3027416270420657E+01 
    9.2115089798083147E+00 
    8.8124856179880666E+00 
    6.9849032672613109E+00 
    1.2914763349562151E+01 
    1.3581051709212828E+01 
    5.0540183270387153E+00 
    9.7497135214063775E+00 
    7.4471297820881750E+00 
    6.3395763487862586E+00 
    1.2681989301939751E+01 
    1.2937690384505009E+01 
    1.2886485284126692E+01 
    8.4963128943405160E+00 
    4.9688574392446565E+00 
    8.0974395760464546E+00 
    6.7565449119807690E+00 
    1.2354112617017373E+01 
    9.2020953341673195E+00 
    9.0962064353613687E+00 
    1.2827303167462201E+01 
    8.5671060532427354E+00 
    3.3227223022832575E-01 
    1.2664916640477708E+01 
    1.2913867799965962E+01 
    1.3610400796052211E+01 
    6.0932616256670062E+00 
    1.2609741236309226E+01 
    1.3606647687122280E+01 
    9.2558350293210534E+00 
    9.4441184197568422E+00 
    6.5845000203648816E+00 
    9.1725600227736734E+00 
    2.9280092511360158E+00 
    8.1024211553097949E+00 
    9.1626549711566501E+00 
    1.3644184634749946E+01 
    1.3560245277619250E+01 
    1.2693734224351461E+01 
    6.9177967393140385E+00 
    1.2643156834759118E+01 
    6.9211936772063876E-01 
    9.0426157780768808E+00 
    1.3383844028355238E+01 
    1.3231698696235318E+01 
    1.2672246825918563E+01 
    1.0076124094547417E+01 
    1.2738215315247091E+01 
    8.2881201459273708E+00 
    7.8890145524258877E+00 
    9.4102218636447432E+00 
    8.9360157887451557E+00 
    8.1452329391848899E+00 
    9.3255209084904536E+00 
    1.2164362523140399E+01 
    1.0992791388735393E+01 
    7.0231712665192818E+00 
    1.2830954086123265E+01 
    1.2761238304184825E+01 
    8.8239166586969429E+00 
    8.8550934073663807E+00 
    8.7223530883370621E+00 
    1.3515557625231610E+01 
    1.3748416132271954E+01 
    8.1068756321184967E+00 
    9.4083022978622832E+00 
    1.2591231140762263E+01 
    1.0791546719734754E+01 
    8.8930866033236029E+00 
    1.3759954717112768E+01 
    1.2767473336724830E+01 
    7.9916984252859962E+00 
    1.3323315438395813E+01 
    9.5716687427749676E+00 
    1.2530293015680742E+01 
    1.3653730269816487E+01 
    9.5238426609123508E+00 
    5.7722614047344782E+00 
    9.4269572961825165E+00 
    1.3568145840305759E+01 
    1.3789701437225885E+01 
    8.1174291989898624E+00 
    9.3325843317076451E+00 
    1.3829397878645205E+01 
    9.1665154631097021E+00 
    8.6459040604565853E+00 
    1.1165201929760475E+01 
    5.5048586496015162E+00 
    7.9101911119763386E+00 
    9.3334031926280971E+00 
    9.8804479411405115E+00 
    1.5235324058386940E+01 
    6.7852535072701068E+00 
    9.4162505773799605E+00 
    1.2652182967992006E+01 
    1.2892802332114501E+01 
    5.9633784304236181E+00 
    9.0420048037044864E+00 
    9.3629899905761853E+00 
    1.2911777174251990E+01 
    9.3712918076795866E+00 
    1.2848846011570037E+01 
    3.6191234122637566E+00 
    6.1623206168311082E+00 
    9.6328306467457061E+00 
    1.3035550445407223E+01 
    8.0696059269301852E+00 
    8.6208295289651833E+00 
    9.3573525114160798E+00 
    8.6154988816443332E+00 
    1.0651381031880655E+01 
    8.3772718275634617E+00 
    7.9990546234363995E+00 
    6.2703115174415718E+00 
    1.0898914395691053E+01 
    9.4439863161757671E+00 
    1.3433756037757664E+01 
    8.0909033154726906E+00 
    8.7976520795122557E+00 
    1.2757354946452585E+01 
    7.3160376368380744E+00 
    1.3171684879893592E+01 
    9.2463847336101512E+00 
    8.7303320409378848E+00 
    1.2894842851819231E+01 
    9.4402190233168088E+00 
    1.3662319013882492E+01 
    1.1175233433429680E+01 
    1.2028703428433762E+01 
    1.3626035656139996E+01 
    6.7992710253854192E+00 
    9.6512699102920596E+00 
    1.2897752245032976E+01 
    2.7144080648756765E+00 
    9.3042143442803926E+00 
    1.3594846829707340E+01 
    8.7590150972834913E+00 
    1.0123443526473974E+01 
    5.9076213741205903E+00 
    1.2650994256071675E+01 
    1.5714733506868624E+01 
    1.1597823183346247E+01 
    8.7559934245653199E+00 
    7.8181776867642485E+00 
    1.0013685441956207E+01 
    9.2648570487790440E+00 
    6.4073872911194387E+00 
    1.3622041318119127E+01 
    1.2988753336776091E+01 
    1.2653759334363828E+01 
    9.8882615107717644E+00 
    7.9642735620567384E+00 
    9.0952815770293238E+00 
    1.3348844549533101E+01 
    8.1968623543091912E+00 
    9.1890264809895186E+00 
    8.3488670791240907E+00 
    1.0663766596072787E+01 
    1.5703220582969932E+01 
    1.2645994229467307E+01 
    7.9206706343206914E+00 
    1.3072975353071827E+01 
    1.2997384580531703E+01 
    1.3072025635763222E+01 
    1.4018077915552800E+01 
    1.4536764610523432E+01 
    1.3229341193115536E+01 
    9.3998081654323205E+00 
    1.0005323984129300E+01 
    1.3069576141229977E+01 
    1.3443666620952824E+01 
    6.6906604631583146E+00 
    1.2671854232948235E+01 
    1.3313673497628754E+01 
    6.5131352516576548E+00 
    1.3935692316027422E+01 
    1.3923386949599806E+01 
    1.2417576407634352E+01 
    9.7106498880212797E+00 
    2.3795335298549682E+00 
    1.3595193011332979E+01 
    9.5763583290188095E+00 
    1.3709645495861331E+01 
    8.6951543976340364E+00 
    1.3440743268983290E+01 
    8.4602558499113911E-01 
    1.2046300263941941E+01 
    8.8980906128357322E+00 
    7.9274702284373086E+00 
    7.7225631896117166E+00 
    9.2160308838874769E+00 
    1.0333398182581412E+01 
    9.5488303148086224E+00 
    6.3635623176694933E+00 
    1.3439600140556854E+01 
    1.2920996926971370E+01 
    1.0906725922455122E+01 
    9.6257893927389393E+00 
    1.3884212395301259E+00 
    7.1176760896495086E+00 
    4.9089623337141584E+00 
    1.3617402500624618E+01 
    1.0472089884285321E+01 
    1.2974513049258690E+01 
    1.2982111007719107E+01 
    8.2697967492201698E+00 
    1.0942769313500328E+01 
    1.2649643120012541E+01 
    1.3906140701909628E+01 
    5.8876065679773228E+00 
    1.1412667522349546E+01 
    9.5830972869368285E+00 
    5.2367076687757379E+00 
    8.2624711096353796E+00 
    1.1414752259009928E+01 
    1.2946956392873249E+01 
    9.2743422893534646E+00 
    1.3050653041895465E+01 
    1.2831158478983161E+01 
    1.2784398550455718E+01 
    9.1021215548620553E+00 
    7.8747677678539976E+00 
    1.2661158547746867E+01 
    7.9862860265463924E+00 
    9.3744349544957792E+00 
    7.8265592978112872E+00 
    9.1359669362339098E+00 
    1.2990003095395528E+01 
    5.7920058248142174E+00 
    8.1785747459368423E+00 
    1.3535220215510497E+01 
    9.1160695923235515E+00 
    1.0362937320033613E+01 
    5.9437946587052597E+00 
    8.0455032904001573E+00 
    1.2810765253430541E+01 
    1.3102893505538479E+01 
    4.8378437440648501E+00 
    9.1185135094207599E+00 
    7.8634370178243431E+00 
    1.4310650846600344E+01 
    1.3796764317251105E+01 
    1.4562175042128567E+01 
    9.1387950489758936E+00 
    1.2965865075920842E+01 
    1.2610894624645290E+01 
    9.0179668235716424E+00 
    1.2654033155949573E+01 
    9.6263170830242544E+00 
    5.3039848503505951E+00 
    9.3382301765081035E+00 
    1.3523367282290337E+01 
    1.2651103563673477E+01 
    6.3065314584948071E+00 
    1.2678222633936581E+01 
    1.0323295637559598E+01 
    9.2860900915883668E+00 
    8.8340428138590656E+00 
    1.2529850894246907E+01 
    9.8404297484432135E+00 
    1.2665995206884514E+01 
    8.9868135729602816E+00 
    5.4991356351637215E+00 
    9.4420066423190026E+00 
    7.7314150443772727E+00 
    1.1598619186595192E+01 
    1.3707699727534543E+01 
    1.2659919492290573E+01 
    1.3588602973885239E+01 
    9.0669831950122912E+00 
    6.1390515882422738E+00 
    6.2274497406235705E+00 
    9.4824375007589357E+00 
    9.3497619325869863E+00 
    1.3147212801576216E+00 
    1.2211273579557853E+01 
    1.4042597301203958E+01 
    8.7062287120776851E+00 
    5.5295728387541265E+00 
    1.0621790490363098E+01 
    1.2676922428812942E+01 
    6.5739765259284981E+00 
    4.4456505843412248E+00 
    9.3208053618390689E+00 
    1.2766550178366554E+01 
    1.3349991693589942E+01 
    1.3246093950346568E+01 
    1.3106932047675189E+01 
    6.4092138764375779E+00 
    9.2784019581282156E+00 
    1.2223761789265227E+01 
    7.3101764990146805E+00 
    1.2925685116700349E+01 
    1.1151092776937519E+01 
    6.3243143593307209E+00 
    1.2777378000140578E+01 
    1.3615493288384052E+01 
    1.2775383185774400E+01 
    6.3281448313909952E+00 
    9.4042367565968927E+00 
    6.9610486865226200E+00 
    8.8668497969208264E+00 
    1.2669061073163306E+01 
    1.2658225746212645E+01 
    6.3653466566385726E+00 
    1.3477889482456677E+01 
    9.9181230971873475E+00 
    1.2694536128560085E+01 
    1.3448622123608693E+01 
    1.2679348922069675E+01 
    1.1821908653528087E+01 
    1.4361170298151528E+01 
    8.6699566037855114E+00 
    1.3560245222978999E+01 
    1.2722536712309713E+01 
    1.3627910082444092E+01 
    1.3471646312686802E+01 
    8.7631719266077948E+00 
    9.2040712496422667E+00 
    8.6969640508621477E+00 
    1.1374898482445163E+01 
    3.6297611920156099E+00 
    9.4056852499985624E+00 
    1.4483529174141633E+01 
    9.6288683089968785E+00 
    9.8031846604713557E+00 
    1.3602502826475876E+01 
    1.3822408515442200E+01 
    8.6209970398841556E+00 
    1.2682188653125980E+01 
    1.2654831431530555E+01 
    9.7917071012839152E+00 
    1.3429754120033005E+01 
    6.6448595418142125E+00 
    4.2061894573007477E+00 
    1.0053247590591598E+01 
    9.6423166922135390E+00 
    1.2660336208897847E+01 
    5.9470541330676090E+00 
    1.3167947105562257E+01 
    4.2820857565606705E+00 
    9.5791680951166374E+00 
    8.8147402330319355E+00 
    9.3797399884749897E+00 
    1.5754110514442667E+01 
    3.5282276450282901E+00 
    9.3219332734097407E+00 
    1.1083729907602804E+01 
    8.9740577618069235E+00 
    7.0092103596911688E+00 
    1.3276184012684729E+01 
    1.5320308525925100E+01 
    1.3411857214791089E+01 
    9.2641515806878303E+00 
    5.2098666470281429E+00 
    1.5178467948111825E+01 
    1.2909784181552265E+01 
    6.7178507239399865E+00 
    8.8916697980045019E+00 
    1.4002919902084503E+01 
    2.9996977586825455E+00 
    9.6891890798931026E+00 
    1.3378960805041126E+01 
    9.3934328971155026E+00 
    8.1695897405482025E+00 
    9.3618999693768785E+00 
    1.2426100815905961E+01 
    9.3723590650098512E+00 
    4.6396559061003773E+00 
    8.1640267714807235E-01 
    6.9631286870818965E+00 
    1.4208178096849961E+01 
    8.6963660478205664E+00 
    1.0651456067517266E+01 
    1.0167419124700158E+01 
    1.1653570937010185E+01 
    9.4070992789253296E+00 
    1.2824602708915961E+01 
    1.5768184953427468E+01 
    1.1079055429059048E+01 
    1.3534731363176382E+01 
    4.9321668467509089E-01 
    1.2660066504470864E+01 
    5.1344666986358334E+00 
    1.4647473963230983E+01 
    9.3355582540613735E+00 
    8.2866567122909949E+00 
    7.1017666270211857E+00 
    4.8683507785337170E+00 
    1.0477988604363215E+01 
    7.3779861360938321E+00 
    1.1501292617037890E+01 
    1.9878165720165455E+00 
    1.0351945670073846E+01 
    1.2598839625536852E+01 
    5.6469661013656856E+00 
    1.3112568587014550E+01 
    1.4457645376262450E+01 
    1.2971323200709101E+01 
    9.2052820817484662E+00 
    9.3740321533452704E+00 
    9.3282094228996471E+00 
    5.2808767606097851E+00 
    8.4498125209442758E+00 
    8.3051777023046274E+00 
    9.3173431153640198E+00 
    8.6336767708900624E+00 
    6.2223568226484927E-01 
    5.8929544595438630E+00 
    8.9995050649904407E+00 
    9.2930855567254316E+00 
    1.1816153187198696E+01 
    1.9751509767333137E+00 
    9.7543062823644586E+00 
    9.6470728023118895E+00 
    3.3920734374299020E+00 
    1.2852388694322457E+01 
    8.0049611537735608E+00 
    9.5098004842003192E+00 
    1.2905609607194910E+01 
    4.8888102678485641E+00 
    1.2958589765675713E+01 
    8.1118156142028575E+00 
    9.0791039339379465E-01 
    8.7542980531998786E+00 
    1.3489737064724185E+01 
    1.2660081964050709E+01 
    1.2678346486195926E+01 
    9.6967931735709367E+00 
    9.5831138035826342E+00 
    7.9858603427583885E+00 
    6.3985328594089594E+00 
    1.3007123561880132E+01 
    8.8900734439900031E+00 
    6.2466165138729988E+00 
    1.2673394708891365E+01 
    1.3311094566077642E+01 
    9.5111687754583869E+00 
    9.1615213630833328E+00 
    1.5650087741808241E+01 
    9.7924866439392133E+00 
    1.3025727380168222E+01 
    7.5803958801933913E+00 
    1.5796714686030713E+01 
    6.1909233972944229E+00 
    8.3802137796892904E+00 
    6.9452113060674554E+00 
    1.0005045093711702E+01 
    7.9559672529005896E+00 
    1.5780401747346140E+01 
    9.8367684738601309E+00 
    1.2369154182478693E+01 
    6.3697524206610430E+00 
    9.4048059305562539E+00 
    1.2878639342030519E+01 
    7.9844766790803092E+00 
    6.6530492649705364E+00 
    1.0304836216473657E+01 
    1.3098283974036415E+01 
    6.8384630626729814E+00 
    8.8334830699568911E+00 
    9.1876456550846495E+00 
    1.2637445071639302E+01 
    9.0007134386710330E+00 
    1.3070448598044115E+01 
    1.3655243791029315E+01 
    8.0106750872342545E+00 
    7.8466127074198289E+00 
    7.4207541468932785E+00 
    1.2767657066075103E+01 
    9.6556740254020035E+00 
    1.5359117710509183E+01 
    1.2032472031453667E+01 
    1.2839802668848929E+01 
    1.5055346789343266E+01 
    1.4465423874780507E+01 
    9.4530453042988238E+00 
    9.3026143163198025E+00 
    1.2447405047360046E+01 
    1.2694824903731215E+01 
    1.3169289814401166E+01 
    1.2928507548193203E+01 
    1.5669468580123146E+01 
    9.7920627987445741E+00 
    8.1051824529335299E+00 
    9.7766970200610732E+00 
    1.3573768631305420E+01 
    9.5506517556922894E+00 
    5.5092407632650779E+00 
    9.1897541488246492E+00 
    1.3970285673789451E+01 
    9.6804784284855572E+00 
    8.1147612933463211E+00 
    9.1293063560923855E+00 
    1.4076423470339822E+01 
    1.2695798156714519E+01 
    7.6896639188661187E+00 
    1.4207421246242850E+01 
    9.4835437439176307E+00 
    1.3167569347389149E+01 
    1.4089147301102560E+01 
    9.8842674879681756E+00 
    4.8917395287064922E+00 
    1.0275866447036849E+01 
    5.0626119691111198E+00 
    9.5986994132528451E+00 
    9.3921374048694499E+00 
    1.0815103587290944E+01 
    5.3543387151429425E+00 
    1.1479659947789951E+01 
    9.4173254181571195E+00 
    1.2919557464669278E+01 
    9.8531066956115847E+00 
    7.4985371108573142E+00 
    9.0127787962334729E+00 
    9.8786908797863582E+00 
    9.8891301055971805E+00 
    1.3696627740214236E+01 
    7.7354623365407136E+00 
    7.6003971247858733E+00 
    5.6351514093445765E+00 
    1.3192679355578562E+01 
    9.0506909063585219E+00 
    1.2504024435133877E+01 
    9.3627060779339821E+00 
    6.1728192633707621E+00 
    1.2721762030231844E+01 
    9.3340069032039708E+00 
    6.7440562280609067E+00 
    7.1555654882611019E+00 
    7.4155362077149158E+00 
    1.2947298522111859E+01 
    9.3192845212427446E+00 
    1.3545133643990876E+01 
    9.2867433026340152E+00 
    9.2217005909138017E+00 
    8.7540996516756646E+00 
    1.2798286980547836E+01 
    9.1397032949247823E+00 
    7.4542889919146331E+00 
    1.4453349623825767E+01 
    1.2872675474035885E+01 
    6.4899219416544724E+00 
    2.4914710430707561E+00 
    9.3087884026710270E+00 
    8.7610848815459228E+00 
    7.8400494973174562E+00 
    8.5668732290880225E+00 
    1.2847158580715067E+01 
    9.0273262032320005E+00 
    8.1588724497296745E+00 
    1.2714900486457990E+01 
    6.4309159616564777E+00 
    1.2410479625750733E+01 
    8.4708579796679775E+00 
    7.3848954645038214E+00 
    7.9172525629747703E+00 
    1.3247459311280720E+01 
    9.3830592782026265E+00 
    9.3917160692227899E+00 
    5.4357408098798148E+00 
    5.8846684680545263E+00 
    1.1788537037645488E+01 
    9.4021155553250377E+00 
    9.3492816882039307E+00 
    1.4192884559601289E+01 
    7.6030383748756902E+00 
    9.4149246684534624E+00 
    6.6520597424895502E+00 
    6.8627860193654815E+00 
    1.2791033576944177E+01 
    9.0331575735791745E+00 
    6.5001680890119804E+00 
    9.8929149417238147E+00 
    9.2675816124492716E+00 
    1.2794226793788658E+01 
    1.4282623061730051E+01 
    9.5702621168614244E-01 
    9.3135695944130976E+00 
    9.6407965148347525E+00 
    1.2854330140454456E+01 
    8.8247420120343971E+00 
    9.3545282688452112E+00 
    1.3745090187543530E+01 
    7.9507687881243667E+00 
    6.5591332725294205E+00 
    1.1354589586894807E+01 
    1.2672739081809063E+01 
    1.3627047591780816E+01 
    1.3884256958690735E+01 
    9.1600442207327788E+00 
    9.3055150785828769E+00 
    1.0542829558719937E+01 
    6.1626993893285018E+00 
    1.2790235502455621E+01 
    7.0771904342864875E+00 
    6.4215302391165148E+00 
    1.1745056798386148E+01 
    1.1048785430691836E+01 
    6.2961588943907794E+00 
    1.2705821904831829E+01 
    1.3613600410110889E+01 
    9.8066361606033396E+00 
    1.4380574595394929E+01 
    1.2735812698064287E+01 
    8.8965379796865900E+00 
    1.3367242834082507E+01 
    6.8674254386886666E+00 
    1.2689699531038459E+01 
    9.3126367155065779E+00 
    9.2739661425107691E+00 
    1.4355938528670327E+01 
    9.0815373482894604E+00 
    1.1476247426459636E+01 
    7.9026104646636375E+00 
    1.3725179585820879E+01 
    1.2604273450271917E+01 
    8.2525238234075289E+00 
    1.2650563616895534E+01 
    8.4792904920864896E+00 
    9.3669853266798597E+00 
    1.3575648564912356E+01 
    1.2922179637124872E+01 
    1.3616687404072120E+01 
    1.2857227215100588E+01 
    8.4554022283220061E+00 
    8.6656494583833794E+00 
    1.3623022475796907E+01 
    8.7843974260309725E+00 
    1.2543018020055211E+01 
    9.0729392640914170E+00 
    3.6605032429483959E+00 
    6.4910822976452707E+00 
    6.0049815289513102E+00 
    1.3578892978327136E+01 
    1.4288378619448626E+01 
    1.2667463262010202E+01 
    1.0876208670736590E+01 
    1.2931352653978513E+01 
    1.2712537780850944E+01 
    1.3253366940527984E+01 
    5.2467120136876284E+00 
    3.4129144260803206E+00 
    1.0681491099574233E+01 
    8.9791027907633882E+00 
    1.2848560159777515E+01 
    1.2846234602634343E+01 
    9.6588355524681280E+00 
    1.2880514895954965E+01 
    9.3000255144091923E+00 
    9.2138612334060852E+00 
    4.7329229883421444E+00 
    3.3993935592076205E+00 
    1.4073650718711711E+01 
    7.2924033132886432E+00 
    8.1969201171940043E+00 
    9.5594127512655547E+00 
    1.5651313532082773E+01 
    9.6497002113202033E+00 
    9.6086788707085979E+00 
    3.8676654208513330E+00 
    9.6504325890487674E+00 
    9.6633481576812486E+00 
    1.3141194264743586E+01 
    7.9214972412513269E+00 
    8.9494380231116608E+00 
    1.4234943366188933E+01 
    9.3217301513353092E+00 
    1.2682227146135091E+01 
    1.2919978737958207E+01 
    1.1586272793078201E+01 
    7.9219488083419645E+00 
    1.2856610408481396E+01 
    9.1180435402740887E+00 
    1.2865355881193732E+01 
    1.2624903616267495E+01 
    1.3596906452474293E+01 
    1.2855724651650148E+01 
    1.2087980857260236E+01 
    9.3108072783473208E+00 
    6.2474088316570109E+00 
    1.5526098696078478E+01 
    7.2232183284051388E+00 
    1.3532296838457160E+01 
    9.3082541428320749E+00 
    7.6413437883491540E+00 
    4.5758449420332594E+00 
    9.6960612248304940E+00 
    1.2844650134143189E+01 
    1.2840644700660578E+01 
    9.3459649463940604E+00 
    9.3025072775434001E+00 
    1.4435103830187536E+01 
    1.3829711242897547E+01 
    9.6668974242471748E+00 
    3.1760929547934982E+00 
    1.2056434681581404E+01 
    1.5778326013626625E+01 
    9.3140871536523608E+00 
    1.1223401853919947E+01 
    8.8214909393520848E+00 
    1.5385760576764234E+01 
    1.3904871416621322E+01 
    1.3650731131352153E+01 
    9.6870136619891820E+00 
    4.2643572824800255E+00 
    8.7805787198341729E+00 
    8.8467943543756640E+00 
    8.8906616273225474E+00 
    3.4559736420593303E+00 