# vtk DataFile Version 2.0
Pressure Field Data 
ASCII 
DATASET UNSTRUCTURED_GRID 

POINTS 2860 double 

    0.0000000000000000E+00     0.0000000000000000E+00     0.0000000000000000E+00 
    1.0000000000000000E+00     0.0000000000000000E+00     0.0000000000000000E+00 
    1.0000000000000000E+00     1.0000000000000000E+00     0.0000000000000000E+00 
    0.0000000000000000E+00     1.0000000000000000E+00     0.0000000000000000E+00 
    2.5000000000000000E-01     2.5000000000000000E-01     0.0000000000000000E+00 
    7.5000000000000000E-01     2.5000000000000000E-01     0.0000000000000000E+00 
    7.5000000000000000E-01     7.5000000000000000E-01     0.0000000000000000E+00 
    2.5000000000000000E-01     7.5000000000000000E-01     0.0000000000000000E+00 
    3.1249999999942091E-02     0.0000000000000000E+00     0.0000000000000000E+00 
    6.2499999999873469E-02     0.0000000000000000E+00     0.0000000000000000E+00 
    9.3749999999826514E-02     0.0000000000000000E+00     0.0000000000000000E+00 
    1.2499999999977961E-01     0.0000000000000000E+00     0.0000000000000000E+00 
    1.5624999999968961E-01     0.0000000000000000E+00     0.0000000000000000E+00 
    1.8749999999959971E-01     0.0000000000000000E+00     0.0000000000000000E+00 
    2.1874999999950970E-01     0.0000000000000000E+00     0.0000000000000000E+00 
    2.4999999999941969E-01     0.0000000000000000E+00     0.0000000000000000E+00 
    2.8124999999932920E-01     0.0000000000000000E+00     0.0000000000000000E+00 
    3.1249999999923850E-01     0.0000000000000000E+00     0.0000000000000000E+00 
    3.4374999999914790E-01     0.0000000000000000E+00     0.0000000000000000E+00 
    3.7499999999905720E-01     0.0000000000000000E+00     0.0000000000000000E+00 
    4.0624999999896660E-01     0.0000000000000000E+00     0.0000000000000000E+00 
    4.3749999999887590E-01     0.0000000000000000E+00     0.0000000000000000E+00 
    4.6874999999878530E-01     0.0000000000000000E+00     0.0000000000000000E+00 
    4.9999999999869471E-01     0.0000000000000000E+00     0.0000000000000000E+00 
    5.3124999999877620E-01     0.0000000000000000E+00     0.0000000000000000E+00 
    5.6249999999885780E-01     0.0000000000000000E+00     0.0000000000000000E+00 
    5.9374999999893940E-01     0.0000000000000000E+00     0.0000000000000000E+00 
    6.2499999999902101E-01     0.0000000000000000E+00     0.0000000000000000E+00 
    6.5624999999910261E-01     0.0000000000000000E+00     0.0000000000000000E+00 
    6.8749999999918421E-01     0.0000000000000000E+00     0.0000000000000000E+00 
    7.1874999999926570E-01     0.0000000000000000E+00     0.0000000000000000E+00 
    7.4999999999934730E-01     0.0000000000000000E+00     0.0000000000000000E+00 
    7.8124999999942890E-01     0.0000000000000000E+00     0.0000000000000000E+00 
    8.1249999999951039E-01     0.0000000000000000E+00     0.0000000000000000E+00 
    8.4374999999959199E-01     0.0000000000000000E+00     0.0000000000000000E+00 
    8.7499999999967359E-01     0.0000000000000000E+00     0.0000000000000000E+00 
    9.0624999999975520E-01     0.0000000000000000E+00     0.0000000000000000E+00 
    9.3749999999983680E-01     0.0000000000000000E+00     0.0000000000000000E+00 
    9.6874999999991840E-01     0.0000000000000000E+00     0.0000000000000000E+00 
    1.0000000000000000E+00     3.1249999999942091E-02     0.0000000000000000E+00 
    1.0000000000000000E+00     6.2499999999873469E-02     0.0000000000000000E+00 
    1.0000000000000000E+00     9.3749999999826514E-02     0.0000000000000000E+00 
    1.0000000000000000E+00     1.2499999999977961E-01     0.0000000000000000E+00 
    1.0000000000000000E+00     1.5624999999968961E-01     0.0000000000000000E+00 
    1.0000000000000000E+00     1.8749999999959971E-01     0.0000000000000000E+00 
    1.0000000000000000E+00     2.1874999999950970E-01     0.0000000000000000E+00 
    1.0000000000000000E+00     2.4999999999941969E-01     0.0000000000000000E+00 
    1.0000000000000000E+00     2.8124999999932920E-01     0.0000000000000000E+00 
    1.0000000000000000E+00     3.1249999999923850E-01     0.0000000000000000E+00 
    1.0000000000000000E+00     3.4374999999914790E-01     0.0000000000000000E+00 
    1.0000000000000000E+00     3.7499999999905720E-01     0.0000000000000000E+00 
    1.0000000000000000E+00     4.0624999999896660E-01     0.0000000000000000E+00 
    1.0000000000000000E+00     4.3749999999887590E-01     0.0000000000000000E+00 
    1.0000000000000000E+00     4.6874999999878530E-01     0.0000000000000000E+00 
    1.0000000000000000E+00     4.9999999999869471E-01     0.0000000000000000E+00 
    1.0000000000000000E+00     5.3124999999877620E-01     0.0000000000000000E+00 
    1.0000000000000000E+00     5.6249999999885780E-01     0.0000000000000000E+00 
    1.0000000000000000E+00     5.9374999999893940E-01     0.0000000000000000E+00 
    1.0000000000000000E+00     6.2499999999902101E-01     0.0000000000000000E+00 
    1.0000000000000000E+00     6.5624999999910261E-01     0.0000000000000000E+00 
    1.0000000000000000E+00     6.8749999999918421E-01     0.0000000000000000E+00 
    1.0000000000000000E+00     7.1874999999926570E-01     0.0000000000000000E+00 
    1.0000000000000000E+00     7.4999999999934730E-01     0.0000000000000000E+00 
    1.0000000000000000E+00     7.8124999999942890E-01     0.0000000000000000E+00 
    1.0000000000000000E+00     8.1249999999951039E-01     0.0000000000000000E+00 
    1.0000000000000000E+00     8.4374999999959199E-01     0.0000000000000000E+00 
    1.0000000000000000E+00     8.7499999999967359E-01     0.0000000000000000E+00 
    1.0000000000000000E+00     9.0624999999975520E-01     0.0000000000000000E+00 
    1.0000000000000000E+00     9.3749999999983680E-01     0.0000000000000000E+00 
    1.0000000000000000E+00     9.6874999999991840E-01     0.0000000000000000E+00 
    9.6875000000003686E-01     1.0000000000000000E+00     0.0000000000000000E+00 
    9.3750000000011691E-01     1.0000000000000000E+00     0.0000000000000000E+00 
    9.0625000000015765E-01     1.0000000000000000E+00     0.0000000000000000E+00 
    8.7500000000017863E-01     1.0000000000000000E+00     0.0000000000000000E+00 
    8.4375000000028044E-01     1.0000000000000000E+00     0.0000000000000000E+00 
    8.1250000000040856E-01     1.0000000000000000E+00     0.0000000000000000E+00 
    7.8125000000054956E-01     1.0000000000000000E+00     0.0000000000000000E+00 
    7.5000000000066480E-01     1.0000000000000000E+00     0.0000000000000000E+00 
    7.1875000000086831E-01     1.0000000000000000E+00     0.0000000000000000E+00 
    6.8750000000102829E-01     1.0000000000000000E+00     0.0000000000000000E+00 
    6.5625000000114431E-01     1.0000000000000000E+00     0.0000000000000000E+00 
    6.2500000000129829E-01     1.0000000000000000E+00     0.0000000000000000E+00 
    5.9375000000147926E-01     1.0000000000000000E+00     0.0000000000000000E+00 
    5.6250000000168354E-01     1.0000000000000000E+00     0.0000000000000000E+00 
    5.3125000000188671E-01     1.0000000000000000E+00     0.0000000000000000E+00 
    5.0000000000205835E-01     1.0000000000000000E+00     0.0000000000000000E+00 
    4.6875000000192979E-01     1.0000000000000000E+00     0.0000000000000000E+00 
    4.3750000000180111E-01     1.0000000000000000E+00     0.0000000000000000E+00 
    4.0625000000167238E-01     1.0000000000000000E+00     0.0000000000000000E+00 
    3.7500000000154382E-01     1.0000000000000000E+00     0.0000000000000000E+00 
    3.4375000000141509E-01     1.0000000000000000E+00     0.0000000000000000E+00 
    3.1250000000128642E-01     1.0000000000000000E+00     0.0000000000000000E+00 
    2.8125000000115769E-01     1.0000000000000000E+00     0.0000000000000000E+00 
    2.5000000000102918E-01     1.0000000000000000E+00     0.0000000000000000E+00 
    2.1875000000090050E-01     1.0000000000000000E+00     0.0000000000000000E+00 
    1.8750000000077180E-01     1.0000000000000000E+00     0.0000000000000000E+00 
    1.5625000000064329E-01     1.0000000000000000E+00     0.0000000000000000E+00 
    1.2500000000051459E-01     1.0000000000000000E+00     0.0000000000000000E+00 
    9.3750000000385914E-02     1.0000000000000000E+00     0.0000000000000000E+00 
    6.2500000000257239E-02     1.0000000000000000E+00     0.0000000000000000E+00 
    3.1250000000128557E-02     1.0000000000000000E+00     0.0000000000000000E+00 
    0.0000000000000000E+00     9.6875000000003686E-01     0.0000000000000000E+00 
    0.0000000000000000E+00     9.3750000000011691E-01     0.0000000000000000E+00 
    0.0000000000000000E+00     9.0625000000015765E-01     0.0000000000000000E+00 
    0.0000000000000000E+00     8.7500000000017863E-01     0.0000000000000000E+00 
    0.0000000000000000E+00     8.4375000000028044E-01     0.0000000000000000E+00 
    0.0000000000000000E+00     8.1250000000040856E-01     0.0000000000000000E+00 
    0.0000000000000000E+00     7.8125000000054956E-01     0.0000000000000000E+00 
    0.0000000000000000E+00     7.5000000000066480E-01     0.0000000000000000E+00 
    0.0000000000000000E+00     7.1875000000086831E-01     0.0000000000000000E+00 
    0.0000000000000000E+00     6.8750000000102829E-01     0.0000000000000000E+00 
    0.0000000000000000E+00     6.5625000000114431E-01     0.0000000000000000E+00 
    0.0000000000000000E+00     6.2500000000129829E-01     0.0000000000000000E+00 
    0.0000000000000000E+00     5.9375000000147926E-01     0.0000000000000000E+00 
    0.0000000000000000E+00     5.6250000000168354E-01     0.0000000000000000E+00 
    0.0000000000000000E+00     5.3125000000188671E-01     0.0000000000000000E+00 
    0.0000000000000000E+00     5.0000000000205835E-01     0.0000000000000000E+00 
    0.0000000000000000E+00     4.6875000000192979E-01     0.0000000000000000E+00 
    0.0000000000000000E+00     4.3750000000180111E-01     0.0000000000000000E+00 
    0.0000000000000000E+00     4.0625000000167238E-01     0.0000000000000000E+00 
[...]
CELL_DATA 2795 
SCALARS Pressure double 1 
LOOKUP_TABLE default 

    8.2157069847794855E+00 
    1.8539407609512757E+01 
    1.2932071298910468E+01 
    1.2621212717014973E+01 
    1.0077786179025757E+01 
    1.8351039406799778E+01 
    1.9257708264291725E+01 
    7.3413847674180346E+00 
    1.3487471267178289E+01 
    1.0437517191578477E+01 
    8.9217343450486108E+00 
    1.8023963392369630E+01 
    1.8437093123186518E+01 
    1.8311106251778817E+01 
    1.1952243484664725E+01 
    7.2179673839495795E+00 
    1.1635390839961207E+01 
    9.4920898077562192E+00 
    1.7530046596658213E+01 
    1.2911809017469373E+01 
    1.2806210558027471E+01 
    1.8224968106071231E+01 
    1.2287884180597752E+01 
    4.8735712123888736E-01 
    1.7956048750320562E+01 
    1.8389189112511811E+01 
    1.9295483295537220E+01 
    8.5973475682556089E+00 
    1.7918899527676494E+01 
    1.9284284621600563E+01 
    1.3132753437426258E+01 
    1.3118015976511801E+01 
    9.2919457676632913E+00 
    1.2894714692493816E+01 
    4.2605421260312770E+00 
    1.1639756314228343E+01 
    1.2879352472086325E+01 
    1.9330830748026809E+01 
    1.9229637986310298E+01 
    1.8040036358735389E+01 
    1.0003622417478283E+01 
    1.8022079912320859E+01 
    1.0107030774308665E+00 
    1.2905956172408114E+01 
    1.9024069423118512E+01 
    1.8718163473091931E+01 
    1.8010467122712768E+01 
    1.3895785458918901E+01 
    1.8054342008474435E+01 
    1.1906033483844197E+01 
    1.1345125735102664E+01 
    1.3081156127721023E+01 
    1.2791882560120236E+01 
    1.1713234149559279E+01 
    1.3212891025464023E+01 
    1.7238926287356605E+01 
    1.5091453373162054E+01 
    1.0130851827987460E+01 
    1.8234350727201186E+01 
    1.8128764768969187E+01 
    1.2582040177540204E+01 
    1.2452568601817187E+01 
    1.2501348005849122E+01 
    1.9166604951500599E+01 
    1.9484930730983475E+01 
    1.1654249909457011E+01 
    1.3079458850306827E+01 
    1.7697960284671144E+01 
    1.4909543342769634E+01 
    1.2518585375312123E+01 
    1.9481999604323686E+01 
    1.8184873281025524E+01 
    1.1489615558712410E+01 
    1.8848650938687179E+01 
    1.3487493739059644E+01 
    1.7799354875500661E+01 
    1.9345720104505450E+01 
    1.3571205445014662E+01 
    8.3179404744292462E+00 
    1.3098433483730421E+01 
    1.9240715588604417E+01 
    1.9514668824582781E+01 
    1.1668913724985545E+01 
    1.3023640078738918E+01 
    1.9572021125191345E+01 
    1.2877420186368100E+01 
    1.2396416480646426E+01 
    1.5472544486843617E+01 
    7.9856678067531588E+00 
    1.1376491198899233E+01 
    1.3020532586110646E+01 
    1.3645564069531694E+01 
    2.1230342931799463E+01 
    9.7977520761446169E+00 
    1.3087647117858976E+01 
    1.7982719260343348E+01 
    1.8369653494183620E+01 
    8.6381768078700514E+00 
    1.2731727719748246E+01 
    1.3055026565329431E+01 
    1.8400374529757109E+01 
    1.3044469058768760E+01 
    1.8298743316145018E+01 
    5.2482047910110863E+00 
    8.6645613912786370E+00 
    1.3315242078519249E+01 
    1.8548058055480009E+01 
    1.1597170333331418E+01 
    1.2303993374673539E+01 
    1.3020446286131833E+01 
    1.2353844746242446E+01 
    1.4669431062928338E+01 
    1.1981914311240750E+01 
    1.1498601340628177E+01 
    9.0250778943304812E+00 
    1.5549590509438522E+01 
    1.3123073576199063E+01 
    1.9061281907111667E+01 
    1.1309258712101478E+01 
    1.2596570405904247E+01 
    1.8182679756961473E+01 
    1.0565933652032481E+01 
    1.8738186446079670E+01 
    1.2951332086124077E+01 
    1.2512462826828601E+01 
    1.8374983760736331E+01 
    1.3111325929371597E+01 
    1.9361920853203372E+01 
    1.5519002221523587E+01 
    1.6994288807380745E+01 
    1.9315526483188211E+01 
    9.8160558470560737E+00 
    1.3336139701919580E+01 
    1.8373786350191857E+01 
    3.9181161966752756E+00 
    1.3187808012401177E+01 
    1.9274919225079390E+01 
    1.2545479602897144E+01 
    1.4428973276440479E+01 
    8.5261092137209111E+00 
    1.7979404003045143E+01 
    2.1765470436855043E+01 
    1.6178231561744379E+01 
    1.2547225486767701E+01 
    1.1245607118768991E+01 
    1.3963173576900056E+01 
    1.2968664959210054E+01 
    9.0261929018574580E+00 
    1.9311418107393017E+01 
    1.8372270130275613E+01 
    1.7984902490811237E+01 
    1.3644666058103256E+01 
    1.1457379305284428E+01 
    1.2801867498333419E+01 
    1.8891621166884747E+01 
    1.1776198247465784E+01 
    1.3104246895298150E+01 
    1.1985214734337406E+01 
    1.5235813803283285E+01 
    2.1752622784006004E+01 
    1.7973353983471739E+01 
    1.1416597417834033E+01 
    1.8619681445898077E+01 
    1.8498941194794050E+01 
    1.8595986584598151E+01 
    1.9804445138775520E+01 
    2.0426655451099542E+01 
    1.8698487982985466E+01 
    1.3070804186734206E+01 
    1.4191602723565284E+01 
    1.8495037018623634E+01 
    1.9070426632960441E+01 
    9.4263831902311672E+00 
    1.8009107360630303E+01 
    1.8844231268212059E+01 
    9.1718898077174789E+00 
    1.9726448126015221E+01 
    1.9684690530232018E+01 
    1.7617402416322395E+01 
    1.3411439826151589E+01 
    3.4850250620665308E+00 
    1.9277005821597818E+01 
    1.3250560157364728E+01 
    1.9421210342170099E+01 
    1.2458734078776375E+01 
    1.9042077880033371E+01 
    1.2566638898383129E+00 
    1.6939226938199866E+01 
    1.2504679334978993E+01 
    1.1400210303805808E+01 
    1.1113001008173535E+01 
    1.2918278871338792E+01 
    1.4211792926319905E+01 
    1.3643041112433696E+01 
    9.1292035523066719E+00 
    1.9066769376913722E+01 
    1.8401355450605383E+01 
    1.5055162669472548E+01 
    1.3305624583530303E+01 
    1.9899514248150016E+00 
    1.0264125525741401E+01 
    7.1417117628984377E+00 
    1.9296288801650562E+01 
    1.4516272732323904E+01 
    1.8394983108071898E+01 
    1.8484186412650395E+01 
    1.1871840608573732E+01 
    1.5148577040455043E+01 
    1.7975368402452542E+01 
    1.9665147586280291E+01 
    8.5209717652139627E+00 
    1.6256170296419047E+01 
    1.3591994408686315E+01 
    7.5980419191697868E+00 
    1.1864821229138187E+01 
    1.5831083725363490E+01 
    1.8436283588070427E+01 
    1.2970429977668186E+01 
    1.8570361295832136E+01 
    1.8284526067201668E+01 
    1.8220561696075489E+01 
    1.2806003508295904E+01 
    1.1304425289473214E+01 
    1.7994624020974257E+01 
    1.1481805384635898E+01 
    1.3053544566088085E+01 
    1.1259522306858123E+01 
    1.3057483711259732E+01 
    1.8496114427643402E+01 
    8.1661778761958956E+00 
    1.1748570265603043E+01 
    1.9195948459268820E+01 
    1.2813861893709309E+01 
    1.4396916485372230E+01 
    8.3839277112293296E+00 
    1.1564025564896802E+01 
    1.8257291900428662E+01 
    1.8637758082570468E+01 
    6.8217565454986859E+00 
    1.2828083488104644E+01 
    1.1336247410962082E+01 
    2.0161134381955204E+01 
    1.9525397756438615E+01 
    2.0460810425301531E+01 
    1.2848562585696431E+01 
    1.8461866517628668E+01 
    1.7907296437609816E+01 
    1.2695862834222282E+01 
    1.7985131573348458E+01 
    1.3306085353283349E+01 
    7.6730168655678570E+00 
    1.3254504596965765E+01 
    1.9177282442390016E+01 
    1.7980876269382932E+01 
    8.8877925618137041E+00 
    1.8018739789864853E+01 
    1.4245447908085247E+01 
    1.3163280369228344E+01 
    1.2632395171269547E+01 
    1.7800389027905123E+01 
    1.3776210316346550E+01 
    1.8001452897604874E+01 
    1.2830716011971354E+01 
    7.8996219722559768E+00 
    1.3133117934445817E+01 
    1.1125740226161133E+01 
    1.6260170093850586E+01 
    1.9420162819779556E+01 
    1.7992158514724327E+01 
    1.9267468331332068E+01 
    1.2751066852842124E+01 
    8.6563219899327599E+00 
    8.7731479715936942E+00 
    1.3383677185133912E+01 
    1.3023954069367589E+01 
    1.9421380654670850E+00 
    1.7266462126883891E+01 
    1.9843543871034051E+01 
    1.2478042525966236E+01 
    8.0280419071577391E+00 
    1.5092699363284467E+01 
    1.8015218377305658E+01 
    9.4999615377751709E+00 
    6.4654881615703026E+00 
    1.3008694630477722E+01 
    1.8104947961371536E+01 
    1.8954206371447551E+01 
    1.8760190216278929E+01 
    1.8640366923260157E+01 
    9.2564276852538736E+00 
    1.3157826996738574E+01 
    1.7429803876581250E+01 
    1.0246743086372886E+01 
    1.8420183460275510E+01 
    1.5420699680310472E+01 
    8.8934508391976159E+00 
    1.8114096934139368E+01 
    1.9325713403507351E+01 
    1.8163530446198006E+01 
    9.1523294412044400E+00 
    1.3075355354043126E+01 
    1.0046541868563599E+01 
    1.2358875383986378E+01 
    1.8005784136182413E+01 
    1.7990799018551847E+01 
    9.2033737049584214E+00 
    1.9102207978079136E+01 
    1.3697961966311233E+01 
    1.8028182900914491E+01 
    1.9090752436049925E+01 
    1.8014402176395137E+01 
    1.6491715195313137E+01 
    2.0230527204420678E+01 
    1.2413933390064601E+01 
    1.9229548818741762E+01 
    1.8060540716428694E+01 
    1.9318729501150663E+01 
    1.9097047058175637E+01 
    1.2539260377656076E+01 
    1.2920481383717101E+01 
    1.2466798574072280E+01 
    1.5758484199378046E+01 
    5.2716596203862460E+00 
    1.3307212439391549E+01 
    2.0371240088558555E+01 
    1.3311781911367488E+01 
    1.3542877976970976E+01 
    1.9286236763965508E+01 
    1.9557715293872427E+01 
    1.2301847936628018E+01 
    1.8023951525868767E+01 
    1.7986307786042207E+01 
    1.3527261515490853E+01 
    1.9042758264207368E+01 
    9.3533430925983776E+00 
    5.9634772393832369E+00 
    1.3878993849247184E+01 
    1.3325847462938905E+01 
    1.7989072922124873E+01 
    8.6120631490938901E+00 
    1.8669213350721733E+01 
    6.0991470465372259E+00 
    1.3257374875421018E+01 
    1.2554747806618865E+01 
    1.3051355032471335E+01 
    2.1806513233195503E+01 
    5.1125781382113029E+00 
    1.3208378318862481E+01 
    1.5835791160179307E+01 
    1.2634422401725455E+01 
    1.0067631239805451E+01 
    1.8845991256492908E+01 
    2.1325994162654574E+01 
    1.9006951800539110E+01 
    1.3135061116988130E+01 
    7.5644251387778265E+00 
    2.1163632323692617E+01 
    1.8390398726114757E+01 
    9.5418274659018163E+00 
    1.2728620084862415E+01 
    1.9784500086990437E+01 
    4.3508088751543239E+00 
    1.3390146380450208E+01 
    1.9009583560068851E+01 
    1.3067510448986619E+01 
    1.1414039952795479E+01 
    1.3256068145643153E+01 
    1.7502133776652226E+01 
    1.3049314002438605E+01 
    6.7408128113949592E+00 
    1.2450127983281336E+00 
    9.8005800202729301E+00 
    2.0050856004656687E+01 
    1.2465922502872901E+01 
    1.4737166214465720E+01 
    1.4138396384665235E+01 
    1.6160338930631518E+01 
    1.3081480263628073E+01 
    1.8276254751097763E+01 
    2.1821770884660847E+01 
    1.5384003393921661E+01 
    1.9195589449280096E+01 
    7.2791650044438405E-01 
    1.7992953445805583E+01 
    7.4177888522128903E+00 
    2.0559856577645888E+01 
    1.3224706444216745E+01 
    1.1655088746427227E+01 
    1.0244271787174059E+01 
    7.0768934815364739E+00 
    1.4449121660374074E+01 
    1.0390424248100596E+01 
    1.6114776597328866E+01 
    2.9714635175668653E+00 
    1.4292357347003149E+01 
    1.7895135728900581E+01 
    7.9459336985251232E+00 
    1.8529826128247670E+01 
    2.0321985193567343E+01 
    1.8369617318595669E+01 
    1.3059496966256928E+01 
    1.3044865618007719E+01 
    1.3216021790053064E+01 
    7.6652190161178702E+00 
    1.2126185212210054E+01 
    1.1926405161388447E+01 
    1.3202809334757559E+01 
    1.2379235635495444E+01 
    9.3094437429848653E-01 
    8.4484621758144023E+00 
    1.2865673637157062E+01 
    1.3172104537181838E+01 
    1.6607530996603739E+01 
    2.8548938664919272E+00 
    1.3477178216207067E+01 
    1.3334609880454900E+01 
    4.9229726498078508E+00 
    1.8203231138073335E+01 
    1.1505620292915712E+01 
    1.3184597896376699E+01 
    1.8389172333869656E+01 
    7.1037752522652529E+00 
    1.8329800387610124E+01 
    1.1657444242101933E+01 
    1.2977795986646683E+00 
    1.2543673503913553E+01 
    1.9132065331704613E+01 
    1.7993557421898018E+01 
    1.8016581751021334E+01 
    1.3627119012467002E+01 
    1.3260369088505376E+01 
    1.1481273923693502E+01 
    9.1556045062044049E+00 
    1.8530771075232913E+01 
    1.2721915391186377E+01 
    8.8825674791251110E+00 
    1.8011109993822654E+01 
    1.8851353278593820E+01 
    1.3412655096443601E+01 
    1.2864496721095149E+01 
    2.1689999861830000E+01 
    1.3528468741910547E+01 
    1.8544930452503493E+01 
    1.0921874760693745E+01 
    2.1851030100559932E+01 
    8.7190024862099982E+00 
    1.1983445385411365E+01 
    9.7741137577041730E+00 
    1.3817788008473389E+01 
    1.1180265514098153E+01 
    2.1833634932583927E+01 
    1.3588490604965525E+01 
    1.7474544773758105E+01 
    8.9716391668436160E+00 
    1.3075744697866091E+01 
    1.8347573537233412E+01 
    1.1233874428587878E+01 
    9.5386864689742978E+00 
    1.4724184327282186E+01 
    1.8602509650750491E+01 
    9.6011157885548375E+00 
    1.2581583926935263E+01 
    1.2903780865655081E+01 
    1.7961565857559481E+01 
    1.2659936113567007E+01 
    1.8592639695032961E+01 
    1.9353460987077991E+01 
    1.1514025722160770E+01 
    1.1290124308498713E+01 
    1.0395597744803940E+01 
    1.8137917213462003E+01 
    1.3355310278824925E+01 
    2.1368734865395098E+01 
    1.6652278997382790E+01 
    1.8297258762926539E+01 
    2.1022481085006063E+01 
    2.0329491114606153E+01 
    1.3124314139338189E+01 
    1.3184329943973623E+01 
    1.7626649924060374E+01 
    1.8041718127246259E+01 
    1.8747237529042447E+01 
    1.8416930389265310E+01 
    2.1715714455683994E+01 
    1.3527863408530616E+01 
    1.1647671829051031E+01 
    1.3496458021250886E+01 
    1.9247936212036162E+01 
    1.3223212034978657E+01 
    7.8123181762296046E+00 
    1.3039739116222314E+01 
    1.9748451713977524E+01 
    1.3377963542202441E+01 
    1.1660538419574669E+01 
    1.2842753369356668E+01 
    1.9878234708867804E+01 
    1.8097765696918078E+01 
    1.1111717078358359E+01 
    2.0036880856443279E+01 
    1.3153877377095718E+01 
    1.8721349322955554E+01 
    1.9893474905566261E+01 
    1.3940670536815125E+01 
    7.1137817456593186E+00 
    1.4498807246303517E+01 
    7.3517825589379484E+00 
    1.3275251701944660E+01 
    1.3072150609889849E+01 
    1.5295158561933375E+01 
    7.7723256155776710E+00 
    1.6291944865026295E+01 
    1.3089048680966389E+01 
    1.8404039553756501E+01 
    1.4096767364914603E+01 
    1.0745002093710966E+01 
    1.2690264486670241E+01 
    1.3813340566597040E+01 
    1.3657218870260158E+01 
    1.9412992125284241E+01 
    1.1132495706322416E+01 
    1.0942530191378344E+01 
    8.1677390873799016E+00 
    1.8771990925267158E+01 
    1.2740994743440556E+01 
    1.7815065386303782E+01 
    1.3040040600321801E+01 
    8.9333397064572804E+00 
    1.8129536867265600E+01 
    1.3016274879049826E+01 
    9.7518246972391278E+00 
    1.0327076913867851E+01 
    1.0684677715960873E+01 
    1.8443868070907364E+01 
    1.3205219570061120E+01 
    1.9210353727886961E+01 
    1.2976029210115165E+01 
    1.2913691450373456E+01 
    1.2482652961139717E+01 
    1.8238932210853648E+01 
    1.2824003336155302E+01 
    1.0735574139733014E+01 
    2.0317765541051624E+01 
    1.8343483758028203E+01 
    9.1370665322238693E+00 
    3.6001235317061404E+00 
    1.3192708376253629E+01 
    1.2330199272353406E+01 
    1.1278245440093185E+01 
    1.2237536156047467E+01 
    1.8253039690888023E+01 
    1.2834769255764344E+01 
    1.1709154624289091E+01 
    1.8069931158564607E+01 
    9.0545683637074887E+00 
    1.7584588621887811E+01 
    1.1895618947081028E+01 
    1.0663200611246026E+01 
    1.1386803736721317E+01 
    1.8824610601427050E+01 
    1.3053905892635326E+01 
    1.3062776365211407E+01 
    7.8859860962711315E+00 
    8.5228016791919039E+00 
    1.6525709642894967E+01 
    1.3073073260870814E+01 
    1.3240724462153292E+01 
    2.0022502639095990E+01 
    1.0944362572473782E+01 
    1.3085854931342547E+01 
    9.3647456465188359E+00 
    9.6624564043169023E+00 
    1.8204292489507505E+01 
    1.2688147104790557E+01 
    9.3932833833029239E+00 
    1.3647696969813765E+01 
    1.2975450362313417E+01 
    1.8220032275277745E+01 
    2.0129680619176305E+01 
    1.3659395606158442E+00 
    1.3198632479768822E+01 
    1.3324585440717470E+01 
    1.8317237945071049E+01 
    1.2630669099759443E+01 
    1.3024886990478922E+01 
    1.9481866075776832E+01 
    1.1432156171336878E+01 
    9.4770028171905967E+00 
    1.5608206016226619E+01 
    1.8010954589493878E+01 
    1.9315632678757549E+01 
    1.9634443807587093E+01 
    1.3007696496774427E+01 
    1.3188144601955427E+01 
    1.4513121151757186E+01 
    8.6918209722225335E+00 
    1.8176925856795208E+01 
    1.0207711470274901E+01 
    9.0419053261913707E+00 
    1.6229002531574981E+01 
    1.5228009803977683E+01 
    8.8711747308435207E+00 
    1.8055822713092045E+01 
    1.9299354523541599E+01 
    1.3547582291610498E+01 
    2.0247585636569102E+01 
    1.8098048545830185E+01 
    1.2696738869355217E+01 
    1.8963993441208764E+01 
    9.6634853173435946E+00 
    1.8033979205623865E+01 
    1.3197241000698989E+01 
    1.3151952895465472E+01 
    2.0223424679354032E+01 
    1.2786417739420591E+01 
    1.5868428681450181E+01 
    1.1363715165107832E+01 
    1.9442007140206794E+01 
    1.7908107603292624E+01 
    1.1852026985920730E+01 
    1.7979415847287800E+01 
    1.1943513325618481E+01 
    1.3031865085335953E+01 
    1.9249857409406673E+01 
    1.8415371179397539E+01 
    1.9302952742011897E+01 
    1.8321417486388711E+01 
    1.2133127570709837E+01 
    1.2395080460806973E+01 
    1.9311942636641017E+01 
    1.2551513800388026E+01 
    1.7779925617006711E+01 
    1.2767238395555486E+01 
    5.3123309806842176E+00 
    9.1250305242074425E+00 
    8.4496312466911885E+00 
    1.9254502491125205E+01 
    2.0138781198291010E+01 
    1.8002592410054557E+01 
    1.4936906661133724E+01 
    1.8362426164740345E+01 
    1.8066830937482852E+01 
    1.8814769786155175E+01 
    7.6158167531917806E+00 
    4.9423621578071151E+00 
    1.4658726015973382E+01 
    1.2819280604326648E+01 
    1.8258902798675077E+01 
    1.8255809355819736E+01 
    1.3345304012745801E+01 
    1.8303481888700290E+01 
    1.3181248815245954E+01 
    1.3088204050274472E+01 
    6.8786692775935192E+00 
    4.9240834575870380E+00 
    1.9873508934726804E+01 
    1.0257664622432614E+01 
    1.1775310619231176E+01 
    1.3235844730057964E+01 
    2.1693485465267802E+01 
    1.3335291324360645E+01 
    1.3560871979303268E+01 
    5.6214887477583639E+00 
    1.3335069970995136E+01 
    1.3350492199291018E+01 
    1.8579991600641467E+01 
    1.1395327879061446E+01 
    1.2545924161710932E+01 
    2.0071593868154061E+01 
    1.3208687743416505E+01 
    1.8022837702715734E+01 
    1.8294343709212423E+01 
    1.5954468481748810E+01 
    1.1150150892261053E+01 
    1.8320761396883228E+01 
    1.2969229393142339E+01 
    1.8218159043157886E+01 
    1.7943086264132830E+01 
    1.9277990526135230E+01 
    1.8318413396271357E+01 
    1.6940394826725424E+01 
    1.3194885934110387E+01 
    8.7920557411244094E+00 
    2.1555582723077713E+01 
    1.0415866628033482E+01 
    1.9186904552771484E+01 
    1.3191825560427640E+01 
    1.1010837117054749E+01 
    6.5693292266383017E+00 
    1.3390752135137188E+01 
    1.8303838844028849E+01 
    1.8296441063451127E+01 
    1.3010900890174970E+01 
    1.3184949042361980E+01 
    2.0307681750155531E+01 
    1.9566854130700811E+01 
    1.3357513736387936E+01 
    4.5964260710470155E+00 
    1.6764678930534352E+01 
    2.1829642314037535E+01 
    1.3198790887473582E+01 
    1.5422903720034144E+01 
    1.2630146973770666E+01 
    2.1396817981533641E+01 
    1.9663854116859124E+01 
    1.9364524968093548E+01 
    1.3382439960035262E+01 
    6.1325904732755259E+00 
    1.2579689776686241E+01 
    1.2658022462370932E+01 
    1.2703898713806288E+01 
    5.0213736313243311E+00 