# vtk DataFile Version 2.0
Pressure Field Data 
ASCII 
DATASET UNSTRUCTURED_GRID 

POINTS 2860 double 

    0.0000000000000000E+00     0.0000000000000000E+00     0.0000000000000000E+00 
    1.0000000000000000E+00     0.0000000000000000E+00     0.0000000000000000E+00 
    1.0000000000000000E+00     1.0000000000000000E+00     0.0000000000000000E+00 
    0.0000000000000000E+00     1.0000000000000000E+00     0.0000000000000000E+00 
    2.5000000000000000E-01     2.5000000000000000E-01     0.0000000000000000E+00 
    7.5000000000000000E-01     2.5000000000000000E-01     0.0000000000000000E+00 
    7.5000000000000000E-01     7.5000000000000000E-01     0.0000000000000000E+00 
    2.5000000000000000E-01     7.5000000000000000E-01     0.0000000000000000E+00 
    3.1249999999942091E-02     0.0000000000000000E+00     0.0000000000000000E+00 
    6.2499999999873469E-02     0.0000000000000000E+00     0.0000000000000000E+00 
    9.3749999999826514E-02     0.0000000000000000E+00     0.0000000000000000E+00 
    1.2499999999977961E-01     0.0000000000000000E+00     0.0000000000000000E+00 
    1.5624999999968961E-01     0.0000000000000000E+00     0.0000000000000000E+00 
    1.8749999999959971E-01     0.0000000000000000E+00     0.0000000000000000E+00 
    2.1874999999950970E-01     0.0000000000000000E+00     0.0000000000000000E+00 
    2.4999999999941969E-01     0.0000000000000000E+00     0.0000000000000000E+00 
    2.8124999999932920E-01     0.0000000000000000E+00     0.0000000000000000E+00 
    3.1249999999923850E-01     0.0000000000000000E+00     0.0000000000000000E+00 
    3.4374999999914790E-01     0.0000000000000000E+00     0.0000000000000000E+00 
    3.7499999999905720E-01     0.0000000000000000E+00     0.0000000000000000E+00 
    4.0624999999896660E-01     0.0000000000000000E+00     0.0000000000000000E+00 
    4.3749999999887590E-01     0.0000000000000000E+00     0.0000000000000000E+00 
    4.6874999999878530E-01     0.0000000000000000E+00     0.0000000000000000E+00 
    4.9999999999869471E-01     0.0000000000000000E+00     0.0000000000000000E+00 
    5.3124999999877620E-01     0.0000000000000000E+00     0.0000000000000000E+00 
    5.6249999999885780E-01     0.0000000000000000E+00     0.0000000000000000E+00 
    5.9374999999893940E-01     0.0000000000000000E+00     0.0000000000000000E+00 
    6.2499999999902101E-01     0.0000000000000000E+00     0.0000000000000000E+00 
    6.5624999999910261E-01     0.0000000000000000E+00     0.0000000000000000E+00 
    6.8749999999918421E-01     0.0000000000000000E+00     0.0000000000000000E+00 
    7.1874999999926570E-01     0.0000000000000000E+00     0.0000000000000000E+00 
    7.4999999999934730E-01     0.0000000000000000E+00     0.0000000000000000E+00 
    7.8124999999942890E-01     0.0000000000000000E+00     0.0000000000000000E+00 
    8.1249999999951039E-01     0.0000000000000000E+00     0.0000000000000000E+00 
    8.4374999999959199E-01     0.0000000000000000E+00     0.0000000000000000E+00 
    8.7499999999967359E-01     0.0000000000000000E+00     0.0000000000000000E+00 
    9.0624999999975520E-01     0.0000000000000000E+00     0.0000000000000000E+00 
    9.3749999999983680E-01     0.0000000000000000E+00     0.0000000000000000E+00 
    9.6874999999991840E-01     0.0000000000000000E+00     0.0000000000000000E+00 
    1.0000000000000000E+00     3.1249999999942091E-02     0.0000000000000000E+00 
    1.0000000000000000E+00     6.2499999999873469E-02     0.0000000000000000E+00 
    1.0000000000000000E+00     9.3749999999826514E-02     0.0000000000000000E+00 
    1.0000000000000000E+00     1.2499999999977961E-01     0.0000000000000000E+00 
    1.0000000000000000E+00     1.5624999999968961E-01     0.0000000000000000E+00 
    1.0000000000000000E+00     1.8749999999959971E-01     0.0000000000000000E+00 
    1.0000000000000000E+00     2.1874999999950970E-01     0.0000000000000000E+00 
    1.0000000000000000E+00     2.4999999999941969E-01     0.0000000000000000E+00 
    1.0000000000000000E+00     2.8124999999932920E-01     0.0000000000000000E+00 
    1.0000000000000000E+00     3.1249999999923850E-01     0.0000000000000000E+00 
    1.0000000000000000E+00     3.4374999999914790E-01     0.0000000000000000E+00 
    1.0000000000000000E+00     3.7499999999905720E-01     0.0000000000000000E+00 
    1.0000000000000000E+00     4.0624999999896660E-01     0.0000000000000000E+00 
    1.0000000000000000E+00     4.3749999999887590E-01     0.0000000000000000E+00 
    1.0000000000000000E+00     4.6874999999878530E-01     0.0000000000000000E+00 
    1.0000000000000000E+00     4.9999999999869471E-01     0.0000000000000000E+00 
    1.0000000000000000E+00     5.3124999999877620E-01     0.0000000000000000E+00 
    1.0000000000000000E+00     5.6249999999885780E-01     0.0000000000000000E+00 
    1.0000000000000000E+00     5.9374999999893940E-01     0.0000000000000000E+00 
    1.0000000000000000E+00     6.2499999999902101E-01     0.0000000000000000E+00 
    1.0000000000000000E+00     6.5624999999910261E-01     0.0000000000000000E+00 
    1.0000000000000000E+00     6.8749999999918421E-01     0.0000000000000000E+00 
    1.0000000000000000E+00     7.1874999999926570E-01     0.0000000000000000E+00 
    1.0000000000000000E+00     7.4999999999934730E-01     0.0000000000000000E+00 
    1.0000000000000000E+00     7.8124999999942890E-01     0.0000000000000000E+00 
    1.0000000000000000E+00     8.1249999999951039E-01     0.0000000000000000E+00 
    1.0000000000000000E+00     8.4374999999959199E-01     0.0000000000000000E+00 
    1.0000000000000000E+00     8.7499999999967359E-01     0.0000000000000000E+00 
    1.0000000000000000E+00     9.0624999999975520E-01     0.0000000000000000E+00 
    1.0000000000000000E+00     9.3749999999983680E-01     0.0000000000000000E+00 
    1.0000000000000000E+00     9.6874999999991840E-01     0.0000000000000000E+00 
    9.6875000000003686E-01     1.0000000000000000E+00     0.0000000000000000E+00 
    9.3750000000011691E-01     1.0000000000000000E+00     0.0000000000000000E+00 
    9.0625000000015765E-01     1.0000000000000000E+00     0.0000000000000000E+00 
    8.7500000000017863E-01     1.0000000000000000E+00     0.0000000000000000E+00 
    8.4375000000028044E-01     1.0000000000000000E+00     0.0000000000000000E+00 
    8.1250000000040856E-01     1.0000000000000000E+00     0.0000000000000000E+00 
    7.8125000000054956E-01     1.0000000000000000E+00     0.0000000000000000E+00 
    7.5000000000066480E-01     1.0000000000000000E+00     0.0000000000000000E+00 
    7.1875000000086831E-01     1.0000000000000000E+00     0.0000000000000000E+00 
    6.8750000000102829E-01     1.0000000000000000E+00     0.0000000000000000E+00 
    6.5625000000114431E-01     1.0000000000000000E+00     0.0000000000000000E+00 
    6.2500000000129829E-01     1.0000000000000000E+00     0.0000000000000000E+00 
    5.9375000000147926E-01     1.0000000000000000E+00     0.0000000000000000E+00 
    5.6250000000168354E-01     1.0000000000000000E+00     0.0000000000000000E+00 
    5.3125000000188671E-01     1.0000000000000000E+00     0.0000000000000000E+00 
    5.0000000000205835E-01     1.0000000000000000E+00     0.0000000000000000E+00 
    4.6875000000192979E-01     1.0000000000000000E+00     0.0000000000000000E+00 
    4.3750000000180111E-01     1.0000000000000000E+00     0.0000000000000000E+00 
    4.0625000000167238E-01     1.0000000000000000E+00     0.0000000000000000E+00 
    3.7500000000154382E-01     1.0000000000000000E+00     0.0000000000000000E+00 
    3.4375000000141509E-01     1.0000000000000000E+00     0.0000000000000000E+00 
    3.1250000000128642E-01     1.0000000000000000E+00     0.0000000000000000E+00 
    2.8125000000115769E-01     1.0000000000000000E+00     0.0000000000000000E+00 
    2.5000000000102918E-01     1.0000000000000000E+00     0.0000000000000000E+00 
    2.1875000000090050E-01     1.0000000000000000E+00     0.0000000000000000E+00 
    1.8750000000077180E-01     1.0000000000000000E+00     0.0000000000000000E+00 
    1.5625000000064329E-01     1.0000000000000000E+00     0.0000000000000000E+00 
    1.2500000000051459E-01     1.0000000000000000E+00     0.0000000000000000E+00 
    9.3750000000385914E-02     1.0000000000000000E+00     0.0000000000000000E+00 
    6.2500000000257239E-02     1.0000000000000000E+00     0.0000000000000000E+00 
    3.1250000000128557E-02     1.0000000000000000E+00     0.0000000000000000E+00 
    0.0000000000000000E+00     9.6875000000003686E-01     0.0000000000000000E+00 
    0.0000000000000000E+00     9.3750000000011691E-01     0.0000000000000000E+00 
    0.0000000000000000E+00     9.0625000000015765E-01     0.0000000000000000E+00 
    0.0000000000000000E+00     8.7500000000017863E-01     0.0000000000000000E+00 
    0.0000000000000000E+00     8.4375000000028044E-01     0.0000000000000000E+00 
    0.0000000000000000E+00     8.1250000000040856E-01     0.0000000000000000E+00 
    0.0000000000000000E+00     7.8125000000054956E-01     0.0000000000000000E+00 
    0.0000000000000000E+00     7.5000000000066480E-01     0.0000000000000000E+00 
    0.0000000000000000E+00     7.1875000000086831E-01     0.0000000000000000E+00 
    0.0000000000000000E+00     6.8750000000102829E-01     0.0000000000000000E+00 
    0.0000000000000000E+00     6.5625000000114431E-01     0.0000000000000000E+00 
    0.0000000000000000E+00     6.2500000000129829E-01     0.0000000000000000E+00 
    0.0000000000000000E+00     5.9375000000147926E-01     0.0000000000000000E+00 
    0.0000000000000000E+00     5.6250000000168354E-01     0.0000000000000000E+00 
    0.0000000000000000E+00     5.3125000000188671E-01     0.0000000000000000E+00 
    0.0000000000000000E+00     5.0000000000205835E-01     0.0000000000000000E+00 
    0.0000000000000000E+00     4.6875000000192979E-01     0.0000000000000000E+00 
    0.0000000000000000E+00     4.3750000000180111E-01     0.0000000000000000E+00 
    0.0000000000000000E+00     4.0625000000167238E-01     0.0000000000000000E+00 
[...]
CELL_DATA 2795 
SCALARS Pressure double 1 
LOOKUP_TABLE default 

    7.9082167326434023E+00 
    1.7922721596689684E+01 
    1.2482937309946688E+01 
    1.2177293759954072E+01 
    9.7107265982183151E+00 
    1.7751148901309140E+01 
    1.8625038151346935E+01 
    7.0633540409428326E+00 
    1.3042284132405973E+01 
    1.0066095446950843E+01 
    8.5961797320260107E+00 
    1.7436920917467983E+01 
    1.7821715369945434E+01 
    1.7712951506597083E+01 
    1.1525227897113613E+01 
    6.9442206212864690E+00 
    1.1219048921471149E+01 
    9.1489282249575599E+00 
    1.6973528012404799E+01 
    1.2463121438667626E+01 
    1.2357705654517479E+01 
    1.7630658176650488E+01 
    1.1851778729345448E+01 
    4.6375600125535354E-01 
    1.7385872878400306E+01 
    1.7776563005966423E+01 
    1.8661516040902924E+01 
    8.2850289522465541E+00 
    1.7337257989402723E+01 
    1.8648711305725481E+01 
    1.2677979958159321E+01 
    1.2669426589521461E+01 
    8.9961540650366825E+00 
    1.2445491610875663E+01 
    4.0780456276876320E+00 
    1.1223547885528708E+01 
    1.2430393650977027E+01 
    1.8693905739912708E+01 
    1.8597852513842049E+01 
    1.7452397511038843E+01 
    9.6713899932768808E+00 
    1.7422163975128061E+01 
    9.6290434986543139E-01 
    1.2459404931365588E+01 
    1.8390893078667936E+01 
    1.8110022226781918E+01 
    1.7423940996174302E+01 
    1.3437980511968878E+01 
    1.7474993237048153E+01 
    1.1479281246619118E+01 
    1.0937715680304967E+01 
    1.2632683141538052E+01 
    1.2346638148655458E+01 
    1.1293079986561205E+01 
    1.2756088931016416E+01 
    1.6704594902674305E+01 
    1.4604933534335776E+01 
    9.7623283983149420E+00 
    1.7639019778898824E+01 
    1.7538899525648588E+01 
    1.2140995031040829E+01 
    1.2014993077130013E+01 
    1.2059610529837402E+01 
    1.8534479744540995E+01 
    1.8840305432793457E+01 
    1.1236624702618803E+01 
    1.2631046245139785E+01 
    1.7150950395374249E+01 
    1.4486487185419106E+01 
    1.2076603669536235E+01 
    1.8843018232075753E+01 
    1.7583342502489849E+01 
    1.1076879563519244E+01 
    1.8241441060123730E+01 
    1.3023581607919636E+01 
    1.7225373317999605E+01 
    1.8707531852655293E+01 
    1.3120313176720970E+01 
    8.0193597104194634E+00 
    1.2649778623177994E+01 
    1.8608626272796016E+01 
    1.8872550877821141E+01 
    1.1250588109023690E+01 
    1.2575135313929870E+01 
    1.8928809931261721E+01 
    1.2428798172445573E+01 
    1.1957371090799093E+01 
    1.5071142272352024E+01 
    7.6920203822587609E+00 
    1.0967374739316213E+01 
    1.2572094335188050E+01 
    1.3201223213345321E+01 
    2.0554163394754031E+01 
    9.4394483214841838E+00 
    1.2639134710642463E+01 
    1.7397160806211062E+01 
    1.7758126054884666E+01 
    8.3209840932453734E+00 
    1.2284666125609506E+01 
    1.2606629657695555E+01 
    1.7786586475822602E+01 
    1.2596393276834037E+01 
    1.7693357623500926E+01 
    5.0377107475314364E+00 
    8.3516285446793201E+00 
    1.2863753715963796E+01 
    1.7931292558281939E+01 
    1.1181780902197691E+01 
    1.1871066847235360E+01 
    1.2573352309563662E+01 
    1.1915764120993769E+01 
    1.4189523537533116E+01 
    1.1557870784943400E+01 
    1.1086388625540556E+01 
    8.7148852527653400E+00 
    1.5041981125735926E+01 
    1.2674792206874692E+01 
    1.8431318033973042E+01 
    1.0912263821992333E+01 
    1.2153217182289952E+01 
    1.7576562577038843E+01 
    1.0190228077658684E+01 
    1.8114615331392589E+01 
    1.2502680816215694E+01 
    1.2070368771458241E+01 
    1.7762733779045949E+01 
    1.2662505871353900E+01 
    1.8724827214399980E+01 
    1.5135043764180830E+01 
    1.6484763967895827E+01 
    1.8680923635605026E+01 
    9.4575627053471383E+00 
    1.2885129099527596E+01 
    1.7761271962122809E+01 
    3.7573173280509424E+00 
    1.2731634132058108E+01 
    1.8641672064365331E+01 
    1.2103156473844528E+01 
    1.3960229668845587E+01 
    8.2185074969667919E+00 
    1.7393732015042435E+01 
    2.1081575092710995E+01 
    1.5754969800343178E+01 
    1.2104442469817567E+01 
    1.0841802261017589E+01 
    1.3486849464806680E+01 
    1.2519969972545418E+01 
    8.6950592461534626E+00 
    1.8676183911131702E+01 
    1.7774067426982349E+01 
    1.7399208269540630E+01 
    1.3195738996651544E+01 
    1.1046620403146012E+01 
    1.2353719363784169E+01 
    1.8284616022618351E+01 
    1.1354956859323194E+01 
    1.2657194698054480E+01 
    1.1557632993473808E+01 
    1.4721301684807454E+01 
    2.1068895417179533E+01 
    1.7388482461555995E+01 
    1.1040536899923996E+01 
    1.7998219295162645E+01 
    1.7883416703552676E+01 
    1.7977943697596373E+01 
    1.9154453243792464E+01 
    1.9763439646072843E+01 
    1.8095159724111419E+01 
    1.2622508940361843E+01 
    1.3733766410997209E+01 
    1.7900348031964466E+01 
    1.8443538761358230E+01 
    9.0824193364219301E+00 
    1.7422910880634852E+01 
    1.8240362994974486E+01 
    8.8347130212411678E+00 
    1.9074972492822869E+01 
    1.9037909905571411E+01 
    1.7057012417046924E+01 
    1.2960023462419491E+01 
    3.3256855375959153E+00 
    1.8642886220677731E+01 
    1.2800513543554919E+01 
    1.8780384787975567E+01 
    1.2018433777864614E+01 
    1.8424877882427463E+01 
    1.1954875659019997E+00 
    1.6455503454679448E+01 
    1.2066229786954137E+01 
    1.0990102505309551E+01 
    1.0712894621121977E+01 
    1.2469964874668161E+01 
    1.3742228272591751E+01 
    1.3186229425019645E+01 
    8.8128966495486676E+00 
    1.8438108613125767E+01 
    1.7788271957323808E+01 
    1.4609553443962970E+01 
    1.2854634975086165E+01 
    1.9057541661867952E+00 
    9.8910666502041877E+00 
    6.8700355180499120E+00 
    1.8659942580946723E+01 
    1.4025273607441777E+01 
    1.7799236952337246E+01 
    1.7868600081263367E+01 
    1.1448242629212325E+01 
    1.4639995380266869E+01 
    1.7391222091312144E+01 
    1.9018556435774901E+01 
    8.2138504628695621E+00 
    1.5731410109146012E+01 
    1.3138007012822756E+01 
    7.3168862111218731E+00 
    1.1440585658860474E+01 
    1.5304484794783743E+01 
    1.7822200364715279E+01 
    1.2522042402247445E+01 
    1.7952783387384198E+01 
    1.7674616806120426E+01 
    1.7612540206567118E+01 
    1.2358163404837285E+01 
    1.0900008528884996E+01 
    1.7408518724485415E+01 
    1.1070513623323901E+01 
    1.2605146966968059E+01 
    1.0854265245954394E+01 
    1.2611192434440754E+01 
    1.7879996969135984E+01 
    7.8672666067091219E+00 
    1.1327594896712055E+01 
    1.8563539422395621E+01 
    1.2366528992483072E+01 
    1.3910380180957866E+01 
    8.0731906696667597E+00 
    1.1148839856669898E+01 
    1.7648236169328364E+01 
    1.8018439704537911E+01 
    6.5768627961205395E+00 
    1.2379717927666412E+01 
    1.0930030758984669E+01 
    1.9503019845918384E+01 
    1.8882703781512564E+01 
    1.9796396334247927E+01 
    1.2400119498114169E+01 
    1.7847015368266415E+01 
    1.7329560785750800E+01 
    1.2250130382661681E+01 
    1.7399578345235135E+01 
    1.2855441550258149E+01 
    7.3910829788588508E+00 
    1.2801890816240766E+01 
    1.8543977132512097E+01 
    1.7395571311073500E+01 
    8.5629795464351623E+00 
    1.7431956250080059E+01 
    1.3774500649126306E+01 
    1.2707746422517822E+01 
    1.2188566398090227E+01 
    1.7225519962554610E+01 
    1.3305912338860681E+01 
    1.7415165443014789E+01 
    1.2384027714492634E+01 
    7.6104048589187006E+00 
    1.2685152091515608E+01 
    1.0726254635472392E+01 
    1.5826151913421338E+01 
    1.8781760011886444E+01 
    1.7406170136070173E+01 
    1.8634399165651828E+01 
    1.2305206941712463E+01 
    8.3353295107930148E+00 
    8.4503510278032632E+00 
    1.2922757682776741E+01 
    1.2576171497113730E+01 
    1.8532212000861106E+00 
    1.6739801092021199E+01 
    1.9191430952082591E+01 
    1.2036853610804750E+01 
    7.7297253272107120E+00 
    1.4615069552392997E+01 
    1.7429015357678459E+01 
    9.1540793199981749E+00 
    6.2137394423176424E+00 
    1.2560313086050151E+01 
    1.7515319289635165E+01 
    1.8326972384516807E+01 
    1.8159049555490910E+01 
    1.8021262948963148E+01 
    8.9565228330242501E+00 
    1.2702373371905628E+01 
    1.6853372923672236E+01 
    9.8812310111308364E+00 
    1.7805519362076065E+01 
    1.4903319975553812E+01 
    8.5704125072093298E+00 
    1.7531933914010086E+01 
    1.8683986146181766E+01 
    1.7569325362713005E+01 
    8.8146475383516059E+00 
    1.2627007004469158E+01 
    9.6800715657411232E+00 
    1.1931113830995773E+01 
    1.7419552659353936E+01 
    1.7405101720013782E+01 
    8.8646893967896521E+00 
    1.8480808655408506E+01 
    1.3238530374389960E+01 
    1.7440834969974812E+01 
    1.8458342962190450E+01 
    1.7427674054158963E+01 
    1.6042730488878508E+01 
    1.9569833773913494E+01 
    1.1975502942152247E+01 
    1.8597775720666640E+01 
    1.7472499577796039E+01 
    1.8683781514596866E+01 
    1.8474828425668854E+01 
    1.2097637022797544E+01 
    1.2471464130892405E+01 
    1.2025746732717421E+01 
    1.5323665804879059E+01 
    5.0604230987647405E+00 
    1.2847941984156913E+01 
    1.9708226176197716E+01 
    1.2860303349086195E+01 
    1.3086686403362496E+01 
    1.8652300651699949E+01 
    1.8917050366743592E+01 
    1.1869118295444853E+01 
    1.7437072834518283E+01 
    1.7400516431673100E+01 
    1.3071399594745408E+01 
    1.8422469353762899E+01 
    9.0090466711830093E+00 
    5.7431682022545516E+00 
    1.3415804478023228E+01 
    1.2874215386869757E+01 
    1.7404649870417160E+01 
    8.2940441808251020E+00 
    1.8068089267039955E+01 
    5.8653993008614211E+00 
    1.2806670887687041E+01 
    1.2115221448111372E+01 
    1.2603278966703565E+01 
    2.1122318363821961E+01 
    4.9050299339325489E+00 
    1.2751684227313490E+01 
    1.5308012438826932E+01 
    1.2190147167253127E+01 
    9.7813028847226011E+00 
    1.8227824062169226E+01 
    2.0648530298663914E+01 
    1.8388731861716479E+01 
    1.2680263805672913E+01 
    7.2819106385344954E+00 
    2.0488041446052090E+01 
    1.7777340978076481E+01 
    9.2180141730666438E+00 
    1.2283994781943036E+01 
    1.9135165416606203E+01 
    4.1740633226800439E+00 
    1.2937117038280929E+01 
    1.8378132791788516E+01 
    1.2619108503459872E+01 
    1.1014093123945239E+01 
    1.2798154162128418E+01 
    1.6961859943835893E+01 
    1.2600970318843832E+01 
    6.4825872103479378E+00 
    1.1776520937971995E+00 
    9.4431347438782751E+00 
    1.9393323269393726E+01 
    1.2024955908283779E+01 
    1.4239402809331237E+01 
    1.3657067285627111E+01 
    1.5631146493915141E+01 
    1.2633018133310255E+01 
    1.7666826900897394E+01 
    2.1137423538606075E+01 
    1.5011745015148197E+01 
    1.8564969630326367E+01 
    6.9209911686450010E-01 
    1.7407310429729296E+01 
    7.1388666273244992E+00 
    1.9893657979235744E+01 
    1.2767590669499562E+01 
    1.1239725098090485E+01 
    9.8714054116686878E+00 
    6.8058241906569608E+00 
    1.3991977829333416E+01 
    1.0015272817492990E+01 
    1.5700277669011539E+01 
    2.8242593429006355E+00 
    1.3820253567009942E+01 
    1.7316763790069466E+01 
    7.6618493381438357E+00 
    1.7930620308141183E+01 
    1.9663915937750605E+01 
    1.7770340142028232E+01 
    1.2606667279145107E+01 
    1.2596961977491706E+01 
    1.2759134801293031E+01 
    7.3771903538681292E+00 
    1.1694637189765071E+01 
    1.1500660387846072E+01 
    1.2746257667826855E+01 
    1.1940426176694610E+01 
    8.8344365264732261E-01 
    8.1475299992899703E+00 
    1.2420610904617996E+01 
    1.2716345200747615E+01 
    1.6144071094036597E+01 
    2.7374625693911914E+00 
    1.3022352724952047E+01 
    1.2882705431522714E+01 
    4.7243276962107208E+00 
    1.7610162976161156E+01 
    1.1093250114430719E+01 
    1.2734839856191583E+01 
    1.7775600185485896E+01 
    6.8334875748121888E+00 
    1.7733703823503774E+01 
    1.1239782580803043E+01 
    1.2431066935687489E+00 
    1.2101101780995229E+01 
    1.8504955402197901E+01 
    1.7407559549435856E+01 
    1.7429698146635651E+01 
    1.3159425238581797E+01 
    1.2809665704674941E+01 
    1.1068495841233210E+01 
    8.8394030943950810E+00 
    1.7911915441003320E+01 
    1.2277290106415585E+01 
    8.5713929592699341E+00 
    1.7424492126312273E+01 
    1.8236789677031464E+01 
    1.2951355034854975E+01 
    1.2416468550872711E+01 
    2.1007360263091012E+01 
    1.3072577570355248E+01 
    1.7927150469066973E+01 
    1.0529628915352353E+01 
    2.1166560523760271E+01 
    8.3998254343337724E+00 
    1.1559516223709128E+01 
    9.4151181341848353E+00 
    1.3355788866831185E+01 
    1.0777052631004695E+01 
    2.1149304594415526E+01 
    1.3131338493732532E+01 
    1.6926425321417135E+01 
    8.6412449006849208E+00 
    1.2627348818701442E+01 
    1.7735856152814662E+01 
    1.0827110420605218E+01 
    9.2268696731367914E+00 
    1.4235931522170629E+01 
    1.7994031884573477E+01 
    9.2552321303289009E+00 
    1.2141209723244550E+01 
    1.2454809160697865E+01 
    1.7377145965060482E+01 
    1.2216674859953390E+01 
    1.7974787898692981E+01 
    1.8717441942256226E+01 
    1.1101609388180222E+01 
    1.0885271177929669E+01 
    1.0025872686028643E+01 
    1.7546988531542038E+01 
    1.2908600942625515E+01 
    2.0690672413809502E+01 
    1.6129134752139027E+01 
    1.7687021529598699E+01 
    2.0349246738602432E+01 
    1.9671365163695643E+01 
    1.2675470044550696E+01 
    1.2728252519632097E+01 
    1.7076175096836231E+01 
    1.7454134570376507E+01 
    1.8121609882059875E+01 
    1.7802866203877308E+01 
    2.1032410901291353E+01 
    1.3071985760476480E+01 
    1.1229542351244824E+01 
    1.3050125735326947E+01 
    1.8615523795285409E+01 
    1.2773174695578906E+01 
    7.5127065301539719E+00 
    1.2587416228091968E+01 
    1.9099370699866665E+01 
    1.2925200571874424E+01 
    1.1242565996472440E+01 
    1.2394071888137802E+01 
    1.9226257443817502E+01 
    1.7493654103334062E+01 
    1.0724717386991800E+01 
    1.9381575644243842E+01 
    1.2704655480174717E+01 
    1.8099843450049246E+01 
    1.9241545855560531E+01 
    1.3473750194695395E+01 
    6.8420286162558019E+00 
    1.4029943483295474E+01 
    7.0750144810745201E+00 
    1.2824507877038695E+01 
    1.2623759741908941E+01 
    1.4818516818885433E+01 
    7.4813136138315981E+00 
    1.5777211949711162E+01 
    1.2640501282057487E+01 
    1.7790497479085580E+01 
    1.3617237916286697E+01 
    1.0438925578126023E+01 
    1.2244112175047871E+01 
    1.3341456023238184E+01 
    1.3198674623442448E+01 
    1.8771229915450423E+01 
    1.0730940437314098E+01 
    1.0547500874540958E+01 
    7.8695703313740699E+00 
    1.8146520808800194E+01 
    1.2294221098526464E+01 
    1.7226817655807121E+01 
    1.2591767964069874E+01 
    8.6249264536163555E+00 
    1.7526660642378843E+01 
    1.2568066631553251E+01 
    9.4093612588012459E+00 
    9.9560615518409925E+00 
    1.0299959231814343E+01 
    1.7828701295077217E+01 
    1.2748607278330267E+01 
    1.8579272993957449E+01 
    1.2527960833278332E+01 
    1.2466048628847773E+01 
    1.2044677651774695E+01 
    1.7631166506055933E+01 
    1.2377611979368364E+01 
    1.0348031525034264E+01 
    1.9659490251633116E+01 
    1.7731702290536926E+01 
    8.8008430372629523E+00 
    3.4522595732425114E+00 
    1.2736409467025965E+01 
    1.1893940866214413E+01 
    1.0871885529807127E+01 
    1.1806150580394478E+01 
    1.7657617927744894E+01 
    1.2387602588400547E+01 
    1.1291355896788183E+01 
    1.7481153326653001E+01 
    8.7225547252512872E+00 
    1.7033185190310192E+01 
    1.1475144809395424E+01 
    1.0334066784806266E+01 
    1.0976850229269463E+01 
    1.8200372968998824E+01 
    1.2605848478265044E+01 
    1.2614569001925869E+01 
    7.5906258000727336E+00 
    8.2068395956710827E+00 
    1.5996811021408073E+01 
    1.2624731107110268E+01 
    1.2783256907789598E+01 
    1.9366974374523632E+01 
    1.0550475318191095E+01 
    1.2637352480072170E+01 
    9.0220782514913758E+00 
    9.3110875244334732E+00 
    1.7607616780981697E+01 
    1.2244956174938094E+01 
    9.0490598653214072E+00 
    1.3200388109595359E+01 
    1.2526659364496840E+01 
    1.7618330553518213E+01 
    1.9471950230632622E+01 
    1.3058230237941826E+00 
    1.2742190774396063E+01 
    1.2872943750539907E+01 
    1.7706412985391921E+01 
    1.2186705349594568E+01 
    1.2577336345797422E+01 
    1.8837105601703907E+01 
    1.1021696218982894E+01 
    9.1306816631618322E+00 
    1.5108741512741920E+01 
    1.7424372085176724E+01 
    1.8681241013431315E+01 
    1.8989141691900500E+01 
    1.2555945414247287E+01 
    1.2731966128059449E+01 
    1.4046948706346150E+01 
    8.3697081171318839E+00 
    1.7583832730437472E+01 
    9.8363472269877104E+00 
    8.7092134141236581E+00 
    1.5728090892046820E+01 
    1.4759046810161022E+01 
    8.5441021576894105E+00 
    1.7467664885217644E+01 
    1.8665312451167207E+01 
    1.3091291235366048E+01 
    1.9587267297747733E+01 
    1.7508324748523396E+01 
    1.2251872803914846E+01 
    1.8345413588123435E+01 
    9.3087936124544317E+00 
    1.7446828106458653E+01 
    1.2740830595089164E+01 
    1.2696620615822884E+01 
    1.9562992327288789E+01 
    1.2338272229162047E+01 
    1.5405502013621737E+01 
    1.0956363891356265E+01 
    1.8803274669586937E+01 
    1.7327690389247373E+01 
    1.1427826596364072E+01 
    1.7393835877115251E+01 
    1.1515254132962173E+01 
    1.2584496705076743E+01 
    1.8617413788545701E+01 
    1.7800726933160796E+01 
    1.8668857384606515E+01 
    1.7710494700381009E+01 
    1.1700871132561355E+01 
    1.1957888840485429E+01 
    1.8677387115531040E+01 
    1.2110278186014961E+01 
    1.7215307722422629E+01 
    1.2320306741009089E+01 
    5.0945562850231765E+00 
    8.7938445530510378E+00 
    8.1439786884624752E+00 
    1.8621869640045180E+01 
    1.9480587462951483E+01 
    1.7416235165328136E+01 
    1.4451697591272913E+01 
    1.7764657832546590E+01 
    1.7478222836790984E+01 
    1.8197739258580928E+01 
    7.3305060639000290E+00 
    4.7398918354491739E+00 
    1.4179976919855521E+01 
    1.2372374915983221E+01 
    1.7662544799780665E+01 
    1.7659569153721083E+01 
    1.2893897867438348E+01 
    1.7705392866747609E+01 
    1.2725245456417017E+01 
    1.2636172791194193E+01 
    6.6151130521442045E+00 
    4.7244989105136677E+00 
    1.9221824781746083E+01 
    9.8845253275021765E+00 
    1.1353996833292634E+01 
    1.2785443146957613E+01 
    2.1010601848937469E+01 
    1.2883462825442813E+01 
    1.3100138428238729E+01 
    5.3923211492972500E+00 
    1.2883309579070321E+01 
    1.2898508361060507E+01 
    1.7983465403290246E+01 
    1.0985175609525584E+01 
    1.2108355676437911E+01 
    1.9415218450270693E+01 
    1.2752011236431514E+01 
    1.7435716376729850E+01 
    1.7699675974763803E+01 
    1.5444798880446712E+01 
    1.0749950829567618E+01 
    1.7709977181424819E+01 
    1.2518055126238858E+01 
    1.7625189598634279E+01 
    1.7359716108827012E+01 
    1.8644591104296975E+01 
    1.7707493175298854E+01 
    1.6460230973661098E+01 
    1.2738534600758422E+01 
    8.4719080665623956E+00 
    2.0874385882976785E+01 
    1.0037168950778719E+01 
    1.8554053918168037E+01 
    1.2735549582232698E+01 
    1.0612259796139632E+01 
    6.3148124612139185E+00 
    1.2938172728071955E+01 
    1.7693570850259640E+01 
    1.7687636872779748E+01 
    1.2563871455697083E+01 
    1.2728839674390251E+01 
    1.9647050264235169E+01 
    1.8923450239111450E+01 
    1.2905260513389203E+01 
    4.4072503167212380E+00 
    1.6267979677101977E+01 
    2.1145535528124384E+01 
    1.2742341872908119E+01 
    1.4926627525794981E+01 
    1.2186188782391195E+01 
    2.0717949652489967E+01 
    1.9017880145608043E+01 
    1.8722441986410910E+01 
    1.2929751690741801E+01 
    5.8810804580899356E+00 
    1.2136428668053082E+01 
    1.2213651009545401E+01 
    1.2258518376915603E+01 
    4.8133008167160130E+00 