# vtk DataFile Version 2.0
Pressure Field Data 
ASCII 
DATASET UNSTRUCTURED_GRID 

POINTS 2860 double 

    0.0000000000000000E+00     0.0000000000000000E+00     0.0000000000000000E+00 
    1.0000000000000000E+00     0.0000000000000000E+00     0.0000000000000000E+00 
    1.0000000000000000E+00     1.0000000000000000E+00     0.0000000000000000E+00 
    0.0000000000000000E+00     1.0000000000000000E+00     0.0000000000000000E+00 
    2.5000000000000000E-01     2.5000000000000000E-01     0.0000000000000000E+00 
    7.5000000000000000E-01     2.5000000000000000E-01     0.0000000000000000E+00 
    7.5000000000000000E-01     7.5000000000000000E-01     0.0000000000000000E+00 
    2.5000000000000000E-01     7.5000000000000000E-01     0.0000000000000000E+00 
    3.1249999999942091E-02     0.0000000000000000E+00     0.0000000000000000E+00 
    6.2499999999873469E-02     0.0000000000000000E+00     0.0000000000000000E+00 
    9.3749999999826514E-02     0.0000000000000000E+00     0.0000000000000000E+00 
    1.2499999999977961E-01     0.0000000000000000E+00     0.0000000000000000E+00 
    1.5624999999968961E-01     0.0000000000000000E+00     0.0000000000000000E+00 
    1.8749999999959971E-01     0.0000000000000000E+00     0.0000000000000000E+00 
    2.1874999999950970E-01     0.0000000000000000E+00     0.0000000000000000E+00 
    2.4999999999941969E-01     0.0000000000000000E+00     0.0000000000000000E+00 
    2.8124999999932920E-01     0.0000000000000000E+00     0.0000000000000000E+00 
    3.1249999999923850E-01     0.0000000000000000E+00     0.0000000000000000E+00 
    3.4374999999914790E-01     0.0000000000000000E+00     0.0000000000000000E+00 
    3.7499999999905720E-01     0.0000000000000000E+00     0.0000000000000000E+00 
    4.0624999999896660E-01     0.0000000000000000E+00     0.0000000000000000E+00 
    4.3749999999887590E-01     0.0000000000000000E+00     0.0000000000000000E+00 
    4.6874999999878530E-01     0.0000000000000000E+00     0.0000000000000000E+00 
    4.9999999999869471E-01     0.0000000000000000E+00     0.0000000000000000E+00 
    5.3124999999877620E-01     0.0000000000000000E+00     0.0000000000000000E+00 
    5.6249999999885780E-01     0.0000000000000000E+00     0.0000000000000000E+00 
    5.9374999999893940E-01     0.0000000000000000E+00     0.0000000000000000E+00 
    6.2499999999902101E-01     0.0000000000000000E+00     0.0000000000000000E+00 
    6.5624999999910261E-01     0.0000000000000000E+00     0.0000000000000000E+00 
    6.8749999999918421E-01     0.0000000000000000E+00     0.0000000000000000E+00 
    7.1874999999926570E-01     0.0000000000000000E+00     0.0000000000000000E+00 
    7.4999999999934730E-01     0.0000000000000000E+00     0.0000000000000000E+00 
    7.8124999999942890E-01     0.0000000000000000E+00     0.0000000000000000E+00 
    8.1249999999951039E-01     0.0000000000000000E+00     0.0000000000000000E+00 
    8.4374999999959199E-01     0.0000000000000000E+00     0.0000000000000000E+00 
    8.7499999999967359E-01     0.0000000000000000E+00     0.0000000000000000E+00 
    9.0624999999975520E-01     0.0000000000000000E+00     0.0000000000000000E+00 
    9.3749999999983680E-01     0.0000000000000000E+00     0.0000000000000000E+00 
    9.6874999999991840E-01     0.0000000000000000E+00     0.0000000000000000E+00 
    1.0000000000000000E+00     3.1249999999942091E-02     0.0000000000000000E+00 
    1.0000000000000000E+00     6.2499999999873469E-02     0.0000000000000000E+00 
    1.0000000000000000E+00     9.3749999999826514E-02     0.0000000000000000E+00 
    1.0000000000000000E+00     1.2499999999977961E-01     0.0000000000000000E+00 
    1.0000000000000000E+00     1.5624999999968961E-01     0.0000000000000000E+00 
    1.0000000000000000E+00     1.8749999999959971E-01     0.0000000000000000E+00 
    1.0000000000000000E+00     2.1874999999950970E-01     0.0000000000000000E+00 
    1.0000000000000000E+00     2.4999999999941969E-01     0.0000000000000000E+00 
    1.0000000000000000E+00     2.8124999999932920E-01     0.0000000000000000E+00 
    1.0000000000000000E+00     3.1249999999923850E-01     0.0000000000000000E+00 
    1.0000000000000000E+00     3.4374999999914790E-01     0.0000000000000000E+00 
    1.0000000000000000E+00     3.7499999999905720E-01     0.0000000000000000E+00 
    1.0000000000000000E+00     4.0624999999896660E-01     0.0000000000000000E+00 
    1.0000000000000000E+00     4.3749999999887590E-01     0.0000000000000000E+00 
    1.0000000000000000E+00     4.6874999999878530E-01     0.0000000000000000E+00 
    1.0000000000000000E+00     4.9999999999869471E-01     0.0000000000000000E+00 
    1.0000000000000000E+00     5.3124999999877620E-01     0.0000000000000000E+00 
    1.0000000000000000E+00     5.6249999999885780E-01     0.0000000000000000E+00 
    1.0000000000000000E+00     5.9374999999893940E-01     0.0000000000000000E+00 
    1.0000000000000000E+00     6.2499999999902101E-01     0.0000000000000000E+00 
    1.0000000000000000E+00     6.5624999999910261E-01     0.0000000000000000E+00 
    1.0000000000000000E+00     6.8749999999918421E-01     0.0000000000000000E+00 
    1.0000000000000000E+00     7.1874999999926570E-01     0.0000000000000000E+00 
    1.0000000000000000E+00     7.4999999999934730E-01     0.0000000000000000E+00 
    1.0000000000000000E+00     7.8124999999942890E-01     0.0000000000000000E+00 
    1.0000000000000000E+00     8.1249999999951039E-01     0.0000000000000000E+00 
    1.0000000000000000E+00     8.4374999999959199E-01     0.0000000000000000E+00 
    1.0000000000000000E+00     8.7499999999967359E-01     0.0000000000000000E+00 
    1.0000000000000000E+00     9.0624999999975520E-01     0.0000000000000000E+00 
    1.0000000000000000E+00     9.3749999999983680E-01     0.0000000000000000E+00 
    1.0000000000000000E+00     9.6874999999991840E-01     0.0000000000000000E+00 
    9.6875000000003686E-01     1.0000000000000000E+00     0.0000000000000000E+00 
    9.3750000000011691E-01     1.0000000000000000E+00     0.0000000000000000E+00 
    9.0625000000015765E-01     1.0000000000000000E+00     0.0000000000000000E+00 
    8.7500000000017863E-01     1.0000000000000000E+00     0.0000000000000000E+00 
    8.4375000000028044E-01     1.0000000000000000E+00     0.0000000000000000E+00 
    8.1250000000040856E-01     1.0000000000000000E+00     0.0000000000000000E+00 
    7.8125000000054956E-01     1.0000000000000000E+00     0.0000000000000000E+00 
    7.5000000000066480E-01     1.0000000000000000E+00     0.0000000000000000E+00 
    7.1875000000086831E-01     1.0000000000000000E+00     0.0000000000000000E+00 
    6.8750000000102829E-01     1.0000000000000000E+00     0.0000000000000000E+00 
    6.5625000000114431E-01     1.0000000000000000E+00     0.0000000000000000E+00 
    6.2500000000129829E-01     1.0000000000000000E+00     0.0000000000000000E+00 
    5.9375000000147926E-01     1.0000000000000000E+00     0.0000000000000000E+00 
    5.6250000000168354E-01     1.0000000000000000E+00     0.0000000000000000E+00 
    5.3125000000188671E-01     1.0000000000000000E+00     0.0000000000000000E+00 
    5.0000000000205835E-01     1.0000000000000000E+00     0.0000000000000000E+00 
    4.6875000000192979E-01     1.0000000000000000E+00     0.0000000000000000E+00 
    4.3750000000180111E-01     1.0000000000000000E+00     0.0000000000000000E+00 
    4.0625000000167238E-01     1.0000000000000000E+00     0.0000000000000000E+00 
    3.7500000000154382E-01     1.0000000000000000E+00     0.0000000000000000E+00 
    3.4375000000141509E-01     1.0000000000000000E+00     0.0000000000000000E+00 
    3.1250000000128642E-01     1.0000000000000000E+00     0.0000000000000000E+00 
    2.8125000000115769E-01     1.0000000000000000E+00     0.0000000000000000E+00 
    2.5000000000102918E-01     1.0000000000000000E+00     0.0000000000000000E+00 
    2.1875000000090050E-01     1.0000000000000000E+00     0.0000000000000000E+00 
    1.8750000000077180E-01     1.0000000000000000E+00     0.0000000000000000E+00 
    1.5625000000064329E-01     1.0000000000000000E+00     0.0000000000000000E+00 
    1.2500000000051459E-01     1.0000000000000000E+00     0.0000000000000000E+00 
    9.3750000000385914E-02     1.0000000000000000E+00     0.0000000000000000E+00 
    6.2500000000257239E-02     1.0000000000000000E+00     0.0000000000000000E+00 
    3.1250000000128557E-02     1.0000000000000000E+00     0.0000000000000000E+00 
    0.0000000000000000E+00     9.6875000000003686E-01     0.0000000000000000E+00 
    0.0000000000000000E+00     9.3750000000011691E-01     0.0000000000000000E+00 
    0.0000000000000000E+00     9.0625000000015765E-01     0.0000000000000000E+00 
    0.0000000000000000E+00     8.7500000000017863E-01     0.0000000000000000E+00 
    0.0000000000000000E+00     8.4375000000028044E-01     0.0000000000000000E+00 
    0.0000000000000000E+00     8.1250000000040856E-01     0.0000000000000000E+00 
    0.0000000000000000E+00     7.8125000000054956E-01     0.0000000000000000E+00 
    0.0000000000000000E+00     7.5000000000066480E-01     0.0000000000000000E+00 
    0.0000000000000000E+00     7.1875000000086831E-01     0.0000000000000000E+00 
    0.0000000000000000E+00     6.8750000000102829E-01     0.0000000000000000E+00 
    0.0000000000000000E+00     6.5625000000114431E-01     0.0000000000000000E+00 
    0.0000000000000000E+00     6.2500000000129829E-01     0.0000000000000000E+00 
    0.0000000000000000E+00     5.9375000000147926E-01     0.0000000000000000E+00 
    0.0000000000000000E+00     5.6250000000168354E-01     0.0000000000000000E+00 
    0.0000000000000000E+00     5.3125000000188671E-01     0.0000000000000000E+00 
    0.0000000000000000E+00     5.0000000000205835E-01     0.0000000000000000E+00 
    0.0000000000000000E+00     4.6875000000192979E-01     0.0000000000000000E+00 
    0.0000000000000000E+00     4.3750000000180111E-01     0.0000000000000000E+00 
    0.0000000000000000E+00     4.0625000000167238E-01     0.0000000000000000E+00 
[...]
CELL_DATA 2795 
SCALARS Pressure double 1 
LOOKUP_TABLE default 

    7.7406373513539659E+00 
    1.7538198394193980E+01 
    1.2230217432795229E+01 
    1.1919252170320860E+01 
    9.5041457963404135E+00 
    1.7372848411085837E+01 
    1.8228454860605449E+01 
    6.9145617697590476E+00 
    1.2789509433849421E+01 
    9.8593330322561368E+00 
    8.4170906971699448E+00 
    1.7065682925095842E+01 
    1.7438350695234163E+01 
    1.7335583320806041E+01 
    1.1285525173552173E+01 
    6.7981316234995610E+00 
    1.0979645276486817E+01 
    8.9592472092391269E+00 
    1.6618311312682060E+01 
    1.2210537758640077E+01 
    1.2105504119847492E+01 
    1.7255550992899032E+01 
    1.1599335378821053E+01 
    4.5234888115994171E-01 
    1.7028003552423574E+01 
    1.7394833715046332E+01 
    1.8264206166766886E+01 
    8.1149540482933720E+00 
    1.6968985819551506E+01 
    1.8251776422003982E+01 
    1.2411583521927506E+01 
    1.2415985001636777E+01 
    8.8220017243772233E+00 
    1.2192847002769476E+01 
    3.9832518619651474E+00 
    1.0984379669051510E+01 
    1.2177850121154028E+01 
    1.8296244102276020E+01 
    1.8201742874595745E+01 
    1.7080837705844466E+01 
    9.4767226630931116E+00 
    1.7048037541272119E+01 
    9.3953328167235917E-01 
    1.2198642751125741E+01 
    1.7996402562785274E+01 
    1.7729622274552955E+01 
    1.7052976681075844E+01 
    1.3185201143792368E+01 
    1.7108834462533018E+01 
    1.1232989094984593E+01 
    1.0704429834401328E+01 
    1.2379400545864703E+01 
    1.2086505160542615E+01 
    1.1050970877981825E+01 
    1.2488224341371870E+01 
    1.6359241244403368E+01 
    1.4322379438363974E+01 
    9.5547699782952158E+00 
    1.7263222283966130E+01 
    1.7166272092194124E+01 
    1.1884377425439244E+01 
    1.1769537393847257E+01 
    1.1803311777503362E+01 
    1.8139613356717287E+01 
    1.8438516026945187E+01 
    1.0996206115607036E+01 
    1.2377794036029774E+01 
    1.6808674384919875E+01 
    1.4269765896954137E+01 
    1.1828034901284983E+01 
    1.8442841534525677E+01 
    1.7207593111495509E+01 
    1.0839973961044709E+01 
    1.7860538165851743E+01 
    1.2750701343569677E+01 
    1.6866605296466812E+01 
    1.8309319737368835E+01 
    1.2851582414809332E+01 
    7.8581684368211917E+00 
    1.2396326341307581E+01 
    1.8212351159037098E+01 
    1.8471859391367218E+01 
    1.1009976989519558E+01 
    1.2322168504427692E+01 
    1.8526916675268925E+01 
    1.2176367997614337E+01 
    1.1702934027693834E+01 
    1.4830917457164190E+01 
    7.5323712643177503E+00 
    1.0732842225600766E+01 
    1.2319136540753032E+01 
    1.2948361780886406E+01 
    2.0132668322105079E+01 
    9.2386884798466067E+00 
    1.2385797896181877E+01 
    1.7026690096731926E+01 
    1.7377007015246193E+01 
    8.1467743322453003E+00 
    1.2033227189457399E+01 
    1.2353625531433066E+01 
    1.7404158784508752E+01 
    1.2343456297493242E+01 
    1.7315356726981683E+01 
    4.9297003659639564E+00 
    8.1805531409862109E+00 
    1.2607944993039682E+01 
    1.7546710919472559E+01 
    1.0943121495013653E+01 
    1.1619911961765375E+01 
    1.2320961765598268E+01 
    1.1662058378042124E+01 
    1.3910815798189571E+01 
    1.1312822501507997E+01 
    1.0849869321390903E+01 
    8.5635875937657140E+00 
    1.4725607761798660E+01 
    1.2421537126695188E+01 
    1.8038082800817300E+01 
    1.0690114471619912E+01 
    1.1895545050562644E+01 
    1.7198807284765802E+01 
    9.9748607159193021E+00 
    1.7725849668626765E+01 
    1.2249954732227655E+01 
    1.1813838712666142E+01 
    1.7381157880642601E+01 
    1.2408918287821534E+01 
    1.8326299812784438E+01 
    1.4886761748887489E+01 
    1.6152856389009738E+01 
    1.8283269985957112E+01 
    9.2566272966102545E+00 
    1.2629674669658367E+01 
    1.7379562351593538E+01 
    3.6765957949525374E+00 
    1.2464221340602245E+01 
    1.8244743402183797E+01 
    1.1846278817774058E+01 
    1.3672841524324324E+01 
    8.0535827459462350E+00 
    1.7023382301871134E+01 
    2.0655640346047235E+01 
    1.5479314677651551E+01 
    1.1847364095114433E+01 
    1.0610949821915927E+01 
    1.3205248283609734E+01 
    1.2267168867444767E+01 
    8.5125997839004537E+00 
    1.8278486255878519E+01 
    1.7397791498248541E+01 
    1.7028676572404805E+01 
    1.2941318117368267E+01 
    1.0810693881323926E+01 
    1.2101706979113963E+01 
    1.7902462523207511E+01 
    1.1112327554237821E+01 
    1.2395018109449762E+01 
    1.1310942818382985E+01 
    1.4407736883690028E+01 
    2.0643062820491910E+01 
    1.7018385916853280E+01 
    1.0817427307783065E+01 
    1.7611107709210991E+01 
    1.7499685083425931E+01 
    1.7592492163363403E+01 
    1.8749013487002241E+01 
    1.9349999436233968E+01 
    1.7717521574301035E+01 
    1.2369350358865168E+01 
    1.3458701419063093E+01 
    1.7526533635452211E+01 
    1.8051201125025038E+01 
    8.8910840366133410E+00 
    1.7052141969928702E+01 
    1.7859697003511805E+01 
    8.6487024420552654E+00 
    1.8669023543062742E+01 
    1.8634407258810452E+01 
    1.6700228463818778E+01 
    1.2704321795354826E+01 
    3.2464440640292169E+00 
    1.8245799764289693E+01 
    1.2545818849450505E+01 
    1.8380633066750878E+01 
    1.1763006891959545E+01 
    1.8037089337084900E+01 
    1.1651109372737927E+00 
    1.6138491268543788E+01 
    1.1820125368781518E+01 
    1.0754910421974389E+01 
    1.0484460830893987E+01 
    1.2217487964645695E+01 
    1.3471992056830388E+01 
    1.2911582088436715E+01 
    8.6470171896198149E+00 
    1.8045222525284050E+01 
    1.7406193710289436E+01 
    1.4370065194611948E+01 
    1.2599215467056474E+01 
    1.8648979239980585E+00 
    9.6804872808722351E+00 
    6.7250973877508899E+00 
    1.8262782259589095E+01 
    1.3733430621497559E+01 
    1.7423971977926399E+01 
    1.7484857040126176E+01 
    1.1204029778000622E+01 
    1.4336194187701658E+01 
    1.7021600671395746E+01 
    1.8615208623961450E+01 
    8.0557034009464914E+00 
    1.5401757304032373E+01 
    1.2870542883072208E+01 
    7.1653073131213691E+00 
    1.1196182501727193E+01 
    1.4991403950677283E+01 
    1.7439442732873150E+01 
    1.2269316259622935E+01 
    1.7567668444103447E+01 
    1.7294619542962185E+01 
    1.7233808452056145E+01 
    1.2106299162403582E+01 
    1.0668251685417331E+01 
    1.7037806138031488E+01 
    1.0834488221589059E+01 
    1.2352054465162590E+01 
    1.0622319240023474E+01 
    1.2348400485007462E+01 
    1.7495938459833326E+01 
    7.7025213668604202E+00 
    1.1085382503536747E+01 
    1.8168034917293728E+01 
    1.2114888613826118E+01 
    1.3621458183351820E+01 
    7.9030516183158257E+00 
    1.0910364956324502E+01 
    1.7268770031168600E+01 
    1.7632162656420956E+01 
    6.4449071471925885E+00 
    1.2127553796775283E+01 
    1.0696177427795677E+01 
    1.9092643704670856E+01 
    1.8481703492261481E+01 
    1.9382258587410885E+01 
    1.2147860867910040E+01 
    1.7463745115332522E+01 
    1.6963371062006498E+01 
    1.1999513305675839E+01 
    1.7029112756843606E+01 
    1.2600253848169638E+01 
    7.2396161575751670E+00 
    1.2536434660391006E+01 
    1.8148710315998795E+01 
    1.7025236512655916E+01 
    8.3842784915551025E+00 
    1.7060857230740478E+01 
    1.3502989141100070E+01 
    1.2440780345826525E+01 
    1.1930437186280354E+01 
    1.6860873063564839E+01 
    1.3028168505316888E+01 
    1.7044344031348107E+01 
    1.2123442457813676E+01 
    7.4560167974358409E+00 
    1.2432113168175237E+01 
    1.0498211450518015E+01 
    1.5529954205576050E+01 
    1.8382272170675996E+01 
    1.7035545717945851E+01 
    1.8237591216990307E+01 
    1.2054485257952123E+01 
    8.1597727253280201E+00 
    8.2731116769522295E+00 
    1.2651888184470121E+01 
    1.2323456734214615E+01 
    1.8085138476751252E+00 
    1.6399934786983657E+01 
    1.8784813617589233E+01 
    1.1780942362269201E+01 
    7.5679236689462481E+00 
    1.4318757787498969E+01 
    1.7058265578984429E+01 
    8.9610505016786934E+00 
    6.0812346071350651E+00 
    1.2307423139872164E+01 
    1.7142983236319033E+01 
    1.7935484445827782E+01 
    1.7779481158956294E+01 
    1.7635086344826604E+01 
    8.7946715982545953E+00 
    1.2435492668823116E+01 
    1.6492876463402169E+01 
    9.6780622337961386E+00 
    1.7422579240091469E+01 
    1.4593999513569605E+01 
    8.3930173612550671E+00 
    1.7164099214367699E+01 
    1.8284212462796550E+01 
    1.7198269331812408E+01 
    8.6274443296770880E+00 
    1.2373802698629202E+01 
    9.4739254149153140E+00 
    1.1690401635583079E+01 
    1.7048748623217566E+01 
    1.7034569241634664E+01 
    8.6767327326266397E+00 
    1.8090152125567396E+01 
    1.2976306853974915E+01 
    1.7069692878595273E+01 
    1.8063859888912525E+01 
    1.7056697324325825E+01 
    1.5758307788270976E+01 
    1.9157965203845372E+01 
    1.1721185979532905E+01 
    1.8201671551643951E+01 
    1.7100822583573677E+01 
    1.8286013896040604E+01 
    1.8083767171711575E+01 
    1.1841092793270468E+01 
    1.2218779169597646E+01 
    1.1769976402618346E+01 
    1.5072687295302986E+01 
    4.9518014030678073E+00 
    1.2578342349163574E+01 
    1.9294936652858450E+01 
    1.2604505294261863E+01 
    1.2827076851157221E+01 
    1.8255106160573380E+01 
    1.8515849307157502E+01 
    1.1618066151008058E+01 
    1.7065932011455075E+01 
    1.7029948532035622E+01 
    1.2812056437189973E+01 
    1.8032362375360041E+01 
    8.8190743328873822E+00 
    5.6286329840968081E+00 
    1.3150557992172729E+01 
    1.2618286198110917E+01 
    1.7034896378432826E+01 
    8.1194395985572534E+00 
    1.7688530410943688E+01 
    5.7370800723781521E+00 
    1.2551513520821473E+01 
    1.1859452950396882E+01 
    1.2350309602120591E+01 
    2.0696229973693004E+01 
    4.7990720484403404E+00 
    1.2483898524640997E+01 
    1.4981124768145417E+01 
    1.1940365577022044E+01 
    9.6227884659650620E+00 
    1.7839310104392801E+01 
    2.0226215551517427E+01 
    1.8001023768002142E+01 
    1.2413814527396047E+01 
    7.1294388578271706E+00 
    2.0067164922899202E+01 
    1.7395280792264035E+01 
    9.0477000822411693E+00 
    1.2024883432651299E+01 
    1.8730105270479662E+01 
    4.0843327839676906E+00 
    1.2680062569099404E+01 
    1.7984444194709805E+01 
    1.2365934129664426E+01 
    1.0790163367730212E+01 
    1.2529502992606275E+01 
    1.6626500568652720E+01 
    1.2347904962681495E+01 
    6.3459858776325522E+00 
    1.1441226677988299E+00 
    9.2453446301872724E+00 
    1.8983480697133984E+01 
    1.1769230497875411E+01 
    1.3943001263940438E+01 
    1.3372040069671190E+01 
    1.5320317135878962E+01 
    1.2379767357384996E+01 
    1.7287059741534954E+01 
    2.0711243328506608E+01 
    1.4768056020199912E+01 
    1.8169509442271448E+01 
    6.7472837786340978E-01 
    1.7036822238074496E+01 
    6.9894640624793167E+00 
    1.9478447676819687E+01 
    1.2499506930789508E+01 
    1.1007428142239903E+01 
    9.6609649508043081E+00 
    6.6614966546499517E+00 
    1.3749359851908942E+01 
    9.8064909250073882E+00 
    1.5408173997534584E+01 
    2.7477913210493927E+00 
    1.3547748295570395E+01 
    1.6950288272254507E+01 
    7.5087998036357755E+00 
    1.7555060462052438E+01 
    1.9252692441031886E+01 
    1.7393238868722452E+01 
    1.2341599908986899E+01 
    1.2344098480704591E+01 
    1.2491211448511590E+01 
    7.2220554504128440E+00 
    1.1445228815175184E+01 
    1.1255078945628142E+01 
    1.2478573009973958E+01 
    1.1686161650630101E+01 
    8.6028296918009162E-01 
    7.9861786854074861E+00 
    1.2160528631622913E+01 
    1.2449219464048864E+01 
    1.5833997234919911E+01 
    2.6788396882698620E+00 
    1.2763846750139322E+01 
    1.2626561053332024E+01 
    4.6228084192649535E+00 
    1.7236165863455035E+01 
    1.0856455077963687E+01 
    1.2480469065229027E+01 
    1.7393312814265776E+01 
    6.6895088430482978E+00 
    1.7358566220929291E+01 
    1.0999583438736208E+01 
    1.2168366603672551E+00 
    1.1844134600087514E+01 
    1.8111792892578336E+01 
    1.7036878386296852E+01 
    1.7058558208511947E+01 
    1.2883918731453250E+01 
    1.2554507236873478E+01 
    1.0831610395467210E+01 
    8.6701459710247146E+00 
    1.7526444759623509E+01 
    1.2018348317084424E+01 
    8.4090539295880546E+00 
    1.7053501786744988E+01 
    1.7852676579212893E+01 
    1.2680070097256854E+01 
    1.2164329299922205E+01 
    2.0582225484962240E+01 
    1.2813210667872752E+01 
    1.7542061602445887E+01 
    1.0305966341747427E+01 
    2.0740313790900167E+01 
    8.2242973269880810E+00 
    1.1314511876322060E+01 
    9.2158300362073362E+00 
    1.3091479763676357E+01 
    1.0551668869621912E+01 
    2.0723141935318917E+01 
    1.2870952213825692E+01 
    1.6589478596508005E+01 
    8.4596595817836047E+00 
    1.2374123897564884E+01 
    1.7354675598749537E+01 
    1.0599398169213018E+01 
    9.0749630906985228E+00 
    1.3935720822350646E+01 
    1.7610780867873487E+01 
    9.0639311498595934E+00 
    1.1884885183768100E+01 
    1.2202186655238647E+01 
    1.7007259231775588E+01 
    1.1967553390385159E+01 
    1.7589457844389283E+01 
    1.8319093757324701E+01 
    1.0864942915117320E+01 
    1.0653451405357357E+01 
    9.8201750598755293E+00 
    1.7173655734888268E+01 
    1.2655468154486504E+01 
    2.0268034032038610E+01 
    1.5815076418728797E+01 
    1.7306772741467228E+01 
    1.9929783613714516E+01 
    1.9260149675694411E+01 
    1.2421849251224154E+01 
    1.2460903307768310E+01 
    1.6723551097678854E+01 
    1.7082614609484285E+01 
    1.7731927779273704E+01 
    1.7420192847593668E+01 
    2.0606828281497876E+01 
    1.2812629795320689E+01 
    1.0989231897510587E+01 
    1.2796768179483557E+01 
    1.8219072210168317E+01 
    1.2518545437326955E+01 
    7.3518139311273849E+00 
    1.2322706956243591E+01 
    1.8694535266045911E+01 
    1.2668360641813949E+01 
    1.1002232909221357E+01 
    1.2141739207625795E+01 
    1.8819622653009361E+01 
    1.7117477275221479E+01 
    1.0498305834773921E+01 
    1.8972848287757920E+01 
    1.2450716719333505E+01 
    1.7712126850433435E+01 
    1.8834786534147689E+01 
    1.3198114901482857E+01 
    6.6971883265022072E+00 
    1.3750826188759955E+01 
    6.9265333978660300E+00 
    1.2569302175772110E+01 
    1.2370615154437626E+01 
    1.4524602540575302E+01 
    7.3250234547674395E+00 
    1.5453638911946683E+01 
    1.2387161744705903E+01 
    1.7408136107098024E+01 
    1.3328274464950685E+01 
    1.0264291323736396E+01 
    1.1993168752960402E+01 
    1.3062842095991089E+01 
    1.2937171251124493E+01 
    1.8371040531632509E+01 
    1.0501389057909954E+01 
    1.0322359915526715E+01 
    7.7111765861744956E+00 
    1.7756723299922928E+01 
    1.2042998997879868E+01 
    1.6859014366089529E+01 
    1.2338771576725492E+01 
    8.4551392627577577E+00 
    1.7150613413881331E+01 
    1.2315204265321849E+01 
    9.2145452448460325E+00 
    9.7456591632282574E+00 
    1.0081611774930414E+01 
    1.7445372595298124E+01 
    1.2480879332890453E+01 
    1.8183548558935421E+01 
    1.2275334850268644E+01 
    1.2213875286979420E+01 
    1.1790083011600656E+01 
    1.7252348193403726E+01 
    1.2126378859252569E+01 
    1.0127995760568151E+01 
    1.9248241867499679E+01 
    1.7350490124722953E+01 
    8.6156761162581539E+00 
    3.3781681719100511E+00 
    1.2468906312459485E+01 
    1.1648857023183764E+01 
    1.0639162434096283E+01 
    1.1556123330227610E+01 
    1.7281895989846277E+01 
    1.2126563834461979E+01 
    1.1050858933687019E+01 
    1.7108973241571757E+01 
    8.5398371232086046E+00 
    1.6680596466053693E+01 
    1.1239650847372934E+01 
    1.0131201186983219E+01 
    1.0741822751101534E+01 
    1.7810887288983629E+01 
    1.2352875044849647E+01 
    1.2361487909061299E+01 
    7.4307686698878390E+00 
    8.0336185973860292E+00 
    1.5678715990554203E+01 
    1.2371541517814757E+01 
    1.2514904412257499E+01 
    1.8958192571879763E+01 
    1.0326262223518848E+01 
    1.2384030152772088E+01 
    8.8330587046851683E+00 
    9.1167528033117993E+00 
    1.7233926016938760E+01 
    1.1995787333337772E+01 
    8.8574169630494008E+00 
    1.2946448253538353E+01 
    1.2273843808836281E+01 
    1.7242304438277500E+01 
    1.9061825729888742E+01 
    1.2767268436255053E+00 
    1.2474583557075084E+01 
    1.2617008769850548E+01 
    1.7325781928054443E+01 
    1.1928565927178694E+01 
    1.2324720556226675E+01 
    1.8435294170351810E+01 
    1.0786327198413087E+01 
    8.9376010019084990E+00 
    1.4815572409022268E+01 
    1.7053384224202283E+01 
    1.8283654426117945E+01 
    1.8586511420360150E+01 
    1.2291714020218997E+01 
    1.2464546536126193E+01 
    1.3783696810636426E+01 
    8.1938207098480298E+00 
    1.7209296759451821E+01 
    9.6268903511977388E+00 
    8.5262029872844938E+00 
    1.5434815492886226E+01 
    1.4497169631537426E+01 
    8.3646465643725971E+00 
    1.7095818842113971E+01 
    1.8267948795676698E+01 
    1.2831601198524389E+01 
    1.9175590876406975E+01 
    1.7135624336946620E+01 
    1.1992826860967169E+01 
    1.7956213869001211E+01 
    9.1127431107726036E+00 
    1.7075553431169638E+01 
    1.2473246671995291E+01 
    1.2429832588132527E+01 
    1.9151271982551791E+01 
    1.2086257185038498E+01 
    1.5144124227728073E+01 
    1.0723094983792450E+01 
    1.8403470374168283E+01 
    1.6960147995787015E+01 
    1.1183150860941970E+01 
    1.7023463518101423E+01 
    1.1274657745129183E+01 
    1.2331931419262466E+01 
    1.8220934464242902E+01 
    1.7417814680964931E+01 
    1.8271452036187952E+01 
    1.7329795558554640E+01 
    1.1451212048706365E+01 
    1.1704236346164057E+01 
    1.8279777814745877E+01 
    1.1853802896797747E+01 
    1.6856119128003296E+01 
    1.2068982393643338E+01 
    4.9829230987786737E+00 
    8.6114502494338598E+00 
    7.9765961598626891E+00 
    1.8225294311147412E+01 
    1.9070197105826722E+01 
    1.7045388791131607E+01 
    1.4168924686911165E+01 
    1.7387559999953094E+01 
    1.7106145462399699E+01 
    1.7809865412884093E+01 
    7.1771470289211425E+00 
    4.6369564991232721E+00 
    1.3902527437725130E+01 
    1.2111693147452153E+01 
    1.7286219053725251E+01 
    1.7283291347896288E+01 
    1.2638164109623361E+01 
    1.7328127806094958E+01 
    1.2457950245973269E+01 
    1.2371433026226081E+01 
    6.4752657347675671E+00 
    4.6228507199455011E+00 
    1.8815349915693353E+01 
    9.6774074032330262E+00 
    1.1111413731681782E+01 
    1.2530536678579663E+01 
    2.0585307840338988E+01 
    1.2627374867497629E+01 
    1.2828226146468390E+01 
    5.2734824859034557E+00 
    1.2627271980317587E+01 
    1.2642279729259794E+01 
    1.7608759527864503E+01 
    1.0750013293454595E+01 
    1.1862338605914100E+01 
    1.9005904142222086E+01 
    1.2484229820361719E+01 
    1.7064457122535302E+01 
    1.7325442938716815E+01 
    1.5140800180970276E+01 
    1.0526669571505465E+01 
    1.7329343704278728E+01 
    1.2254389335738596E+01 
    1.7251162153909625E+01 
    1.6990407016951561E+01 
    1.8247590652792553E+01 
    1.7326819335256499E+01 
    1.6151120473904051E+01 
    1.2470992810970769E+01 
    8.2960006167595211E+00 
    2.0450096214725885E+01 
    9.8228428239785792E+00 
    1.8158866806143763E+01 
    1.2468062226632577E+01 
    1.0384701493130349E+01 
    6.1812391726647720E+00 
    1.2681429618373455E+01 
    1.7313267603466024E+01 
    1.7308007829346863E+01 
    1.2311552127840381E+01 
    1.2461473614799255E+01 
    1.9235025059168201E+01 
    1.8521879133750964E+01 
    1.2648827867790851E+01 
    4.3112348389479607E+00 
    1.5967287464253396E+01 
    2.0719513660817110E+01 
    1.2474730024315935E+01 
    1.4634640758096960E+01 
    1.1928065113136350E+01 
    2.0295078810807649E+01 
    1.8614650680014716E+01 
    1.8322381891559964E+01 
    1.2672962631189950E+01 
    5.7505193455833910E+00 
    1.1878871177817301E+01 
    1.1955180053349322E+01 
    1.1999248978594219E+01 
    4.7068511426611233E+00 