# vtk DataFile Version 2.0
Pressure Field Data 
ASCII 
DATASET UNSTRUCTURED_GRID 

POINTS 2860 double 

    0.0000000000000000E+00     0.0000000000000000E+00     0.0000000000000000E+00 
    1.0000000000000000E+00     0.0000000000000000E+00     0.0000000000000000E+00 
    1.0000000000000000E+00     1.0000000000000000E+00     0.0000000000000000E+00 
    0.0000000000000000E+00     1.0000000000000000E+00     0.0000000000000000E+00 
    2.5000000000000000E-01     2.5000000000000000E-01     0.0000000000000000E+00 
    7.5000000000000000E-01     2.5000000000000000E-01     0.0000000000000000E+00 
    7.5000000000000000E-01     7.5000000000000000E-01     0.0000000000000000E+00 
    2.5000000000000000E-01     7.5000000000000000E-01     0.0000000000000000E+00 
    3.1249999999942091E-02     0.0000000000000000E+00     0.0000000000000000E+00 
    6.2499999999873469E-02     0.0000000000000000E+00     0.0000000000000000E+00 
    9.3749999999826514E-02     0.0000000000000000E+00     0.0000000000000000E+00 
    1.2499999999977961E-01     0.0000000000000000E+00     0.0000000000000000E+00 
    1.5624999999968961E-01     0.0000000000000000E+00     0.0000000000000000E+00 
    1.8749999999959971E-01     0.0000000000000000E+00     0.0000000000000000E+00 
    2.1874999999950970E-01     0.0000000000000000E+00     0.0000000000000000E+00 
    2.4999999999941969E-01     0.0000000000000000E+00     0.0000000000000000E+00 
    2.8124999999932920E-01     0.0000000000000000E+00     0.0000000000000000E+00 
    3.1249999999923850E-01     0.0000000000000000E+00     0.0000000000000000E+00 
    3.4374999999914790E-01     0.0000000000000000E+00     0.0000000000000000E+00 
    3.7499999999905720E-01     0.0000000000000000E+00     0.0000000000000000E+00 
    4.0624999999896660E-01     0.0000000000000000E+00     0.0000000000000000E+00 
    4.3749999999887590E-01     0.0000000000000000E+00     0.0000000000000000E+00 
    4.6874999999878530E-01     0.0000000000000000E+00     0.0000000000000000E+00 
    4.9999999999869471E-01     0.0000000000000000E+00     0.0000000000000000E+00 
    5.3124999999877620E-01     0.0000000000000000E+00     0.0000000000000000E+00 
    5.6249999999885780E-01     0.0000000000000000E+00     0.0000000000000000E+00 
    5.9374999999893940E-01     0.0000000000000000E+00     0.0000000000000000E+00 
    6.2499999999902101E-01     0.0000000000000000E+00     0.0000000000000000E+00 
    6.5624999999910261E-01     0.0000000000000000E+00     0.0000000000000000E+00 
    6.8749999999918421E-01     0.0000000000000000E+00     0.0000000000000000E+00 
    7.1874999999926570E-01     0.0000000000000000E+00     0.0000000000000000E+00 
    7.4999999999934730E-01     0.0000000000000000E+00     0.0000000000000000E+00 
    7.8124999999942890E-01     0.0000000000000000E+00     0.0000000000000000E+00 
    8.1249999999951039E-01     0.0000000000000000E+00     0.0000000000000000E+00 
    8.4374999999959199E-01     0.0000000000000000E+00     0.0000000000000000E+00 
    8.7499999999967359E-01     0.0000000000000000E+00     0.0000000000000000E+00 
    9.0624999999975520E-01     0.0000000000000000E+00     0.0000000000000000E+00 
    9.3749999999983680E-01     0.0000000000000000E+00     0.0000000000000000E+00 
    9.6874999999991840E-01     0.0000000000000000E+00     0.0000000000000000E+00 
    1.0000000000000000E+00     3.1249999999942091E-02     0.0000000000000000E+00 
    1.0000000000000000E+00     6.2499999999873469E-02     0.0000000000000000E+00 
    1.0000000000000000E+00     9.3749999999826514E-02     0.0000000000000000E+00 
    1.0000000000000000E+00     1.2499999999977961E-01     0.0000000000000000E+00 
    1.0000000000000000E+00     1.5624999999968961E-01     0.0000000000000000E+00 
    1.0000000000000000E+00     1.8749999999959971E-01     0.0000000000000000E+00 
    1.0000000000000000E+00     2.1874999999950970E-01     0.0000000000000000E+00 
    1.0000000000000000E+00     2.4999999999941969E-01     0.0000000000000000E+00 
    1.0000000000000000E+00     2.8124999999932920E-01     0.0000000000000000E+00 
    1.0000000000000000E+00     3.1249999999923850E-01     0.0000000000000000E+00 
    1.0000000000000000E+00     3.4374999999914790E-01     0.0000000000000000E+00 
    1.0000000000000000E+00     3.7499999999905720E-01     0.0000000000000000E+00 
    1.0000000000000000E+00     4.0624999999896660E-01     0.0000000000000000E+00 
    1.0000000000000000E+00     4.3749999999887590E-01     0.0000000000000000E+00 
    1.0000000000000000E+00     4.6874999999878530E-01     0.0000000000000000E+00 
    1.0000000000000000E+00     4.9999999999869471E-01     0.0000000000000000E+00 
    1.0000000000000000E+00     5.3124999999877620E-01     0.0000000000000000E+00 
    1.0000000000000000E+00     5.6249999999885780E-01     0.0000000000000000E+00 
    1.0000000000000000E+00     5.9374999999893940E-01     0.0000000000000000E+00 
    1.0000000000000000E+00     6.2499999999902101E-01     0.0000000000000000E+00 
    1.0000000000000000E+00     6.5624999999910261E-01     0.0000000000000000E+00 
    1.0000000000000000E+00     6.8749999999918421E-01     0.0000000000000000E+00 
    1.0000000000000000E+00     7.1874999999926570E-01     0.0000000000000000E+00 
    1.0000000000000000E+00     7.4999999999934730E-01     0.0000000000000000E+00 
    1.0000000000000000E+00     7.8124999999942890E-01     0.0000000000000000E+00 
    1.0000000000000000E+00     8.1249999999951039E-01     0.0000000000000000E+00 
    1.0000000000000000E+00     8.4374999999959199E-01     0.0000000000000000E+00 
    1.0000000000000000E+00     8.7499999999967359E-01     0.0000000000000000E+00 
    1.0000000000000000E+00     9.0624999999975520E-01     0.0000000000000000E+00 
    1.0000000000000000E+00     9.3749999999983680E-01     0.0000000000000000E+00 
    1.0000000000000000E+00     9.6874999999991840E-01     0.0000000000000000E+00 
    9.6875000000003686E-01     1.0000000000000000E+00     0.0000000000000000E+00 
    9.3750000000011691E-01     1.0000000000000000E+00     0.0000000000000000E+00 
    9.0625000000015765E-01     1.0000000000000000E+00     0.0000000000000000E+00 
    8.7500000000017863E-01     1.0000000000000000E+00     0.0000000000000000E+00 
    8.4375000000028044E-01     1.0000000000000000E+00     0.0000000000000000E+00 
    8.1250000000040856E-01     1.0000000000000000E+00     0.0000000000000000E+00 
    7.8125000000054956E-01     1.0000000000000000E+00     0.0000000000000000E+00 
    7.5000000000066480E-01     1.0000000000000000E+00     0.0000000000000000E+00 
    7.1875000000086831E-01     1.0000000000000000E+00     0.0000000000000000E+00 
    6.8750000000102829E-01     1.0000000000000000E+00     0.0000000000000000E+00 
    6.5625000000114431E-01     1.0000000000000000E+00     0.0000000000000000E+00 
    6.2500000000129829E-01     1.0000000000000000E+00     0.0000000000000000E+00 
    5.9375000000147926E-01     1.0000000000000000E+00     0.0000000000000000E+00 
    5.6250000000168354E-01     1.0000000000000000E+00     0.0000000000000000E+00 
    5.3125000000188671E-01     1.0000000000000000E+00     0.0000000000000000E+00 
    5.0000000000205835E-01     1.0000000000000000E+00     0.0000000000000000E+00 
    4.6875000000192979E-01     1.0000000000000000E+00     0.0000000000000000E+00 
    4.3750000000180111E-01     1.0000000000000000E+00     0.0000000000000000E+00 
    4.0625000000167238E-01     1.0000000000000000E+00     0.0000000000000000E+00 
    3.7500000000154382E-01     1.0000000000000000E+00     0.0000000000000000E+00 
    3.4375000000141509E-01     1.0000000000000000E+00     0.0000000000000000E+00 
    3.1250000000128642E-01     1.0000000000000000E+00     0.0000000000000000E+00 
    2.8125000000115769E-01     1.0000000000000000E+00     0.0000000000000000E+00 
    2.5000000000102918E-01     1.0000000000000000E+00     0.0000000000000000E+00 
    2.1875000000090050E-01     1.0000000000000000E+00     0.0000000000000000E+00 
    1.8750000000077180E-01     1.0000000000000000E+00     0.0000000000000000E+00 
    1.5625000000064329E-01     1.0000000000000000E+00     0.0000000000000000E+00 
    1.2500000000051459E-01     1.0000000000000000E+00     0.0000000000000000E+00 
    9.3750000000385914E-02     1.0000000000000000E+00     0.0000000000000000E+00 
    6.2500000000257239E-02     1.0000000000000000E+00     0.0000000000000000E+00 
    3.1250000000128557E-02     1.0000000000000000E+00     0.0000000000000000E+00 
    0.0000000000000000E+00     9.6875000000003686E-01     0.0000000000000000E+00 
    0.0000000000000000E+00     9.3750000000011691E-01     0.0000000000000000E+00 
    0.0000000000000000E+00     9.0625000000015765E-01     0.0000000000000000E+00 
    0.0000000000000000E+00     8.7500000000017863E-01     0.0000000000000000E+00 
    0.0000000000000000E+00     8.4375000000028044E-01     0.0000000000000000E+00 
    0.0000000000000000E+00     8.1250000000040856E-01     0.0000000000000000E+00 
    0.0000000000000000E+00     7.8125000000054956E-01     0.0000000000000000E+00 
    0.0000000000000000E+00     7.5000000000066480E-01     0.0000000000000000E+00 
    0.0000000000000000E+00     7.1875000000086831E-01     0.0000000000000000E+00 
    0.0000000000000000E+00     6.8750000000102829E-01     0.0000000000000000E+00 
    0.0000000000000000E+00     6.5625000000114431E-01     0.0000000000000000E+00 
    0.0000000000000000E+00     6.2500000000129829E-01     0.0000000000000000E+00 
    0.0000000000000000E+00     5.9375000000147926E-01     0.0000000000000000E+00 
    0.0000000000000000E+00     5.6250000000168354E-01     0.0000000000000000E+00 
    0.0000000000000000E+00     5.3125000000188671E-01     0.0000000000000000E+00 
    0.0000000000000000E+00     5.0000000000205835E-01     0.0000000000000000E+00 
    0.0000000000000000E+00     4.6875000000192979E-01     0.0000000000000000E+00 
    0.0000000000000000E+00     4.3750000000180111E-01     0.0000000000000000E+00 
    0.0000000000000000E+00     4.0625000000167238E-01     0.0000000000000000E+00 
[...]
CELL_DATA 2795 
SCALARS Pressure double 1 
LOOKUP_TABLE default 

    5.9027993151545592E+00 
    1.3565169767942681E+01 
    9.5685654808965488E+00 
    9.1721016415987524E+00 
    7.2727168511625528E+00 
    1.3444600020802323E+01 
    1.4136040055136981E+01 
    5.2660253958975707E+00 
    1.0124257754978405E+01 
    7.7321676797996970E+00 
    6.5887574198750176E+00 
    1.3201684087948589E+01 
    1.3474728076537120E+01 
    1.3415208090129246E+01 
    8.8282770263139536E+00 
    5.1776381963030325E+00 
    8.4282632227948717E+00 
    7.0192444946788006E+00 
    1.2858517450581353E+01 
    9.5589405532957326E+00 
    9.4528681021974954E+00 
    1.3353480751339596E+01 
    8.9173667527273359E+00 
    3.4605516181380386E-01 
    1.3192537572906859E+01 
    1.3447930624677676E+01 
    1.4166107080856246E+01 
    6.3330917622298024E+00 
    1.3126218872296013E+01 
    1.4161454196169721E+01 
    9.6106036978215226E+00 
    9.7830380589009476E+00 
    6.8444345130857442E+00 
    9.5305575095120911E+00 
    3.0515955930224767E+00 
    8.4335460378739739E+00 
    9.5203125532424551E+00 
    1.4199864266722848E+01 
    1.4114316924351485E+01 
    1.3213943271662068E+01 
    7.2058790035779507E+00 
    1.3168031443275591E+01 
    7.2055114740359427E-01 
    9.4107551101033842E+00 
    1.3934534960572122E+01 
    1.3776395391865453E+01 
    1.3191509467559797E+01 
    1.0456659093151819E+01 
    1.3259974945774248E+01 
    8.6256912898300673E+00 
    8.2120702845836586E+00 
    9.7497303654704908E+00 
    9.3017055619366911E+00 
    8.4776156350775054E+00 
    9.6789099660057953E+00 
    1.2659981860517334E+01 
    1.1414260048798889E+01 
    7.3124552868686310E+00 
    1.3357368159297828E+01 
    1.3284472721215945E+01 
    9.1715241479286433E+00 
    9.2006367345370084E+00 
    9.0787231789755776E+00 
    1.4067695848483526E+01 
    1.4308870187775641E+01 
    8.4379787506128494E+00 
    9.7477575514570294E+00 
    1.3103934857749366E+01 
    1.1213247937332008E+01 
    9.2415621033352249E+00 
    1.4319392111117827E+01 
    1.3297772569509215E+01 
    8.3187469468002053E+00 
    1.3871690437130608E+01 
    9.9112605678854493E+00 
    1.3051855212328149E+01 
    1.4209784568640190E+01 
    9.9160526891704563E+00 
    6.0226814297612465E+00 
    9.7670933194625338E+00 
    1.4122697034393527E+01 
    1.4349148814557436E+01 
    8.4501154527206239E+00 
    9.6792875625808108E+00 
    1.4390814692675383E+01 
    9.5235665404048451E+00 
    8.9992944486005371E+00 
    1.1607219057555609E+01 
    5.7412932315867078E+00 
    8.2340201331736349E+00 
    9.6789802067026525E+00 
    1.0264357115098036E+01 
    1.5821935731517360E+01 
    7.0654359301067799E+00 
    9.7560824918858664E+00 
    1.3170515348258569E+01 
    1.3428365702097581E+01 
    6.2118865325063410E+00 
    9.3965811661748848E+00 
    9.7089582104611409E+00 
    1.3447873075340883E+01 
    9.7111816863327647E+00 
    1.3382882477292927E+01 
    3.7696197017476432E+00 
    6.4051239372869970E+00 
    9.9859233939605385E+00 
    1.3573299551984993E+01 
    8.3997443725645784E+00 
    8.9613333996556221E+00 
    9.6968141716151308E+00 
    8.9674730199711554E+00 
    1.1032189543116051E+01 
    8.7116751398791763E+00 
    8.3263949718185977E+00 
    6.5400361081542702E+00 
    1.1351286688871248E+01 
    9.7828511203359341E+00 
    1.3983316667537151E+01 
    8.3947295914811662E+00 
    9.1554598170273458E+00 
    1.3286777880271632E+01 
    7.6175502520800213E+00 
    1.3714924417897222E+01 
    9.6012180405270460E+00 
    9.0869475403285112E+00 
    1.3430354048553980E+01 
    9.7810136554706659E+00 
    1.4219432512298685E+01 
    1.1618328444760193E+01 
    1.2516668594649078E+01 
    1.4182189732022916E+01 
    7.0799253981248516E+00 
    1.0007526168060313E+01 
    1.3432104943005255E+01 
    2.8258567936531569E+00 
    9.6578646889742963E+00 
    1.4150021482102170E+01 
    9.1155375765524855E+00 
    1.0542655002039520E+01 
    6.1629149769251610E+00 
    1.3168939201403687E+01 
    1.6306704704129789E+01 
    1.2062905602217414E+01 
    9.1135880517234895E+00 
    8.1384552370102394E+00 
    1.0349334376550736E+01 
    9.6182386437954950E+00 
    6.6589831904213668E+00 
    1.4178148939028627E+01 
    1.3521777185179742E+01 
    1.3172131350890689E+01 
    1.0263779202011836E+01 
    8.2900932440950363E+00 
    9.4516466245109818E+00 
    1.3898084663714886E+01 
    8.5321797232881256E+00 
    9.5650803048195030E+00 
    8.6902794956716871E+00 
    1.1104100331826533E+01 
    1.6295056194986408E+01 
    1.3164107599720678E+01 
    8.2442791713760606E+00 
    1.3614604130674856E+01 
    1.3534068785234478E+01 
    1.3610938600499574E+01 
    1.4583694894382161E+01 
    1.5112755193802938E+01 
    1.3774547318581945E+01 
    9.7389337472556559E+00 
    1.0419095928064863E+01 
    1.3608224048063400E+01 
    1.3994123089391442E+01 
    6.9524883794359562E+00 
    1.3191136301643192E+01 
    1.3861652275667812E+01 
    6.7685729952263323E+00 
    1.4501635299696105E+01 
    1.4486483804481139E+01 
    1.2924790349974019E+01 
    1.0070792830326873E+01 
    2.4825227842156283E+00 
    1.4150565686136654E+01 
    9.9266314199444459E+00 
    1.4267649395636028E+01 
    9.0490954340713472E+00 
    1.3992594694607188E+01 
    8.8236333665302813E-01 
    1.2534465667710812E+01 
    9.2442205688593706E+00 
    8.2519190657122845E+00 
    8.0390838260211979E+00 
    9.5713256079605262E+00 
    1.0702354548753108E+01 
    9.9422534929418891E+00 
    6.6389913908238913E+00 
    1.3989502178690406E+01 
    1.3455661500930024E+01 
    1.1333957452131171E+01 
    9.9797330641684265E+00 
    1.4441659237319864E+00 
    7.4105658746922600E+00 
    5.1166637823654870E+00 
    1.4172181492612768E+01 
    1.0861005001630351E+01 
    1.3508423096869468E+01 
    1.3518972297268276E+01 
    8.6070627104060353E+00 
    1.1379812163622152E+01 
    1.3167917724196187E+01 
    1.4468986010991465E+01 
    6.1387635953261270E+00 
    1.1887480999133899E+01 
    9.9753046266637657E+00 
    5.4599842664981457E+00 
    8.6003234523417849E+00 
    1.1885290493421861E+01 
    1.3482534698855281E+01 
    9.6262721724881093E+00 
    1.3589185195695134E+01 
    1.3363219388658447E+01 
    1.3314649912197519E+01 
    9.4582234965295893E+00 
    8.1941099500585022E+00 
    1.3179700131611852E+01 
    8.3129758826318003E+00 
    9.7155413531377519E+00 
    8.1471159749407089E+00 
    9.5107111373257265E+00 
    1.3527282702221729E+01 
    6.0214517094170885E+00 
    8.5130430354510942E+00 
    1.4088428138186867E+01 
    9.4713469632847218E+00 
    1.0751105369271070E+01 
    6.1788681869904352E+00 
    8.3746709322951389E+00 
    1.3342171569883497E+01 
    1.3642933793985547E+01 
    5.0320667362740252E+00 
    9.4752417494712837E+00 
    8.1853791986735089E+00 
    1.4882723699288482E+01 
    1.4356551757046212E+01 
    1.5139011591479836E+01 
    9.4955440384880916E+00 
    1.3502116885074669E+01 
    1.3127259085331051E+01 
    9.3713944387547965E+00 
    1.3172476494888375E+01 
    9.9810336917587392E+00 
    5.5310597127563383E+00 
    9.7151412097105805E+00 
    1.4075593145266058E+01 
    1.3169432357222920E+01 
    6.5544010217951953E+00 
    1.3197778443179915E+01 
    1.0701420009807130E+01 
    9.6390624379596215E+00 
    9.1901369859124795E+00 
    1.3042667253184067E+01 
    1.0187247527285299E+01 
    1.3184855018780615E+01 
    9.3506880139417881E+00 
    5.7325189193404222E+00 
    9.7847047856347054E+00 
    8.0483456531160211E+00 
    1.2064427839193499E+01 
    1.4266141407933871E+01 
    1.3178189788044724E+01 
    1.4143714634221363E+01 
    9.4210076811340357E+00 
    6.3812731575158619E+00 
    6.4728038996299624E+00 
    9.8241261966579252E+00 
    9.6923594171031535E+00 
    1.3719896377915506E+00 
    1.2708150915319855E+01 
    1.4609645603569852E+01 
    9.0615524233777247E+00 
    5.7654979674832161E+00 
    1.1063459930648053E+01 
    1.3196433992956701E+01 
    6.8461594071342118E+00 
    4.6319857184288118E+00 
    9.6673938053901054E+00 
    1.3284533635650373E+01 
    1.3897143597091627E+01 
    1.3791421034222266E+01 
    1.3646784542664186E+01 
    6.6801067411522057E+00 
    9.6324517333684287E+00 
    1.2731764768015637E+01 
    7.5901178777787912E+00 
    1.3462298329926158E+01 
    1.1601349779124453E+01 
    6.5726273089157594E+00 
    1.3301040611029762E+01 
    1.4173370901455678E+01 
    1.3307117111511367E+01 
    6.5905312942644114E+00 
    9.7436827157269015E+00 
    7.2480802007640834E+00 
    9.1929149531362544E+00 
    1.3188206341000221E+01 
    1.3176873143668093E+01 
    6.6291377371290983E+00 
    1.4030747845509742E+01 
    1.0281915096668993E+01 
    1.3211051108801396E+01 
    1.3999545447165319E+01 
    1.3197111023504267E+01 
    1.2297814242029274E+01 
    1.4935104801125041E+01 
    9.0208481657290402E+00 
    1.4114304593660632E+01 
    1.3241070635835239E+01 
    1.4184199700524230E+01 
    1.4024180238482492E+01 
    9.1172580794874634E+00 
    9.5609276546107846E+00 
    9.0522141669356522E+00 
    1.1827488571407541E+01 
    3.7810736387689627E+00 
    9.7577904617790114E+00 
    1.5059282322971876E+01 
    9.9815355312587659E+00 
    1.0162621987884894E+01 
    1.4158112632320439E+01 
    1.4383175722944680E+01 
    8.9610306341840857E+00 
    1.3201936630557046E+01 
    1.3173207354017487E+01 
    1.0150691497076286E+01 
    1.3980821860520438E+01 
    6.9053471410571428E+00 
    4.3777784501900499E+00 
    1.0421707465334562E+01 
    9.9959848174077557E+00 
    1.3179083376203886E+01 
    6.1946394907475693E+00 
    1.3709775159221458E+01 
    4.4565839457546153E+00 
    9.9286415591184873E+00 
    9.1589529781141135E+00 
    9.7189892787538490E+00 
    1.6346205070829736E+01 
    3.6744828705179109E+00 
    9.6752878273934453E+00 
    1.1543272011478580E+01 
    9.3258501726977752E+00 
    7.3054310534428195E+00 
    1.3819881706413284E+01 
    1.5907988492798681E+01 
    1.3962303950348733E+01 
    9.6167377200988788E+00 
    5.4308766373967279E+00 
    1.5763868595838149E+01 
    1.3444605010169637E+01 
    6.9999964821810678E+00 
    9.2552028388685255E+00 
    1.4568065651909444E+01 
    3.1241999770987765E+00 
    1.0044304329896859E+01 
    1.3928662846806104E+01 
    9.7325349169642372E+00 
    8.4753139436887821E+00 
    9.7147088673390680E+00 
    1.2944881844838246E+01 
    9.7123935255868687E+00 
    4.8345235543666831E+00 
    8.5333926848690478E-01 
    7.2368016701869822E+00 
    1.4779433012174966E+01 
    9.0516553031847522E+00 
    1.1053859983871702E+01 
    1.0510446807148133E+01 
    1.2136508058321848E+01 
    9.7465216975634750E+00 
    1.3356674089631387E+01 
    1.6360397161586793E+01 
    1.1517629470774873E+01 
    1.4087911065766383E+01 
    5.1394794449228420E-01 
    1.3178812389661189E+01 
    5.3507865240206742E+00 
    1.5225669455036680E+01 
    9.6888503927419816E+00 
    8.6089789650234962E+00 
    7.3941532941346129E+00 
    5.0724990440551023E+00 
    1.0881464496316104E+01 
    7.6668083314509978E+00 
    1.1962707866116231E+01 
    2.0762866208593627E+00 
    1.0733424540160120E+01 
    1.3114719424126115E+01 
    5.8716836544636219E+00 
    1.3652952554693824E+01 
    1.5031364726742414E+01 
    1.3503613977552064E+01 
    9.5568693377945468E+00 
    9.7140157308571702E+00 
    9.6815641901296683E+00 
    5.5021175593834677E+00 
    8.7953966803833801E+00 
    8.6449387383052336E+00 
    9.6707013908246644E+00 
    8.9859380798048090E+00 
    6.4918706082374922E-01 
    6.1470270225305903E+00 
    9.3676014735347515E+00 
    9.6461395738454119E+00 
    1.2293037560381610E+01 
    2.0563312564806040E+00 
    1.0111891210230027E+01 
    1.0000553485644595E+01 
    3.5331747455881630E+00 
    1.3375581768537245E+01 
    8.3325124273984130E+00 
    9.8548662598579977E+00 
    1.3440798644856615E+01 
    5.0940503564918247E+00 
    1.3490526799225963E+01 
    8.4437355814735433E+00 
    9.4405022444497089E-01 
    9.1115974420890460E+00 
    1.4042204362389779E+01 
    1.3178729130720393E+01 
    1.3197005250238275E+01 
    1.0033459560385221E+01 
    9.9333121551143435E+00 
    8.3126294760263875E+00 
    6.6755333935770986E+00 
    1.3546236180784341E+01 
    9.2530977634595448E+00 
    6.5088722756994581E+00 
    1.3192494994520299E+01 
    1.3858020512898278E+01 
    9.8546444931498591E+00 
    9.5172587194182299E+00 
    1.6240913458947581E+01 
    1.0151517533261917E+01 
    1.3564296494338473E+01 
    7.8916371851162239E+00 
    1.6388981632738027E+01 
    6.4349165013390959E+00 
    8.7142337393770006E+00 
    7.2161905891106990E+00 
    1.0372640111058285E+01 
    8.2653656902361270E+00 
    1.6372561356187255E+01 
    1.0197537553603121E+01 
    1.2884990880193964E+01 
    6.6201117075792233E+00 
    9.7439517820721822E+00 
    1.3412247789956943E+01 
    8.2961191303977824E+00 
    6.9385538193006520E+00 
    1.0731216202630730E+01 
    1.3635496612017119E+01 
    7.1033824804647798E+00 
    9.1785896073860780E+00 
    9.5449989257224122E+00 
    1.3155182249436852E+01 
    9.3523610055560447E+00 
    1.3609146483387004E+01 
    1.4212273048432230E+01 
    8.3383705624445632E+00 
    8.1679651368861297E+00 
    7.7037963608673481E+00 
    1.3291520332279287E+01 
    1.0011086726519217E+01 
    1.5947158188631649E+01 
    1.2505523307864305E+01 
    1.3372396055414224E+01 
    1.5638977816667945E+01 
    1.5039092950860292E+01 
    9.7927603812410258E+00 
    9.6558287602823256E+00 
    1.2955694835183728E+01 
    1.3215147131747427E+01 
    1.3713801947365928E+01 
    1.3464115052556725E+01 
    1.6260999034760228E+01 
    1.0151074753111315E+01 
    8.4367422499083151E+00 
    1.0147882902067948E+01 
    1.4128383349034616E+01 
    9.8992177613529435E+00 
    5.7295073003858414E+00 
    9.5411160061389051E+00 
    1.4535054469684351E+01 
    1.0035285495920945E+01 
    8.4467460704991648E+00 
    9.4864761625975280E+00 
    1.4643591998587462E+01 
    1.3222495401779128E+01 
    8.0054332237613401E+00 
    1.4777418873880160E+01 
    9.8263430732492516E+00 
    1.3709518480175015E+01 
    1.4656655561213277E+01 
    1.0284536051844809E+01 
    5.0978279939128068E+00 
    1.0699517727201526E+01 
    5.2764108185768031E+00 
    9.9505756939005501E+00 
    9.7333602735703710E+00 
    1.1265005521328050E+01 
    5.5806643181579192E+00 
    1.1957903755406702E+01 
    9.7565647648202845E+00 
    1.3454769580479322E+01 
    1.0259120753406462E+01 
    7.8104633921355671E+00 
    9.3661552856360739E+00 
    1.0215239960668109E+01 
    1.0251417522281173E+01 
    1.4255061720486832E+01 
    8.0523638705040632E+00 
    7.9120936734142973E+00 
    5.8729525957981581E+00 
    1.3737209398057363E+01 
    9.4053278496788071E+00 
    1.3023689126836338E+01 
    9.7031967404736008E+00 
    6.4316850778200978E+00 
    1.3249933123081529E+01 
    9.6784143776184433E+00 
    7.0239797115981180E+00 
    7.4506000063872637E+00 
    7.7203672570122199E+00 
    1.3483699431291438E+01 
    9.6726551505969063E+00 
    1.4098894685150718E+01 
    9.6367739914465904E+00 
    9.5746651826572151E+00 
    9.0984508802924573E+00 
    1.3329401800585041E+01 
    9.4926257211512919E+00 
    7.7604050724664848E+00 
    1.5027056581393913E+01 
    1.3406714799716170E+01 
    6.7446187627695071E+00 
    2.5939496303065330E+00 
    9.6622287954011021E+00 
    9.1045288791605330E+00 
    8.1610253548393583E+00 
    8.9069956394551841E+00 
    1.3374220972178069E+01 
    9.3766703026368177E+00 
    8.4906321297759497E+00 
    1.3236137441652366E+01 
    6.6837082355022526E+00 
    1.2917163823251544E+01 
    8.7981627618632405E+00 
    7.6914450135452022E+00 
    8.2413894203926539E+00 
    1.3791793094195002E+01 
    9.7222572760828072E+00 
    9.7305440544357928E+00 
    5.6630918814434859E+00 
    6.1296898005403779E+00 
    1.2280413124728454E+01 
    9.7411405774449022E+00 
    9.7016890436974368E+00 
    1.4762846961982074E+01 
    7.9149774490939926E+00 
    9.7545780057554090E+00 
    6.9134195700409427E+00 
    7.1320480753969440E+00 
    1.3322720141344101E+01 
    9.3837078994129755E+00 
    6.7692332724384023E+00 
    1.0271988731167648E+01 
    9.6209101505842796E+00 
    1.3325687540433618E+01 
    1.4854335075613562E+01 
    9.9457523974316764E-01 
    9.6670430686621831E+00 
    9.9942478328110216E+00 
    1.3387526433831569E+01 
    9.1832138054645096E+00 
    9.6962182297988839E+00 
    1.4305591145032841E+01 
    8.2762394957565650E+00 
    6.8305679651075630E+00 
    1.1787935507066916E+01 
    1.3191971044588037E+01 
    1.4183086048350184E+01 
    1.4446252150174443E+01 
    9.5122454368447027E+00 
    9.6588014941105840E+00 
    1.0948479686676649E+01 
    6.4054737986330119E+00 
    1.3314833778479603E+01 
    7.3685167547439860E+00 
    6.6737539293611885E+00 
    1.2208771801305591E+01 
    1.1482385641601343E+01 
    6.5437661976688810E+00 
    1.3226538562070481E+01 
    1.4169367385650569E+01 
    1.0166212908475540E+01 
    1.4954272021159962E+01 
    1.3258049881270008E+01 
    9.2501918679677040E+00 
    1.3915827027971126E+01 
    7.1367637217684807E+00 
    1.3209790760379144E+01 
    9.6660363578656767E+00 
    9.6278176732737979E+00 
    1.4929687501601402E+01 
    9.4376322047140064E+00 
    1.1932411445148739E+01 
    8.2261335007931962E+00 
    1.4284077513555349E+01 
    1.3120461880807740E+01 
    8.5889131257788396E+00 
    1.3168565074594829E+01 
    8.8119405477197308E+00 
    9.7062735239577655E+00 
    1.4130216647434638E+01 
    1.3458546855024929E+01 
    1.4172497938911276E+01 
    1.3390599799854243E+01 
    8.8010082192021226E+00 
    9.0137369108566858E+00 
    1.4179124235180444E+01 
    9.1356246019869296E+00 
    1.3055840175235510E+01 
    9.4280632334228009E+00 
    3.8123589423524953E+00 
    6.7449140150382432E+00 
    6.2421520427948822E+00 
    1.4133631166129822E+01 
    1.4860420045652630E+01 
    1.3186093701167113E+01 
    1.1267834016547850E+01 
    1.3462432461898471E+01 
    1.3233669699237131E+01 
    1.3796189446399488E+01 
    5.4670616582047007E+00 
    3.5540124888752853E+00 
    1.1067653152134458E+01 
    9.3403853954559573E+00 
    1.3375676164496918E+01 
    1.3373258631830268E+01 
    1.0014888997682617E+01 
    1.3408997761275849E+01 
    9.6532546731109328E+00 
    9.5796467534399223E+00 
    4.9314363514259236E+00 
    3.5402621372107905E+00 
    1.4640630721967476E+01 
    7.5781198491141293E+00 
    8.5322689681428425E+00 
    9.9075928943746554E+00 
    1.6242392535743804E+01 
    1.0003639708577698E+01 
    9.9879373811148007E+00 
    4.0286391060950386E+00 
    1.0004695258392177E+01 
    1.0018368152208504E+01 
    1.3682800849897655E+01 
    8.2462603325835300E+00 
    9.2926951781623242E+00 
    1.4805619999917266E+01 
    9.6752036413505635E+00 
    1.3201557831767371E+01 
    1.3451801817005393E+01 
    1.2010464759428507E+01 
    8.2334334874524888E+00 
    1.3390068731881801E+01 
    9.4732904569201430E+00 
    1.3391892541350799E+01 
    1.3142095003460836E+01 
    1.4152202011579016E+01 
    1.3388790369661178E+01 
    1.2577170330395509E+01 
    9.6641722356025834E+00 
    6.4933426797558775E+00 
    1.6115951793194284E+01 
    7.5203275557263005E+00 
    1.4084749093871331E+01 
    9.6616302414014896E+00 
    7.9556490926957402E+00 
    4.7614937265318797E+00 
    1.0053031712661221E+01 
    1.3377535832710226E+01 
    1.3373705105575674E+01 
    9.6869804496937419E+00 
    9.6559102477143952E+00 
    1.5009474762546549E+01 
    1.4390462268142770E+01 
    1.0021519012615906E+01 
    3.3070422235232959E+00 
    1.2539300895415305E+01 
    1.6370281157744309E+01 
    9.6674306033389161E+00 
    1.1633627989117480E+01 
    9.1807944928434519E+00 
    1.5973761222453847E+01 
    1.4467855535152434E+01 
    1.4208930385056952E+01 
    1.0042319213510416E+01 
    4.4398587373029557E+00 
    9.1389934401137456E+00 
    9.2058201038813454E+00 
    9.2478195230857825E+00 
    3.5998558067999187E+00 