# vtk DataFile Version 2.0
Pressure Field Data 
ASCII 
DATASET UNSTRUCTURED_GRID 

POINTS 2860 double 

    0.0000000000000000E+00     0.0000000000000000E+00     0.0000000000000000E+00 
    1.0000000000000000E+00     0.0000000000000000E+00     0.0000000000000000E+00 
    1.0000000000000000E+00     1.0000000000000000E+00     0.0000000000000000E+00 
    0.0000000000000000E+00     1.0000000000000000E+00     0.0000000000000000E+00 
    2.5000000000000000E-01     2.5000000000000000E-01     0.0000000000000000E+00 
    7.5000000000000000E-01     2.5000000000000000E-01     0.0000000000000000E+00 
    7.5000000000000000E-01     7.5000000000000000E-01     0.0000000000000000E+00 
    2.5000000000000000E-01     7.5000000000000000E-01     0.0000000000000000E+00 
    3.1249999999942091E-02     0.0000000000000000E+00     0.0000000000000000E+00 
    6.2499999999873469E-02     0.0000000000000000E+00     0.0000000000000000E+00 
    9.3749999999826514E-02     0.0000000000000000E+00     0.0000000000000000E+00 
    1.2499999999977961E-01     0.0000000000000000E+00     0.0000000000000000E+00 
    1.5624999999968961E-01     0.0000000000000000E+00     0.0000000000000000E+00 
    1.8749999999959971E-01     0.0000000000000000E+00     0.0000000000000000E+00 
    2.1874999999950970E-01     0.0000000000000000E+00     0.0000000000000000E+00 
    2.4999999999941969E-01     0.0000000000000000E+00     0.0000000000000000E+00 
    2.8124999999932920E-01     0.0000000000000000E+00     0.0000000000000000E+00 
    3.1249999999923850E-01     0.0000000000000000E+00     0.0000000000000000E+00 
    3.4374999999914790E-01     0.0000000000000000E+00     0.0000000000000000E+00 
    3.7499999999905720E-01     0.0000000000000000E+00     0.0000000000000000E+00 
    4.0624999999896660E-01     0.0000000000000000E+00     0.0000000000000000E+00 
    4.3749999999887590E-01     0.0000000000000000E+00     0.0000000000000000E+00 
    4.6874999999878530E-01     0.0000000000000000E+00     0.0000000000000000E+00 
    4.9999999999869471E-01     0.0000000000000000E+00     0.0000000000000000E+00 
    5.3124999999877620E-01     0.0000000000000000E+00     0.0000000000000000E+00 
    5.6249999999885780E-01     0.0000000000000000E+00     0.0000000000000000E+00 
    5.9374999999893940E-01     0.0000000000000000E+00     0.0000000000000000E+00 
    6.2499999999902101E-01     0.0000000000000000E+00     0.0000000000000000E+00 
    6.5624999999910261E-01     0.0000000000000000E+00     0.0000000000000000E+00 
    6.8749999999918421E-01     0.0000000000000000E+00     0.0000000000000000E+00 
    7.1874999999926570E-01     0.0000000000000000E+00     0.0000000000000000E+00 
    7.4999999999934730E-01     0.0000000000000000E+00     0.0000000000000000E+00 
    7.8124999999942890E-01     0.0000000000000000E+00     0.0000000000000000E+00 
    8.1249999999951039E-01     0.0000000000000000E+00     0.0000000000000000E+00 
    8.4374999999959199E-01     0.0000000000000000E+00     0.0000000000000000E+00 
    8.7499999999967359E-01     0.0000000000000000E+00     0.0000000000000000E+00 
    9.0624999999975520E-01     0.0000000000000000E+00     0.0000000000000000E+00 
    9.3749999999983680E-01     0.0000000000000000E+00     0.0000000000000000E+00 
    9.6874999999991840E-01     0.0000000000000000E+00     0.0000000000000000E+00 
    1.0000000000000000E+00     3.1249999999942091E-02     0.0000000000000000E+00 
    1.0000000000000000E+00     6.2499999999873469E-02     0.0000000000000000E+00 
    1.0000000000000000E+00     9.3749999999826514E-02     0.0000000000000000E+00 
    1.0000000000000000E+00     1.2499999999977961E-01     0.0000000000000000E+00 
    1.0000000000000000E+00     1.5624999999968961E-01     0.0000000000000000E+00 
    1.0000000000000000E+00     1.8749999999959971E-01     0.0000000000000000E+00 
    1.0000000000000000E+00     2.1874999999950970E-01     0.0000000000000000E+00 
    1.0000000000000000E+00     2.4999999999941969E-01     0.0000000000000000E+00 
    1.0000000000000000E+00     2.8124999999932920E-01     0.0000000000000000E+00 
    1.0000000000000000E+00     3.1249999999923850E-01     0.0000000000000000E+00 
    1.0000000000000000E+00     3.4374999999914790E-01     0.0000000000000000E+00 
    1.0000000000000000E+00     3.7499999999905720E-01     0.0000000000000000E+00 
    1.0000000000000000E+00     4.0624999999896660E-01     0.0000000000000000E+00 
    1.0000000000000000E+00     4.3749999999887590E-01     0.0000000000000000E+00 
    1.0000000000000000E+00     4.6874999999878530E-01     0.0000000000000000E+00 
    1.0000000000000000E+00     4.9999999999869471E-01     0.0000000000000000E+00 
    1.0000000000000000E+00     5.3124999999877620E-01     0.0000000000000000E+00 
    1.0000000000000000E+00     5.6249999999885780E-01     0.0000000000000000E+00 
    1.0000000000000000E+00     5.9374999999893940E-01     0.0000000000000000E+00 
    1.0000000000000000E+00     6.2499999999902101E-01     0.0000000000000000E+00 
    1.0000000000000000E+00     6.5624999999910261E-01     0.0000000000000000E+00 
    1.0000000000000000E+00     6.8749999999918421E-01     0.0000000000000000E+00 
    1.0000000000000000E+00     7.1874999999926570E-01     0.0000000000000000E+00 
    1.0000000000000000E+00     7.4999999999934730E-01     0.0000000000000000E+00 
    1.0000000000000000E+00     7.8124999999942890E-01     0.0000000000000000E+00 
    1.0000000000000000E+00     8.1249999999951039E-01     0.0000000000000000E+00 
    1.0000000000000000E+00     8.4374999999959199E-01     0.0000000000000000E+00 
    1.0000000000000000E+00     8.7499999999967359E-01     0.0000000000000000E+00 
    1.0000000000000000E+00     9.0624999999975520E-01     0.0000000000000000E+00 
    1.0000000000000000E+00     9.3749999999983680E-01     0.0000000000000000E+00 
    1.0000000000000000E+00     9.6874999999991840E-01     0.0000000000000000E+00 
    9.6875000000003686E-01     1.0000000000000000E+00     0.0000000000000000E+00 
    9.3750000000011691E-01     1.0000000000000000E+00     0.0000000000000000E+00 
    9.0625000000015765E-01     1.0000000000000000E+00     0.0000000000000000E+00 
    8.7500000000017863E-01     1.0000000000000000E+00     0.0000000000000000E+00 
    8.4375000000028044E-01     1.0000000000000000E+00     0.0000000000000000E+00 
    8.1250000000040856E-01     1.0000000000000000E+00     0.0000000000000000E+00 
    7.8125000000054956E-01     1.0000000000000000E+00     0.0000000000000000E+00 
    7.5000000000066480E-01     1.0000000000000000E+00     0.0000000000000000E+00 
    7.1875000000086831E-01     1.0000000000000000E+00     0.0000000000000000E+00 
    6.8750000000102829E-01     1.0000000000000000E+00     0.0000000000000000E+00 
    6.5625000000114431E-01     1.0000000000000000E+00     0.0000000000000000E+00 
    6.2500000000129829E-01     1.0000000000000000E+00     0.0000000000000000E+00 
    5.9375000000147926E-01     1.0000000000000000E+00     0.0000000000000000E+00 
    5.6250000000168354E-01     1.0000000000000000E+00     0.0000000000000000E+00 
    5.3125000000188671E-01     1.0000000000000000E+00     0.0000000000000000E+00 
    5.0000000000205835E-01     1.0000000000000000E+00     0.0000000000000000E+00 
    4.6875000000192979E-01     1.0000000000000000E+00     0.0000000000000000E+00 
    4.3750000000180111E-01     1.0000000000000000E+00     0.0000000000000000E+00 
    4.0625000000167238E-01     1.0000000000000000E+00     0.0000000000000000E+00 
    3.7500000000154382E-01     1.0000000000000000E+00     0.0000000000000000E+00 
    3.4375000000141509E-01     1.0000000000000000E+00     0.0000000000000000E+00 
    3.1250000000128642E-01     1.0000000000000000E+00     0.0000000000000000E+00 
    2.8125000000115769E-01     1.0000000000000000E+00     0.0000000000000000E+00 
    2.5000000000102918E-01     1.0000000000000000E+00     0.0000000000000000E+00 
    2.1875000000090050E-01     1.0000000000000000E+00     0.0000000000000000E+00 
    1.8750000000077180E-01     1.0000000000000000E+00     0.0000000000000000E+00 
    1.5625000000064329E-01     1.0000000000000000E+00     0.0000000000000000E+00 
    1.2500000000051459E-01     1.0000000000000000E+00     0.0000000000000000E+00 
    9.3750000000385914E-02     1.0000000000000000E+00     0.0000000000000000E+00 
    6.2500000000257239E-02     1.0000000000000000E+00     0.0000000000000000E+00 
    3.1250000000128557E-02     1.0000000000000000E+00     0.0000000000000000E+00 
    0.0000000000000000E+00     9.6875000000003686E-01     0.0000000000000000E+00 
    0.0000000000000000E+00     9.3750000000011691E-01     0.0000000000000000E+00 
    0.0000000000000000E+00     9.0625000000015765E-01     0.0000000000000000E+00 
    0.0000000000000000E+00     8.7500000000017863E-01     0.0000000000000000E+00 
    0.0000000000000000E+00     8.4375000000028044E-01     0.0000000000000000E+00 
    0.0000000000000000E+00     8.1250000000040856E-01     0.0000000000000000E+00 
    0.0000000000000000E+00     7.8125000000054956E-01     0.0000000000000000E+00 
    0.0000000000000000E+00     7.5000000000066480E-01     0.0000000000000000E+00 
    0.0000000000000000E+00     7.1875000000086831E-01     0.0000000000000000E+00 
    0.0000000000000000E+00     6.8750000000102829E-01     0.0000000000000000E+00 
    0.0000000000000000E+00     6.5625000000114431E-01     0.0000000000000000E+00 
    0.0000000000000000E+00     6.2500000000129829E-01     0.0000000000000000E+00 
    0.0000000000000000E+00     5.9375000000147926E-01     0.0000000000000000E+00 
    0.0000000000000000E+00     5.6250000000168354E-01     0.0000000000000000E+00 
    0.0000000000000000E+00     5.3125000000188671E-01     0.0000000000000000E+00 
    0.0000000000000000E+00     5.0000000000205835E-01     0.0000000000000000E+00 
    0.0000000000000000E+00     4.6875000000192979E-01     0.0000000000000000E+00 
    0.0000000000000000E+00     4.3750000000180111E-01     0.0000000000000000E+00 
    0.0000000000000000E+00     4.0625000000167238E-01     0.0000000000000000E+00 
[...]
CELL_DATA 2795 
SCALARS Pressure double 1 
LOOKUP_TABLE default 

    8.8841365430746606E+00 
    2.0063845547247244E+01 
    1.4061110491717661E+01 
    1.3752487821466083E+01 
    1.0964439336808782E+01 
    1.9791325222659257E+01 
    2.0825220131821407E+01 
    7.9283962473491938E+00 
    1.4645296387199410E+01 
    1.1122640866968075E+01 
    9.3697256804424036E+00 
    1.9410832381814711E+01 
    1.9949791670689066E+01 
    1.9744222964021752E+01 
    1.2946132218265237E+01 
    7.7923254845736940E+00 
    1.2685759732520921E+01 
    1.0022003567270975E+01 
    1.8782085130907774E+01 
    1.4036588904938057E+01 
    1.3928410048377307E+01 
    1.9643538152553720E+01 
    1.3396287097158154E+01 
    5.3701821124603266E-01 
    1.9381938517804791E+01 
    1.9899624783062908E+01 
    2.0868376119868767E+01 
    9.0260081604667679E+00 
    1.9273009901362236E+01 
    2.0873925598026300E+01 
    1.4290922657449435E+01 
    1.4246522806102401E+01 
    9.8303594174293067E+00 
    1.4022726957469899E+01 
    4.5819673594894370E+00 
    1.2692060420605612E+01 
    1.4005233039446329E+01 
    2.0925815149085150E+01 
    2.0794000032002810E+01 
    1.9429834319677560E+01 
    1.0812412162723634E+01 
    1.9478570001030640E+01 
    1.1134409602735102E+00 
    1.4046850033158796E+01 
    2.0605164546963334E+01 
    2.0215595549625796E+01 
    1.9394776897303768E+01 
    1.5079775996388289E+01 
    1.9424884410976109E+01 
    1.2975430990597950E+01 
    1.2371050636127801E+01 
    1.4206327296042694E+01 
    1.3930161740753798E+01 
    1.2760205703223427E+01 
    1.4375970459234296E+01 
    1.8456925957946869E+01 
    1.6346883163287661E+01 
    1.1022992667492410E+01 
    1.9655995997811662E+01 
    1.9528931145651111E+01 
    1.3701074810574836E+01 
    1.3513912081504754E+01 
    1.3626698519652649E+01 
    2.0744155663614976E+01 
    2.1107062529243123E+01 
    1.2702519431557013E+01 
    1.4204163222835168E+01 
    1.9044787933842930E+01 
    1.6156995644219279E+01 
    1.3601776217733965E+01 
    2.1073837739436215E+01 
    1.9650306727332612E+01 
    1.2529495302300386E+01 
    2.0345498713144739E+01 
    1.4669350527381662E+01 
    1.9220376026530179E+01 
    2.0945969743195601E+01 
    1.4733654936366765E+01 
    8.9689424380084724E+00 
    1.4224485985842868E+01 
    2.0805828722539303E+01 
    2.1128361341631045E+01 
    1.2723483673793295E+01 
    1.4149874362929983E+01 
    2.1185408527585750E+01 
    1.4001291077807474E+01 
    1.3513492939631252E+01 
    1.6733677760886724E+01 
    8.6105466469313772E+00 
    1.2406041858480409E+01 
    1.4145500476645664E+01 
    1.4811944201328229E+01 
    2.2961861136760387E+01 
    1.0651056822423174E+01 
    1.4212897929523564E+01 
    1.9362276406264922E+01 
    1.9866528063473748E+01 
    9.3500707869863522E+00 
    1.3845242738390567E+01 
    1.4183326976160970E+01 
    1.9906329046196557E+01 
    1.4167151394840907E+01 
    1.9771511835706729E+01 
    5.6488542402616257E+00 
    9.1032808850299833E+00 
    1.4456215521579168E+01 
    2.0074061695670210E+01 
    1.2646244630836319E+01 
    1.3398039978036543E+01 
    1.4137572369679498E+01 
    1.3468827790265909E+01 
    1.5894675069160320E+01 
    1.3049481640303471E+01 
    1.2538660250514052E+01 
    9.7647220656232623E+00 
    1.6799734044301772E+01 
    1.4253068649411668E+01 
    2.0632917848773747E+01 
    1.2141911811566448E+01 
    1.3725972463195570E+01 
    1.9660212732421911E+01 
    1.1457404811229521E+01 
    2.0285970118561703E+01 
    1.4076582255090377E+01 
    1.3638607294554321E+01 
    1.9873726699767087E+01 
    1.4238318737923814E+01 
    2.0951282831448317E+01 
    1.6765918007238376E+01 
    1.8185947507503514E+01 
    2.0890964012113635E+01 
    1.0671442881567961E+01 
    1.4478658019548693E+01 
    1.9878011653232644E+01 
    4.2178927737377201E+00 
    1.4349291870872021E+01 
    2.0844922760559967E+01 
    1.3671925607723114E+01 
    1.5621983107635723E+01 
    9.2079690600133013E+00 
    1.9369025729087010E+01 
    2.3525839927652832E+01 
    1.7426850845441539E+01 
    1.3675545947933436E+01 
    1.2260949688275455E+01 
    1.5177770584215189E+01 
    1.4094740425600818E+01 
    9.4802325241356566E+00 
    2.0891764161634889E+01 
    1.9821507318158503E+01 
    1.9365537648615234E+01 
    1.4807722052229408E+01 
    1.2483125155263451E+01 
    1.3922070653324910E+01 
    2.0377619865149068E+01 
    1.2841302038882333E+01 
    1.4249743897441920E+01 
    1.3068659979185403E+01 
    1.6516695988550371E+01 
    2.3512405997009349E+01 
    1.9348490019975447E+01 
    1.2296764204939446E+01 
    2.0155448421150616E+01 
    2.0019803770695276E+01 
    2.0126331445862906E+01 
    2.1445642212410885E+01 
    2.2114223132013962E+01 
    2.0180286041223344E+01 
    1.4194837950502965E+01 
    1.5379783689107276E+01 
    1.9939562181463277E+01 
    2.0624688775477040E+01 
    9.9400926724021854E+00 
    1.9391468764551675E+01 
    2.0315944753349914E+01 
    9.6530526034359205E+00 
    2.1372226917939447E+01 
    2.1314676077012727E+01 
    1.8880387767197586E+01 
    1.4559174919150976E+01 
    3.7278460669057241E+00 
    2.0852697588924030E+01 
    1.4387339700480334E+01 
    2.1030648020651761E+01 
    1.3579250078369190E+01 
    2.0559462578169256E+01 
    1.3945170729298382E+00 
    1.8180439691988237E+01 
    1.3571398631504030E+01 
    1.2432160459899203E+01 
    1.2116493251211628E+01 
    1.4040962681387295E+01 
    1.5409474657548980E+01 
    1.4808618082005541E+01 
    9.8664954992476979E+00 
    2.0631240367632696E+01 
    1.9910842612318952E+01 
    1.6308936003930608E+01 
    1.4446036813421529E+01 
    2.1410848870228620E+00 
    1.1172690935368745E+01 
    7.6966818643679007E+00 
    2.0889985237989126E+01 
    1.5769453062443047E+01 
    1.9829623320773017E+01 
    2.0002055812570749E+01 
    1.2942553128318757E+01 
    1.6447282202377295E+01 
    1.9347029041332608E+01 
    2.1294541753435233E+01 
    9.2066082326586240E+00 
    1.7539866546005491E+01 
    1.4756427562220347E+01 
    8.1944361154591494E+00 
    1.2938620553061863E+01 
    1.7181274943746082E+01 
    1.9949016123016399E+01 
    1.4094193520746558E+01 
    2.0097927155269161E+01 
    1.9778835500925879E+01 
    1.9709162633321654E+01 
    1.3924573527381849E+01 
    1.2311569784084332E+01 
    1.9378591375030901E+01 
    1.2517387113429098E+01 
    1.4178854613029861E+01 
    1.2277924457891805E+01 
    1.4202864254629104E+01 
    2.0015464119379377E+01 
    8.5832629974042725E+00 
    1.2813038892269935E+01 
    2.0770328176808651E+01 
    1.3930030898036790E+01 
    1.5638969123402545E+01 
    8.7998089705648663E+00 
    1.2611103848116583E+01 
    1.9747437519165580E+01 
    2.0172115215167839E+01 
    7.2215006845069158E+00 
    1.3949749522528519E+01 
    1.2312365175103023E+01 
    2.1830652768881972E+01 
    2.1141216889776455E+01 
    2.2152716759875865E+01 
    1.3971005928138196E+01 
    1.9977177829190211E+01 
    1.9250108395052081E+01 
    1.3802639253811314E+01 
    1.9364357988874911E+01 
    1.4446577584518389E+01 
    8.2651111930530554E+00 
    1.4411982044182597E+01 
    2.0760513102111346E+01 
    1.9358555041287335E+01 
    9.3260710179095945E+00 
    1.9404048390829971E+01 
    1.5444339403742385E+01 
    1.4322805894284295E+01 
    1.3762390243244756E+01 
    1.9112605325770026E+01 
    1.4975104731780888E+01 
    1.9385489229734777E+01 
    1.3970081482920126E+01 
    8.4978640023082814E+00 
    1.4266406064501320E+01 
    1.2124924697539692E+01 
    1.7458648185906998E+01 
    2.1012687231613043E+01 
    1.9378392508874157E+01 
    2.0836782326185528E+01 
    1.3859154637589988E+01 
    9.0752369833670716E+00 
    9.2022577061147839E+00 
    1.4557710174332508E+01 
    1.4144823040218265E+01 
    2.1408008355134700E+00 
    1.8482114222748635E+01 
    2.1492124942876689E+01 
    1.3601577108314636E+01 
    8.6631828884320843E+00 
    1.6312017945044389E+01 
    1.9397789659661274E+01 
    1.0309425031953717E+01 
    6.9776248382444983E+00 
    1.4132957929153418E+01 
    1.9513096117346045E+01 
    2.0516544204812199E+01 
    2.0217038146138307E+01 
    2.0174963845447166E+01 
    1.0010647128490195E+01 
    1.4317535878309444E+01 
    1.8819041202251213E+01 
    1.0902050767459121E+01 
    1.9929937068242168E+01 
    1.6743605026047447E+01 
    9.3440746169625264E+00 
    1.9495880271896613E+01 
    2.0935879767870311E+01 
    1.9605274308542928E+01 
    9.9258232544108065E+00 
    1.4199686531669457E+01 
    1.0930961779876750E+01 
    1.3366405790118611E+01 
    1.9388351499896011E+01 
    1.9370659342986212E+01 
    9.9872965974154582E+00 
    2.0623136360555307E+01 
    1.4862824607393442E+01 
    1.9429082223060583E+01 
    2.0670854167454149E+01 
    1.9405831648007020E+01 
    1.7765603799856141E+01 
    2.1909251427729423E+01 
    1.3528148672434654E+01 
    2.0793861592674432E+01 
    1.9457343076218876E+01 
    2.0896093899472767E+01 
    2.0616298668630932E+01 
    1.3662860004352563E+01 
    1.4047867823506770E+01 
    1.3590177993037159E+01 
    1.7036008020230721E+01 
    5.6749917936775240E+00 
    1.4476803129415828E+01 
    2.2058204305443628E+01 
    1.4452487855074967E+01 
    1.4698079660733020E+01 
    2.0859558274170126E+01 
    2.1155526751238565E+01 
    1.3395059849525405E+01 
    1.9409612128995924E+01 
    1.9367880672832104E+01 
    1.4681494411919594E+01 
    2.0551390997296405E+01 
    9.8775789724277594E+00 
    6.3076149758233546E+00 
    1.5055169775368780E+01 
    1.4467551217884830E+01 
    1.9362770344816457E+01 
    9.3288755782139887E+00 
    2.0119566111105957E+01 
    6.4495914497093132E+00 
    1.4394389375315612E+01 
    1.3667915745047015E+01 
    1.4174085401423961E+01 
    2.3568155231141166E+01 
    5.5069709131065530E+00 
    1.4371160354220148E+01 
    1.7124370745718121E+01 
    1.3732589155653898E+01 
    1.0893076200475418E+01 
    2.0357318528255913E+01 
    2.3061716811603919E+01 
    2.0534415419909525E+01 
    1.4292463432190107E+01 
    8.1663157911982562E+00 
    2.2895044874317609E+01 
    1.9896384222764354E+01 
    1.0290366573110742E+01 
    1.3864399924363724E+01 
    2.1423345798769557E+01 
    4.6886281740217441E+00 
    1.4535809652511121E+01 
    2.0585702043100742E+01 
    1.4192579654941214E+01 
    1.2264479722460228E+01 
    1.4422086577578003E+01 
    1.8887476593272865E+01 
    1.4173798031009198E+01 
    7.2677261899695234E+00 
    1.3810680193190956E+00 
    1.0403338968932601E+01 
    2.1718152330315171E+01 
    1.3589123520563474E+01 
    1.6008109915390186E+01 
    1.5366117347593976E+01 
    1.7541117740586046E+01 
    1.4207579528013548E+01 
    1.9765796193590770E+01 
    2.3583952030196581E+01 
    1.6625928036292937E+01 
    2.0755438256941943E+01 
    8.0564331103391240E-01 
    1.9372430475997866E+01 
    7.9710744339287007E+00 
    2.2258081709851712E+01 
    1.4388607061569267E+01 
    1.2565523492709172E+01 
    1.1151855623525790E+01 
    7.6417623240626478E+00 
    1.5668752932997780E+01 
    1.1078460105792516E+01 
    1.7312164532100276E+01 
    3.1462837482064190E+00 
    1.5493912336282657E+01 
    1.9235289474846422E+01 
    8.3622509742381084E+00 
    1.9992410747941534E+01 
    2.1984778720573910E+01 
    1.9823719654249757E+01 
    1.4211242373453439E+01 
    1.4166587544561379E+01 
    1.4379320553162639E+01 
    8.2838136041451556E+00 
    1.3221168637717179E+01 
    1.3004461529557590E+01 
    1.4365209040150216E+01 
    1.3496363906673517E+01 
    1.0378894262016107E+00 
    9.1039960626329322E+00 
    1.4004665559158072E+01 
    1.4332264044689536E+01 
    1.7806301199140023E+01 
    3.0775870241364767E+00 
    1.4628282342851156E+01 
    1.4476782050662012E+01 
    5.2996541773560484E+00 
    1.9628646381469064E+01 
    1.2541911060169705E+01 
    1.4316596643891085E+01 
    1.9895394049507196E+01 
    7.6665087195523460E+00 
    1.9768609784316968E+01 
    1.2712153299206038E+01 
    1.3984009758663782E+00 
    1.3671099124529224E+01 
    2.0680437542431221E+01 
    1.9375850277142334E+01 
    1.9405026372809989E+01 
    1.4818922571608146E+01 
    1.4397628321406025E+01 
    1.2521657451563138E+01 
    9.8870225179076705E+00 
    2.0058412204683059E+01 
    1.3856949127632491E+01 
    9.5633277310248310E+00 
    1.9397067612284971E+01 
    2.0371923634785198E+01 
    1.4587762460863104E+01 
    1.3984961088689362E+01 
    2.3446276385740173E+01 
    1.4682772522086943E+01 
    2.0070493345193803E+01 
    1.1885324513064013E+01 
    2.3613706445837160E+01 
    9.1511466597205100E+00 
    1.3050368502301570E+01 
    1.0369175303221231E+01 
    1.4990031174380592E+01 
    1.2040134109594232E+01 
    2.3595820275621630E+01 
    1.4746523635558574E+01 
    1.8891635839279886E+01 
    9.4181238314869198E+00 
    1.4200401160110626E+01 
    1.9849521138349360E+01 
    1.2103763403795432E+01 
    1.0325669160634547E+01 
    1.5939156403310729E+01 
    2.0073017566201628E+01 
    1.0152879837800414E+01 
    1.3697471746269537E+01 
    1.4030334421053627E+01 
    1.9333797465755094E+01 
    1.3755032892425930E+01 
    2.0123046322284090E+01 
    2.0935151634985001E+01 
    1.2554827484694499E+01 
    1.2302277077082787E+01 
    1.1077092210665581E+01 
    1.9541976920979398E+01 
    1.4502529087549048E+01 
    2.3106841213684429E+01 
    1.7991486251839170E+01 
    1.9790539301433149E+01 
    2.2745512651580505E+01 
    2.1992742071458800E+01 
    1.4252767160899387E+01 
    1.4345403428871110E+01 
    1.8898406490027014E+01 
    1.9430606191567868E+01 
    2.0300198218512129E+01 
    1.9926358878141198E+01 
    2.3473956032582709E+01 
    1.4682130407543950E+01 
    1.2704767859282361E+01 
    1.4651740885610451E+01 
    2.0814643111845502E+01 
    1.4358062003497229E+01 
    8.2167732752269789E+00 
    1.4190043852567243E+01 
    2.1386516812747772E+01 
    1.4522878939425379E+01 
    1.2715796412251992E+01 
    1.3966421721631153E+01 
    2.1526369077212451E+01 
    1.9574712255215761E+01 
    1.2008885678725614E+01 
    2.1696207951707908E+01 
    1.4284123999943679E+01 
    2.0263710312026042E+01 
    2.1540442731174892E+01 
    1.5129339569268598E+01 
    7.6826395856741154E+00 
    1.5716944639344856E+01 
    7.9399207069576372E+00 
    1.4413582896397573E+01 
    1.4198833897173888E+01 
    1.6534828712494512E+01 
    8.3985124972762595E+00 
    1.7570858252597613E+01 
    1.4215117382262703E+01 
    1.9911680823926599E+01 
    1.5299367050576500E+01 
    1.1614022393567165E+01 
    1.3798286037334909E+01 
    1.5016383224370992E+01 
    1.4819586384838722E+01 
    2.1025554509786765E+01 
    1.2138439831700335E+01 
    1.1928281366682937E+01 
    8.8261864626471169E+00 
    2.0325775221898038E+01 
    1.3853779721723855E+01 
    1.9236685177156936E+01 
    1.4163897575202686E+01 
    9.6525601935431258E+00 
    1.9594307661840304E+01 
    1.4139477695306185E+01 
    1.0555640083216845E+01 
    1.1214459118860438E+01 
    1.1628547301874953E+01 
    1.9957501519932194E+01 
    1.4367785785868278E+01 
    2.0771348372429941E+01 
    1.4097995627816585E+01 
    1.4032645901054380E+01 
    1.3591965143448865E+01 
    1.9721207026922961E+01 
    1.3935330981638343E+01 
    1.1696444118618302E+01 
    2.1981983648730321E+01 
    1.9841029545481721E+01 
    9.6160460689936755E+00 
    3.8740332161170841E+00 
    1.4354459592096470E+01 
    1.3381959853080271E+01 
    1.2298817406047561E+01 
    1.3327509762831745E+01 
    1.9676044633530864E+01 
    1.3970587736510076E+01 
    1.2761130300412599E+01 
    1.9464427333003222E+01 
    9.5147071821908487E+00 
    1.8843268607829852E+01 
    1.2846787431413134E+01 
    1.1500756261417589E+01 
    1.2418880315322063E+01 
    2.0376603616928421E+01 
    1.4176542008283478E+01 
    1.4186300187743431E+01 
    8.5287155100344663E+00 
    9.2326111365177699E+00 
    1.7881634929033801E+01 
    1.4197389952645379E+01 
    1.4405592149219169E+01 
    2.1683065084180811E+01 
    1.1926985846743271E+01 
    1.4211083790509903E+01 
    9.8842443982760102E+00 
    1.0234330921102254E+01 
    1.9664658370582334E+01 
    1.3781360563213296E+01 
    1.0199309864773999E+01 
    1.4811227392185588E+01 
    1.4103224421703429E+01 
    1.9688024826621440E+01 
    2.1797955273318806E+01 
    1.4794446501542118E+00 
    1.4360774800059966E+01 
    1.4466179824658363E+01 
    1.9812002888796361E+01 
    1.3761819341781573E+01 
    1.4144492770979786E+01 
    2.1104092932914401E+01 
    1.2466479775642011E+01 
    1.0290155940821471E+01 
    1.6893148773506383E+01 
    1.9395990198622922E+01 
    2.0889951852309149E+01 
    2.1259181835072646E+01 
    1.4156904782136607E+01 
    1.4349516698933060E+01 
    1.5734286160058499E+01 
    9.1093123944157330E+00 
    1.9589540630878766E+01 
    1.1109846511120010E+01 
    9.5027668955395850E+00 
    1.7548021076271390E+01 
    1.6492860980270148E+01 
    9.3021864493702040E+00 
    1.9448548749194835E+01 
    2.0872469810474147E+01 
    1.4703075510424323E+01 
    2.1925011746518187E+01 
    1.9496908181388534E+01 
    1.3828477459597289E+01 
    2.0463813359125883E+01 
    1.0250973362212722E+01 
    1.9420940666313310E+01 
    1.4359275457872375E+01 
    1.4311288960919770E+01 
    2.1901248576298347E+01 
    1.3906483128631979E+01 
    1.7165609050677862E+01 
    1.2389237954870783E+01 
    2.1034716613130865E+01 
    1.9255525600383393E+01 
    1.2919235745128450E+01 
    1.9365644947350450E+01 
    1.2935817045453890E+01 
    1.4150578318870634E+01 
    2.0816760213160450E+01 
    1.9925194027267061E+01 
    2.0876209631500295E+01 
    1.9815893893080588E+01 
    1.3232218238298078E+01 
    1.3504640712447779E+01 
    2.0887315454219085E+01 
    1.3672825059637594E+01 
    1.9084377843405417E+01 
    1.3880872950726916E+01 
    5.7237961865964486E+00 
    9.6030410726173727E+00 
    8.8844941978332326E+00 
    2.0822139197316577E+01 
    2.1808725006174274E+01 
    1.9388601610319895E+01 
    1.6179396876140594E+01 
    1.9796647377773422E+01 
    1.9460254280434402E+01 
    2.0321839065034961E+01 
    8.2264879346005486E+00 
    5.3303702896982044E+00 
    1.5884693129614655E+01 
    1.3958201771992991E+01 
    1.9685202903115560E+01 
    1.9681425675031800E+01 
    1.4488473236110424E+01 
    1.9737029451000485E+01 
    1.4342131054197846E+01 
    1.4241228483744763E+01 
    7.4219213434142643E+00 
    5.3015035108866462E+00 
    2.1520580245574628E+01 
    1.0951988465825705E+01 
    1.2840438196762651E+01 
    1.4371405578181420E+01 
    2.3450518691899259E+01 
    1.4477588053154548E+01 
    1.4736149676681315E+01 
    6.0281329754523343E+00 
    1.4477411147879577E+01 
    1.4493899876574845E+01 
    2.0036227726079737E+01 
    1.2427281478220879E+01 
    1.3605496532065073E+01 
    2.1735068623350138E+01 
    1.4371472964786300E+01 
    1.9411032750267495E+01 
    1.9722231393141435E+01 
    1.7255175614435579E+01 
    1.2001240862007474E+01 
    1.9813633508678002E+01 
    1.4118143401745938E+01 
    1.9639166551684717E+01 
    1.9308292421783502E+01 
    2.0848633882052869E+01 
    1.9815238417396699E+01 
    1.8216737631371362E+01 
    1.4356750157145949E+01 
    9.2337549434479236E+00 
    2.3306550945030381E+01 
    1.1344167446551598E+01 
    2.0767811698611634E+01 
    1.4353492700923113E+01 
    1.2002076775140090E+01 
    6.9793340912334489E+00 
    1.4536964264435710E+01 
    1.9795868689249875E+01 
    1.9779289648824889E+01 
    1.4127551405946772E+01 
    1.4346182569984306E+01 
    2.1985136807181743E+01 
    2.1184406596532895E+01 
    1.4501236171325520E+01 
    4.9649298047220478E+00 
    1.8092174594806085E+01 
    2.3591091006764891E+01 
    1.4360909306223339E+01 
    1.6694283839601507E+01 
    1.3761395587664303E+01 
    2.3139676173086993E+01 
    2.1289532044881120E+01 
    2.0976717710782477E+01 
    1.4527802763967749E+01 
    6.5126650452549528E+00 
    1.3709181391928691E+01 
    1.3790355919545121E+01 
    1.3838300008714562E+01 
    5.4179405827602061E+00 