# vtk DataFile Version 2.0
Pressure Field Data 
ASCII 
DATASET UNSTRUCTURED_GRID 

POINTS 2860 double 

    0.0000000000000000E+00     0.0000000000000000E+00     0.0000000000000000E+00 
    1.0000000000000000E+00     0.0000000000000000E+00     0.0000000000000000E+00 
    1.0000000000000000E+00     1.0000000000000000E+00     0.0000000000000000E+00 
    0.0000000000000000E+00     1.0000000000000000E+00     0.0000000000000000E+00 
    2.5000000000000000E-01     2.5000000000000000E-01     0.0000000000000000E+00 
    7.5000000000000000E-01     2.5000000000000000E-01     0.0000000000000000E+00 
    7.5000000000000000E-01     7.5000000000000000E-01     0.0000000000000000E+00 
    2.5000000000000000E-01     7.5000000000000000E-01     0.0000000000000000E+00 
    3.1249999999942091E-02     0.0000000000000000E+00     0.0000000000000000E+00 
    6.2499999999873469E-02     0.0000000000000000E+00     0.0000000000000000E+00 
    9.3749999999826514E-02     0.0000000000000000E+00     0.0000000000000000E+00 
    1.2499999999977961E-01     0.0000000000000000E+00     0.0000000000000000E+00 
    1.5624999999968961E-01     0.0000000000000000E+00     0.0000000000000000E+00 
    1.8749999999959971E-01     0.0000000000000000E+00     0.0000000000000000E+00 
    2.1874999999950970E-01     0.0000000000000000E+00     0.0000000000000000E+00 
    2.4999999999941969E-01     0.0000000000000000E+00     0.0000000000000000E+00 
    2.8124999999932920E-01     0.0000000000000000E+00     0.0000000000000000E+00 
    3.1249999999923850E-01     0.0000000000000000E+00     0.0000000000000000E+00 
    3.4374999999914790E-01     0.0000000000000000E+00     0.0000000000000000E+00 
    3.7499999999905720E-01     0.0000000000000000E+00     0.0000000000000000E+00 
    4.0624999999896660E-01     0.0000000000000000E+00     0.0000000000000000E+00 
    4.3749999999887590E-01     0.0000000000000000E+00     0.0000000000000000E+00 
    4.6874999999878530E-01     0.0000000000000000E+00     0.0000000000000000E+00 
    4.9999999999869471E-01     0.0000000000000000E+00     0.0000000000000000E+00 
    5.3124999999877620E-01     0.0000000000000000E+00     0.0000000000000000E+00 
    5.6249999999885780E-01     0.0000000000000000E+00     0.0000000000000000E+00 
    5.9374999999893940E-01     0.0000000000000000E+00     0.0000000000000000E+00 
    6.2499999999902101E-01     0.0000000000000000E+00     0.0000000000000000E+00 
    6.5624999999910261E-01     0.0000000000000000E+00     0.0000000000000000E+00 
    6.8749999999918421E-01     0.0000000000000000E+00     0.0000000000000000E+00 
    7.1874999999926570E-01     0.0000000000000000E+00     0.0000000000000000E+00 
    7.4999999999934730E-01     0.0000000000000000E+00     0.0000000000000000E+00 
    7.8124999999942890E-01     0.0000000000000000E+00     0.0000000000000000E+00 
    8.1249999999951039E-01     0.0000000000000000E+00     0.0000000000000000E+00 
    8.4374999999959199E-01     0.0000000000000000E+00     0.0000000000000000E+00 
    8.7499999999967359E-01     0.0000000000000000E+00     0.0000000000000000E+00 
    9.0624999999975520E-01     0.0000000000000000E+00     0.0000000000000000E+00 
    9.3749999999983680E-01     0.0000000000000000E+00     0.0000000000000000E+00 
    9.6874999999991840E-01     0.0000000000000000E+00     0.0000000000000000E+00 
    1.0000000000000000E+00     3.1249999999942091E-02     0.0000000000000000E+00 
    1.0000000000000000E+00     6.2499999999873469E-02     0.0000000000000000E+00 
    1.0000000000000000E+00     9.3749999999826514E-02     0.0000000000000000E+00 
    1.0000000000000000E+00     1.2499999999977961E-01     0.0000000000000000E+00 
    1.0000000000000000E+00     1.5624999999968961E-01     0.0000000000000000E+00 
    1.0000000000000000E+00     1.8749999999959971E-01     0.0000000000000000E+00 
    1.0000000000000000E+00     2.1874999999950970E-01     0.0000000000000000E+00 
    1.0000000000000000E+00     2.4999999999941969E-01     0.0000000000000000E+00 
    1.0000000000000000E+00     2.8124999999932920E-01     0.0000000000000000E+00 
    1.0000000000000000E+00     3.1249999999923850E-01     0.0000000000000000E+00 
    1.0000000000000000E+00     3.4374999999914790E-01     0.0000000000000000E+00 
    1.0000000000000000E+00     3.7499999999905720E-01     0.0000000000000000E+00 
    1.0000000000000000E+00     4.0624999999896660E-01     0.0000000000000000E+00 
    1.0000000000000000E+00     4.3749999999887590E-01     0.0000000000000000E+00 
    1.0000000000000000E+00     4.6874999999878530E-01     0.0000000000000000E+00 
    1.0000000000000000E+00     4.9999999999869471E-01     0.0000000000000000E+00 
    1.0000000000000000E+00     5.3124999999877620E-01     0.0000000000000000E+00 
    1.0000000000000000E+00     5.6249999999885780E-01     0.0000000000000000E+00 
    1.0000000000000000E+00     5.9374999999893940E-01     0.0000000000000000E+00 
    1.0000000000000000E+00     6.2499999999902101E-01     0.0000000000000000E+00 
    1.0000000000000000E+00     6.5624999999910261E-01     0.0000000000000000E+00 
    1.0000000000000000E+00     6.8749999999918421E-01     0.0000000000000000E+00 
    1.0000000000000000E+00     7.1874999999926570E-01     0.0000000000000000E+00 
    1.0000000000000000E+00     7.4999999999934730E-01     0.0000000000000000E+00 
    1.0000000000000000E+00     7.8124999999942890E-01     0.0000000000000000E+00 
    1.0000000000000000E+00     8.1249999999951039E-01     0.0000000000000000E+00 
    1.0000000000000000E+00     8.4374999999959199E-01     0.0000000000000000E+00 
    1.0000000000000000E+00     8.7499999999967359E-01     0.0000000000000000E+00 
    1.0000000000000000E+00     9.0624999999975520E-01     0.0000000000000000E+00 
    1.0000000000000000E+00     9.3749999999983680E-01     0.0000000000000000E+00 
    1.0000000000000000E+00     9.6874999999991840E-01     0.0000000000000000E+00 
    9.6875000000003686E-01     1.0000000000000000E+00     0.0000000000000000E+00 
    9.3750000000011691E-01     1.0000000000000000E+00     0.0000000000000000E+00 
    9.0625000000015765E-01     1.0000000000000000E+00     0.0000000000000000E+00 
    8.7500000000017863E-01     1.0000000000000000E+00     0.0000000000000000E+00 
    8.4375000000028044E-01     1.0000000000000000E+00     0.0000000000000000E+00 
    8.1250000000040856E-01     1.0000000000000000E+00     0.0000000000000000E+00 
    7.8125000000054956E-01     1.0000000000000000E+00     0.0000000000000000E+00 
    7.5000000000066480E-01     1.0000000000000000E+00     0.0000000000000000E+00 
    7.1875000000086831E-01     1.0000000000000000E+00     0.0000000000000000E+00 
    6.8750000000102829E-01     1.0000000000000000E+00     0.0000000000000000E+00 
    6.5625000000114431E-01     1.0000000000000000E+00     0.0000000000000000E+00 
    6.2500000000129829E-01     1.0000000000000000E+00     0.0000000000000000E+00 
    5.9375000000147926E-01     1.0000000000000000E+00     0.0000000000000000E+00 
    5.6250000000168354E-01     1.0000000000000000E+00     0.0000000000000000E+00 
    5.3125000000188671E-01     1.0000000000000000E+00     0.0000000000000000E+00 
    5.0000000000205835E-01     1.0000000000000000E+00     0.0000000000000000E+00 
    4.6875000000192979E-01     1.0000000000000000E+00     0.0000000000000000E+00 
    4.3750000000180111E-01     1.0000000000000000E+00     0.0000000000000000E+00 
    4.0625000000167238E-01     1.0000000000000000E+00     0.0000000000000000E+00 
    3.7500000000154382E-01     1.0000000000000000E+00     0.0000000000000000E+00 
    3.4375000000141509E-01     1.0000000000000000E+00     0.0000000000000000E+00 
    3.1250000000128642E-01     1.0000000000000000E+00     0.0000000000000000E+00 
    2.8125000000115769E-01     1.0000000000000000E+00     0.0000000000000000E+00 
    2.5000000000102918E-01     1.0000000000000000E+00     0.0000000000000000E+00 
    2.1875000000090050E-01     1.0000000000000000E+00     0.0000000000000000E+00 
    1.8750000000077180E-01     1.0000000000000000E+00     0.0000000000000000E+00 
    1.5625000000064329E-01     1.0000000000000000E+00     0.0000000000000000E+00 
    1.2500000000051459E-01     1.0000000000000000E+00     0.0000000000000000E+00 
    9.3750000000385914E-02     1.0000000000000000E+00     0.0000000000000000E+00 
    6.2500000000257239E-02     1.0000000000000000E+00     0.0000000000000000E+00 
    3.1250000000128557E-02     1.0000000000000000E+00     0.0000000000000000E+00 
    0.0000000000000000E+00     9.6875000000003686E-01     0.0000000000000000E+00 
    0.0000000000000000E+00     9.3750000000011691E-01     0.0000000000000000E+00 
    0.0000000000000000E+00     9.0625000000015765E-01     0.0000000000000000E+00 
    0.0000000000000000E+00     8.7500000000017863E-01     0.0000000000000000E+00 
    0.0000000000000000E+00     8.4375000000028044E-01     0.0000000000000000E+00 
    0.0000000000000000E+00     8.1250000000040856E-01     0.0000000000000000E+00 
    0.0000000000000000E+00     7.8125000000054956E-01     0.0000000000000000E+00 
    0.0000000000000000E+00     7.5000000000066480E-01     0.0000000000000000E+00 
    0.0000000000000000E+00     7.1875000000086831E-01     0.0000000000000000E+00 
    0.0000000000000000E+00     6.8750000000102829E-01     0.0000000000000000E+00 
    0.0000000000000000E+00     6.5625000000114431E-01     0.0000000000000000E+00 
    0.0000000000000000E+00     6.2500000000129829E-01     0.0000000000000000E+00 
    0.0000000000000000E+00     5.9375000000147926E-01     0.0000000000000000E+00 
    0.0000000000000000E+00     5.6250000000168354E-01     0.0000000000000000E+00 
    0.0000000000000000E+00     5.3125000000188671E-01     0.0000000000000000E+00 
    0.0000000000000000E+00     5.0000000000205835E-01     0.0000000000000000E+00 
    0.0000000000000000E+00     4.6875000000192979E-01     0.0000000000000000E+00 
    0.0000000000000000E+00     4.3750000000180111E-01     0.0000000000000000E+00 
    0.0000000000000000E+00     4.0625000000167238E-01     0.0000000000000000E+00 
[...]
CELL_DATA 2795 
SCALARS Pressure double 1 
LOOKUP_TABLE default 

    6.4481293965282509E+00 
    1.4698780743113248E+01 
    1.0351579611695204E+01 
    9.9636407700254903E+00 
    7.9217444059300197E+00 
    1.4563956593011568E+01 
    1.5302960371858420E+01 
    5.7622371743581722E+00 
    1.0910629668746607E+01 
    8.3704464553795983E+00 
    7.1467068504597844E+00 
    1.4302061175837899E+01 
    1.4606472226397377E+01 
    1.4532392428643520E+01 
    9.5597919051494316E+00 
    5.6676818401206752E+00 
    9.1627683503356163E+00 
    7.6073824814070949E+00 
    1.3930150192251972E+01 
    1.0339289274284951E+01 
    1.0234274347949952E+01 
    1.4465748956433146E+01 
    9.6903583618391309E+00 
    3.7892424576516021E-01 
    1.4301946497101170E+01 
    1.4574357808892298E+01 
    1.5334477997040629E+01 
    6.8729482112430675E+00 
    1.4220703788468912E+01 
    1.5327983067504624E+01 
    1.0407512589738809E+01 
    1.0554176059504798E+01 
    7.4313921625638653E+00 
    1.0314238656486406E+01 
    3.3386119876818379E+00 
    9.1685355421293799E+00 
    1.0302661225501542E+01 
    1.5368083338496552E+01 
    1.5279597370305781E+01 
    1.4315134092979132E+01 
    7.8683918654375589E+00 
    1.4276251518196553E+01 
    7.8817958331218019E-01 
    1.0215802175507529E+01 
    1.5093001727881052E+01 
    1.4916542493779245E+01 
    1.4291155686396518E+01 
    1.1285054128437871E+01 
    1.4362072507964792E+01 
    9.3735567391784986E+00 
    8.9312991156874286E+00 
    1.0519958228462469E+01 
    1.0104488196245773E+01 
    9.2161164884983489E+00 
    1.0476458462739444E+01 
    1.3714984291703834E+01 
    1.2296145833068923E+01 
    7.9644948895825776E+00 
    1.4470219663462203E+01 
    1.4391132439147436E+01 
    9.9480191704519338E+00 
    9.9596953196761486E+00 
    9.8638368425465686E+00 
    1.5229085152322501E+01 
    1.5486263333831587E+01 
    9.1733651065826756E+00 
    1.0519008589338345E+01 
    1.4182656269947122E+01 
    1.2124369644193296E+01 
    1.0006492379377976E+01 
    1.5494924361752624E+01 
    1.4416028704301834E+01 
    9.0458134729787592E+00 
    1.5021123408908814E+01 
    1.0709783922865014E+01 
    1.4151172898181928E+01 
    1.5378767889309652E+01 
    1.0765843976647728E+01 
    6.6253054965373686E+00 
    1.0537421301320064E+01 
    1.5288799211029437E+01 
    1.5524669382269062E+01 
    9.1887531029195095E+00 
    1.0455922332733570E+01 
    1.5570095942680299E+01 
    1.0304525936862369E+01 
    9.7784772714205381E+00 
    1.2557793434913080E+01 
    6.3010482198507178E+00 
    8.9547068634345504E+00 
    1.0455048725917532E+01 
    1.1075510620768421E+01 
    1.7049970527198475E+01 
    7.6991129241405911E+00 
    1.0527052678032375E+01 
    1.4268557229100001E+01 
    1.4556899423250254E+01 
    6.7841570230081638E+00 
    1.0173992134021990E+01 
    1.0485647180835487E+01 
    1.4577735574374477E+01 
    1.0484622846254688E+01 
    1.4508109353303997E+01 
    4.1267902827264908E+00 
    6.9490567855351539E+00 
    1.0755390066717830E+01 
    1.4706952470530776E+01 
    9.1328954653418553E+00 
    9.7231264244873081E+00 
    1.0467538543231541E+01 
    9.7439970417577033E+00 
    1.1870269991852581E+01 
    9.4589685954533191E+00 
    9.0540720272113155E+00 
    7.1755404141002543E+00 
    1.2318839596807948E+01 
    1.0556393680645217E+01 
    1.5139776540023851E+01 
    9.0778628508012673E+00 
    9.9443890446794025E+00 
    1.4403881627102411E+01 
    8.3002874781201221E+00 
    1.4859091700868658E+01 
    1.0380428431960048E+01 
    9.8726319087613188E+00 
    1.4558983151644133E+01 
    1.0549673705841348E+01 
    1.5390442163092512E+01 
    1.2571511962441713E+01 
    1.3556747128880314E+01 
    1.5351413656384919E+01 
    7.7146424886435883E+00 
    1.0782696989137209E+01 
    1.4558905586997005E+01 
    3.0912367225520634E+00 
    1.0455001990275365E+01 
    1.5317396866228885E+01 
    9.9018540036525682E+00 
    1.1445074777818508E+01 
    6.7673519722733184E+00 
    1.4266489234337383E+01 
    1.7545243332978750E+01 
    1.3058237451420974E+01 
    9.9012240938497680E+00 
    8.8523117161110267E+00 
    1.1116864606376719E+01 
    1.0397293879893908E+01 
    7.2221100813432111E+00 
    1.5347250655395829E+01 
    1.4627493049447168E+01 
    1.4270264524690651E+01 
    1.1081229355397221E+01 
    9.0156266616051344E+00 
    1.0232363655007862E+01 
    1.5049620388545948E+01 
    9.2755602551948009E+00 
    1.0384410261963252E+01 
    9.4458057860493998E+00 
    1.2050479095885310E+01 
    1.7533333736883854E+01 
    1.4261689388045729E+01 
    8.9891570402233292E+00 
    1.4755314250787325E+01 
    1.4665618509246228E+01 
    1.4746847097685505E+01 
    1.5771124592004304E+01 
    1.6320259246911494E+01 
    1.4914134380307628E+01 
    1.0510746615863020E+01 
    1.1304320060943006E+01 
    1.4737910653637879E+01 
    1.5152109497822119E+01 
    7.5371449983543526E+00 
    1.4290798043480997E+01 
    1.5011056622001616E+01 
    7.3396915932086566E+00 
    1.5689620363720984E+01 
    1.5669049702489021E+01 
    1.4001626032489602E+01 
    1.0856183436075939E+01 
    2.7214628216786627E+00 
    1.5318253333207760E+01 
    1.0687792562351042E+01 
    1.5440383301142489E+01 
    9.8304889870752046E+00 
    1.5151743469537918E+01 
    9.6868822909919039E-01 
    1.3574110691257733E+01 
    1.0004835879696479E+01 
    8.9738105206828109E+00 
    8.7453553486960445E+00 
    1.0349994619859991E+01 
    1.1509235065322990E+01 
    1.0797258847604143E+01 
    7.2954022665956222E+00 
    1.5146537438626249E+01 
    1.4583180617759703E+01 
    1.2254468825652156E+01 
    1.0749565503802733E+01 
    1.5784834363975675E+00 
    8.0697182568460288E+00 
    5.6111985490671836E+00 
    1.5338699052925273E+01 
    1.1619239293638650E+01 
    1.4632194853382243E+01 
    1.4650738723003657E+01 
    9.3557755646714558E+00 
    1.2227786360595836E+01 
    1.4265676002348838E+01 
    1.5651063227258017E+01 
    6.7263416113095422E+00 
    1.2896606578116563E+01 
    1.0818133108647729E+01 
    5.9896141808909462E+00 
    9.3488346080004963E+00 
    1.2837666131454482E+01 
    1.4611821769272584E+01 
    1.0403661150705297E+01 
    1.4724304574384682E+01 
    1.4485559035897527E+01 
    1.4433513536604028E+01 
    1.0238353012290036E+01 
    8.9082276948352028E+00 
    1.4278227532185129E+01 
    9.0396008330341253E+00 
    1.0489914008931914E+01 
    8.8613170310796523E+00 
    1.0329834028692552E+01 
    1.4659837219196481E+01 
    6.5364732772946041E+00 
    9.2548612046393668E+00 
    1.5251909407544881E+01 
    1.0250060722782727E+01 
    1.1514698075186157E+01 
    6.7064740041332032E+00 
    9.1059432579111181E+00 
    1.4463207039287258E+01 
    1.4781002698351760E+01 
    5.4700803902437958E+00 
    1.0256454415047079E+01 
    8.9069707450773130E+00 
    1.6082627467939741E+01 
    1.5532733162139410E+01 
    1.6348165969128289E+01 
    1.0276588881041437E+01 
    1.4632707244681525E+01 
    1.4221160751277056E+01 
    1.0146525244656004E+01 
    1.4270687803527116E+01 
    1.0748958443853494E+01 
    6.0773118298169253E+00 
    1.0530158789268919E+01 
    1.5237191488084441E+01 
    1.4267422816199643E+01 
    7.1099641313685717E+00 
    1.4297950533085958E+01 
    1.1522855032861525E+01 
    1.0434957019980621E+01 
    9.9777689156175775E+00 
    1.4130278128347635E+01 
    1.0960565748796640E+01 
    1.4283824715267968E+01 
    1.0148640241590023E+01 
    6.3030605327804219E+00 
    1.0560422574712192E+01 
    8.7560056287779453E+00 
    1.3061823144510257E+01 
    1.5439717479535661E+01 
    1.4276477998696061E+01 
    1.5310928440120575E+01 
    1.0197201444975811E+01 
    6.9247324028190667E+00 
    7.0226033803967409E+00 
    1.0621125781754960E+01 
    1.0465529291817850E+01 
    1.5065076099687034E+00 
    1.3765044180802599E+01 
    1.5799814496620520E+01 
    9.8448868895403194E+00 
    6.3194996372623899E+00 
    1.2005631776140676E+01 
    1.4296472238197785E+01 
    7.4653716789321800E+00 
    5.0706000635103301E+00 
    1.0443645923008180E+01 
    1.4377557821095868E+01 
    1.5048967712971363E+01 
    1.4936650140690087E+01 
    1.4784537723465913E+01 
    7.3102607732643312E+00 
    1.0429253366169931E+01 
    1.3806944089777392E+01 
    8.2178261950487137E+00 
    1.4593191159330441E+01 
    1.2485482600810338E+01 
    7.1286245853585228E+00 
    1.4406908584010994E+01 
    1.5345676734517278E+01 
    1.4426021745870093E+01 
    7.1883183123145082E+00 
    1.0515196554246272E+01 
    7.8955235180044019E+00 
    9.9299258898613250E+00 
    1.4287644393872542E+01 
    1.4275431906242281E+01 
    7.2299735014210871E+00 
    1.5192053261330523E+01 
    1.1072824761644060E+01 
    1.4308467762260774E+01 
    1.5158613632721258E+01 
    1.4295568159022002E+01 
    1.3312364044242365E+01 
    1.6138605876424453E+01 
    9.7976298553366927E+00 
    1.5279563954774781E+01 
    1.4336507789322789E+01 
    1.5353666187008750E+01 
    1.5184954320789188E+01 
    9.9005290546881000E+00 
    1.0343022084647497E+01 
    9.8352285850809835E+00 
    1.2797184139721590E+01 
    4.1404881681752199E+00 
    1.0556655930377362E+01 
    1.6266329265761112E+01 
    1.0750768323548872E+01 
    1.0944867754380745E+01 
    1.5326260551506703E+01 
    1.5561277603269019E+01 
    9.7222073600636918E+00 
    1.4302447329533395E+01 
    1.4271383640830642E+01 
    1.0932054954454474E+01 
    1.5138993040043452E+01 
    7.4872069953691183E+00 
    4.7663295165176942E+00 
    1.1222552393958523E+01 
    1.0766645663680691E+01 
    1.4277644678477257E+01 
    6.7638796208643654E+00 
    1.4849986361100235E+01 
    4.8520170900851509E+00 
    1.0696634855931789E+01 
    9.9307758293512904E+00 
    1.0491916642748750E+01 
    1.7585010144050536E+01 
    4.0209174106655485E+00 
    1.0472667587172596E+01 
    1.2526215288653146E+01 
    1.0097643386896481E+01 
    8.0016298409285280E+00 
    1.4965522048352629E+01 
    1.7138098555822896E+01 
    1.5119143203268822E+01 
    1.0411540155351794E+01 
    5.9518122895170995E+00 
    1.6989677831118367E+01 
    1.4572304933029875E+01 
    7.6835086660161434E+00 
    1.0053841608081960E+01 
    1.5754585365566987E+01 
    3.4216157467819044E+00 
    1.0817967666694859E+01 
    1.5085331477166999E+01 
    1.0505431877631889E+01 
    9.1636052639652075E+00 
    1.0513135500125269E+01 
    1.4030441553175969E+01 
    1.0486848122621474E+01 
    5.2943738033468994E+00 
    9.4155239350509823E-01 
    7.8458829462144868E+00 
    1.5977707239554537E+01 
    9.8347045688408485E+00 
    1.1827608481301020E+01 
    1.1269658157995734E+01 
    1.3121949708631822E+01 
    1.0518727246471601E+01 
    1.4478917130742659E+01 
    1.7599430690476300E+01 
    1.2462256857701407E+01 
    1.5251504725812737E+01 
    5.6336704161103457E-01 
    1.4277526049511234E+01 
    5.8798544501758689E+00 
    1.6437466265234722E+01 
    1.0486527072826293E+01 
    9.3203624934608928E+00 
    8.0522746370662173E+00 
    5.5507318239969186E+00 
    1.1755880661701211E+01 
    8.3088497923626168E+00 
    1.2951875468337434E+01 
    2.2828297403838356E+00 
    1.1558764845173247E+01 
    1.4207902727705990E+01 
    6.3763624585577539E+00 
    1.4779046438061252E+01 
    1.6234414178956357E+01 
    1.4612584109402176E+01 
    1.0348786369961198E+01 
    1.0486541738333518E+01 
    1.0479136530686313E+01 
    6.0177219483461686E+00 
    9.5591320212074180E+00 
    9.3971414805758240E+00 
    1.0467955571138248E+01 
    9.7635045403820246E+00 
    7.1351060473505501E-01 
    6.7658306917817574E+00 
    1.0174095487218082E+01 
    1.0442332654635043E+01 
    1.3311623998371282E+01 
    2.2518931935958397E+00 
    1.0890443553445063E+01 
    1.0771092204582247E+01 
    3.8690697123112172E+00 
    1.4468259413292616E+01 
    9.0612142201186927E+00 
    1.0623400649135363E+01 
    1.4569117446669546E+01 
    5.5760851360561796E+00 
    1.4595825291826642E+01 
    9.1804446218218949E+00 
    1.0324422288189554E+00 
    9.8988083728019181E+00 
    1.5204000427084484E+01 
    1.4277334936430416E+01 
    1.4296179031587826E+01 
    1.0828760901027797E+01 
    1.0698873500518911E+01 
    9.0391459960521576E+00 
    7.3419931572620349E+00 
    1.4682168891956991E+01 
    1.0050589688966582E+01 
    7.1478504812906190E+00 
    1.4291830824755490E+01 
    1.5006074322988372E+01 
    1.0646089684000723E+01 
    1.0296610559603071E+01 
    1.7477271306990861E+01 
    1.0932953230532059E+01 
    1.4699355179591368E+01 
    8.5895721745887172E+00 
    1.7628133284505196E+01 
    6.9816727941089134E+00 
    9.4610966734316424E+00 
    7.8203334042041259E+00 
    1.1170549924244355E+01 
    8.9504460231250036E+00 
    1.7611504301253056E+01 
    1.0982369661938391E+01 
    1.3969245823707071E+01 
    7.1806135782490941E+00 
    1.0515013182100782E+01 
    1.4537625083759943E+01 
    8.9858422732219836E+00 
    7.6140466022598501E+00 
    1.1649973707293022E+01 
    1.4768780041833752E+01 
    7.6969786495289281E+00 
    9.9520821094077796E+00 
    1.0327070993844616E+01 
    1.4252089439868618E+01 
    1.0123771484492666E+01 
    1.4744668908197029E+01 
    1.5383158182685715E+01 
    9.0667665470466705E+00 
    8.8846700659001581E+00 
    8.3390730300528144E+00 
    1.4398187685358749E+01 
    1.0778068769891338E+01 
    1.7177986228568365E+01 
    1.3487054986840880E+01 
    1.4495687297159147E+01 
    1.6861337033045974E+01 
    1.6242060886567121E+01 
    1.0561314645572098E+01 
    1.0452487353089987E+01 
    1.4033834518314606E+01 
    1.4316695043580975E+01 
    1.4860222340341332E+01 
    1.4593321648858186E+01 
    1.7498678568516571E+01 
    1.0932475572184948E+01 
    9.1728331345364413E+00 
    1.0926441577946951E+01 
    1.5294663242320270E+01 
    1.0659580721439578E+01 
    6.2278449541083880E+00 
    1.0332320073391342E+01 
    1.5720838162443625E+01 
    1.0808261022619060E+01 
    9.1836074224242026E+00 
    1.0268438722050533E+01 
    1.5834016059014646E+01 
    1.4334523678827795E+01 
    8.7232957234626163E+00 
    1.5973295540310424E+01 
    1.0590317372671525E+01 
    1.4851298686225473E+01 
    1.5847711114728972E+01 
    1.1130982022933535E+01 
    5.5826451623750195E+00 
    1.1593767984650448E+01 
    5.7795663504924137E+00 
    1.0716298715460033E+01 
    1.0507440117554577E+01 
    1.2216648288799460E+01 
    6.1105178683770056E+00 
    1.2969411978140490E+01 
    1.0527014376640761E+01 
    1.4583219997803530E+01 
    1.1139638511571066E+01 
    8.5443849950482900E+00 
    1.0141171098932032E+01 
    1.0988933168120102E+01 
    1.1039930239692742E+01 
    1.5428605560505572E+01 
    8.7592582019817069E+00 
    8.6087173214801158E+00 
    6.4272804313898364E+00 
    1.4883810360101874E+01 
    1.0182832922242751E+01 
    1.4121061347962355E+01 
    1.0477963843612942E+01 
    7.0306679443179192E+00 
    1.4364386620756063E+01 
    1.0453627790813357E+01 
    7.6637787663796990E+00 
    8.1173957989522414E+00 
    8.4047495567817396E+00 
    1.4614440506324341E+01 
    1.0469982633165897E+01 
    1.5263520551195590E+01 
    1.0412718701041916E+01 
    1.0351243490370171E+01 
    9.8688388024276108E+00 
    1.4449722613367873E+01 
    1.0268258051132902E+01 
    8.4461614593168566E+00 
    1.6230084043762663E+01 
    1.4532747103162084E+01 
    7.3142019594139462E+00 
    2.8390400805494180E+00 
    1.0459321079112094E+01 
    9.8587396727202687E+00 
    8.8760039004972313E+00 
    9.6668641561696038E+00 
    1.4488145262930219E+01 
    1.0160874880542934E+01 
    9.2288448738652367E+00 
    1.4339202368016391E+01 
    7.2494169614046005E+00 
    1.3992707424120320E+01 
    9.5212036463515481E+00 
    8.4021270415701235E+00 
    8.9626943361725946E+00 
    1.4938184234108034E+01 
    1.0494799574269592E+01 
    1.0502916128966108E+01 
    6.1909414915402525E+00 
    6.6931647218010735E+00 
    1.3306995863570187E+01 
    1.0512715355478289E+01 
    1.0499938782578942E+01 
    1.5958669593018113E+01 
    8.6124686264755450E+00 
    1.0525012711473313E+01 
    7.4970928218087787E+00 
    7.7330619806419536E+00 
    1.4443146579958785E+01 
    1.0153849738122688E+01 
    7.3809730677350069E+00 
    1.1089135145392740E+01 
    1.0400944248898398E+01 
    1.4446119344784440E+01 
    1.6053547613964369E+01 
    1.0839995458427638E+00 
    1.0464307966590304E+01 
    1.0764507139707604E+01 
    1.4511958208830574E+01 
    9.9734736017805101E+00 
    1.0468454092533291E+01 
    1.5483044187488629E+01 
    9.0002162125478051E+00 
    7.4474687913851403E+00 
    1.2687252484207942E+01 
    1.4291542705466387E+01 
    1.5352115994774026E+01 
    1.5626687570076468E+01 
    1.0303698122820006E+01 
    1.0455628837857926E+01 
    1.1823055876900909E+01 
    6.9505115493619289E+00 
    1.4424323702607667E+01 
    8.0245155796289502E+00 
    7.2381528659210153E+00 
    1.3185013146427320E+01 
    1.2411260911203790E+01 
    7.0986106006777261E+00 
    1.4328314928100012E+01 
    1.5337861869338669E+01 
    1.0948726418620526E+01 
    1.6157332926793512E+01 
    1.4362658122748138E+01 
    1.0036372589678658E+01 
    1.5069878625494745E+01 
    7.7372767476049313E+00 
    1.4310904648019278E+01 
    1.0463201606309152E+01 
    1.0424352278081676E+01 
    1.6132831894233480E+01 
    1.0218010955930467E+01 
    1.2905264904436583E+01 
    8.9465092427200776E+00 
    1.5458541997502303E+01 
    1.4214333518033895E+01 
    9.3341462265965891E+00 
    1.4266229752849203E+01 
    9.5449641366875202E+00 
    1.0477307975901919E+01 
    1.5296440738060237E+01 
    1.4589018666208492E+01 
    1.5341083997756767E+01 
    1.4515347687304887E+01 
    9.5649458177230784E+00 
    9.7867233534403830E+00 
    1.5348240850223997E+01 
    9.9157594756683576E+00 
    1.4142336044990113E+01 
    1.0206340465189417E+01 
    4.1714295392883409E+00 
    7.3132939223771993E+00 
    6.7740054095943112E+00 
    1.5300160387066480E+01 
    1.6060267951333920E+01 
    1.4284869643306818E+01 
    1.2103834213396034E+01 
    1.4583387677972055E+01 
    1.4336699655160025E+01 
    1.4940168273313295E+01 
    5.9819531452022119E+00 
    3.8880168057216276E+00 
    1.1889168855861007E+01 
    1.0136333879425727E+01 
    1.4489892963558455E+01 
    1.4487300982395565E+01 
    1.0791202136494691E+01 
    1.4525771629758438E+01 
    1.0449855864387180E+01 
    1.0378085650167556E+01 
    5.3980282402179487E+00 
    3.8746746332732891E+00 
    1.5830692794447380E+01 
    8.2129943046373306E+00 
    9.2757789400443809E+00 
    1.0674173982456995E+01 
    1.7479223653865443E+01 
    1.0774458685809563E+01 
    1.0799391004404331E+01 
    4.4110334117175389E+00 
    1.0776239673863998E+01 
    1.0791577443077266E+01 
    1.4815810574756663E+01 
    8.9689327345102061E+00 
    1.0050673984300699E+01 
    1.6002826546307933E+01 
    1.0472762611279801E+01 
    1.4301233829938198E+01 
    1.4564307806398050E+01 
    1.2906954338076277E+01 
    8.9216607116687623E+00 
    1.4514939802486138E+01 
    1.0267236723962379E+01 
    1.4487891849712206E+01 
    1.4237970250065446E+01 
    1.5319793349183586E+01 
    1.4513038981557832E+01 
    1.3616665697393447E+01 
    1.0461244934191024E+01 
    7.0442609955922100E+00 
    1.7350378317671161E+01 
    8.1878418437019569E+00 
    1.5246745468489500E+01 
    1.0458640079988962E+01 
    8.6577117667864751E+00 
    5.1965226471557742E+00 
    1.0830856994590782E+01 
    1.4501333363299906E+01 
    1.4497647161146363E+01 
    1.0458039371616220E+01 
    1.0452781274359229E+01 
    1.6213787531419172E+01 
    1.5568470448051137E+01 
    1.0793593849441150E+01 
    3.6170685569545751E+00 
    1.3557621716291479E+01 
    1.7608835890882467E+01 
    1.0464573594336375E+01 
    1.2496590459652223E+01 
    9.9720756487587856E+00 
    1.7204603989129577E+01 
    1.5650164490401444E+01 
    1.5381894763606105E+01 
    1.0816018739572758E+01 
    4.8445504003846320E+00 
    9.9283198442925986E+00 
    9.9972223763657624E+00 
    1.0038126662587267E+01 
    3.9399340603100721E+00 