# vtk DataFile Version 2.0
Pressure Field Data 
ASCII 
DATASET UNSTRUCTURED_GRID 

POINTS 2860 double 

    0.0000000000000000E+00     0.0000000000000000E+00     0.0000000000000000E+00 
    1.0000000000000000E+00     0.0000000000000000E+00     0.0000000000000000E+00 
    1.0000000000000000E+00     1.0000000000000000E+00     0.0000000000000000E+00 
    0.0000000000000000E+00     1.0000000000000000E+00     0.0000000000000000E+00 
    2.5000000000000000E-01     2.5000000000000000E-01     0.0000000000000000E+00 
    7.5000000000000000E-01     2.5000000000000000E-01     0.0000000000000000E+00 
    7.5000000000000000E-01     7.5000000000000000E-01     0.0000000000000000E+00 
    2.5000000000000000E-01     7.5000000000000000E-01     0.0000000000000000E+00 
    3.1249999999942091E-02     0.0000000000000000E+00     0.0000000000000000E+00 
    6.2499999999873469E-02     0.0000000000000000E+00     0.0000000000000000E+00 
    9.3749999999826514E-02     0.0000000000000000E+00     0.0000000000000000E+00 
    1.2499999999977961E-01     0.0000000000000000E+00     0.0000000000000000E+00 
    1.5624999999968961E-01     0.0000000000000000E+00     0.0000000000000000E+00 
    1.8749999999959971E-01     0.0000000000000000E+00     0.0000000000000000E+00 
    2.1874999999950970E-01     0.0000000000000000E+00     0.0000000000000000E+00 
    2.4999999999941969E-01     0.0000000000000000E+00     0.0000000000000000E+00 
    2.8124999999932920E-01     0.0000000000000000E+00     0.0000000000000000E+00 
    3.1249999999923850E-01     0.0000000000000000E+00     0.0000000000000000E+00 
    3.4374999999914790E-01     0.0000000000000000E+00     0.0000000000000000E+00 
    3.7499999999905720E-01     0.0000000000000000E+00     0.0000000000000000E+00 
    4.0624999999896660E-01     0.0000000000000000E+00     0.0000000000000000E+00 
    4.3749999999887590E-01     0.0000000000000000E+00     0.0000000000000000E+00 
    4.6874999999878530E-01     0.0000000000000000E+00     0.0000000000000000E+00 
    4.9999999999869471E-01     0.0000000000000000E+00     0.0000000000000000E+00 
    5.3124999999877620E-01     0.0000000000000000E+00     0.0000000000000000E+00 
    5.6249999999885780E-01     0.0000000000000000E+00     0.0000000000000000E+00 
    5.9374999999893940E-01     0.0000000000000000E+00     0.0000000000000000E+00 
    6.2499999999902101E-01     0.0000000000000000E+00     0.0000000000000000E+00 
    6.5624999999910261E-01     0.0000000000000000E+00     0.0000000000000000E+00 
    6.8749999999918421E-01     0.0000000000000000E+00     0.0000000000000000E+00 
    7.1874999999926570E-01     0.0000000000000000E+00     0.0000000000000000E+00 
    7.4999999999934730E-01     0.0000000000000000E+00     0.0000000000000000E+00 
    7.8124999999942890E-01     0.0000000000000000E+00     0.0000000000000000E+00 
    8.1249999999951039E-01     0.0000000000000000E+00     0.0000000000000000E+00 
    8.4374999999959199E-01     0.0000000000000000E+00     0.0000000000000000E+00 
    8.7499999999967359E-01     0.0000000000000000E+00     0.0000000000000000E+00 
    9.0624999999975520E-01     0.0000000000000000E+00     0.0000000000000000E+00 
    9.3749999999983680E-01     0.0000000000000000E+00     0.0000000000000000E+00 
    9.6874999999991840E-01     0.0000000000000000E+00     0.0000000000000000E+00 
    1.0000000000000000E+00     3.1249999999942091E-02     0.0000000000000000E+00 
    1.0000000000000000E+00     6.2499999999873469E-02     0.0000000000000000E+00 
    1.0000000000000000E+00     9.3749999999826514E-02     0.0000000000000000E+00 
    1.0000000000000000E+00     1.2499999999977961E-01     0.0000000000000000E+00 
    1.0000000000000000E+00     1.5624999999968961E-01     0.0000000000000000E+00 
    1.0000000000000000E+00     1.8749999999959971E-01     0.0000000000000000E+00 
    1.0000000000000000E+00     2.1874999999950970E-01     0.0000000000000000E+00 
    1.0000000000000000E+00     2.4999999999941969E-01     0.0000000000000000E+00 
    1.0000000000000000E+00     2.8124999999932920E-01     0.0000000000000000E+00 
    1.0000000000000000E+00     3.1249999999923850E-01     0.0000000000000000E+00 
    1.0000000000000000E+00     3.4374999999914790E-01     0.0000000000000000E+00 
    1.0000000000000000E+00     3.7499999999905720E-01     0.0000000000000000E+00 
    1.0000000000000000E+00     4.0624999999896660E-01     0.0000000000000000E+00 
    1.0000000000000000E+00     4.3749999999887590E-01     0.0000000000000000E+00 
    1.0000000000000000E+00     4.6874999999878530E-01     0.0000000000000000E+00 
    1.0000000000000000E+00     4.9999999999869471E-01     0.0000000000000000E+00 
    1.0000000000000000E+00     5.3124999999877620E-01     0.0000000000000000E+00 
    1.0000000000000000E+00     5.6249999999885780E-01     0.0000000000000000E+00 
    1.0000000000000000E+00     5.9374999999893940E-01     0.0000000000000000E+00 
    1.0000000000000000E+00     6.2499999999902101E-01     0.0000000000000000E+00 
    1.0000000000000000E+00     6.5624999999910261E-01     0.0000000000000000E+00 
    1.0000000000000000E+00     6.8749999999918421E-01     0.0000000000000000E+00 
    1.0000000000000000E+00     7.1874999999926570E-01     0.0000000000000000E+00 
    1.0000000000000000E+00     7.4999999999934730E-01     0.0000000000000000E+00 
    1.0000000000000000E+00     7.8124999999942890E-01     0.0000000000000000E+00 
    1.0000000000000000E+00     8.1249999999951039E-01     0.0000000000000000E+00 
    1.0000000000000000E+00     8.4374999999959199E-01     0.0000000000000000E+00 
    1.0000000000000000E+00     8.7499999999967359E-01     0.0000000000000000E+00 
    1.0000000000000000E+00     9.0624999999975520E-01     0.0000000000000000E+00 
    1.0000000000000000E+00     9.3749999999983680E-01     0.0000000000000000E+00 
    1.0000000000000000E+00     9.6874999999991840E-01     0.0000000000000000E+00 
    9.6875000000003686E-01     1.0000000000000000E+00     0.0000000000000000E+00 
    9.3750000000011691E-01     1.0000000000000000E+00     0.0000000000000000E+00 
    9.0625000000015765E-01     1.0000000000000000E+00     0.0000000000000000E+00 
    8.7500000000017863E-01     1.0000000000000000E+00     0.0000000000000000E+00 
    8.4375000000028044E-01     1.0000000000000000E+00     0.0000000000000000E+00 
    8.1250000000040856E-01     1.0000000000000000E+00     0.0000000000000000E+00 
    7.8125000000054956E-01     1.0000000000000000E+00     0.0000000000000000E+00 
    7.5000000000066480E-01     1.0000000000000000E+00     0.0000000000000000E+00 
    7.1875000000086831E-01     1.0000000000000000E+00     0.0000000000000000E+00 
    6.8750000000102829E-01     1.0000000000000000E+00     0.0000000000000000E+00 
    6.5625000000114431E-01     1.0000000000000000E+00     0.0000000000000000E+00 
    6.2500000000129829E-01     1.0000000000000000E+00     0.0000000000000000E+00 
    5.9375000000147926E-01     1.0000000000000000E+00     0.0000000000000000E+00 
    5.6250000000168354E-01     1.0000000000000000E+00     0.0000000000000000E+00 
    5.3125000000188671E-01     1.0000000000000000E+00     0.0000000000000000E+00 
    5.0000000000205835E-01     1.0000000000000000E+00     0.0000000000000000E+00 
    4.6875000000192979E-01     1.0000000000000000E+00     0.0000000000000000E+00 
    4.3750000000180111E-01     1.0000000000000000E+00     0.0000000000000000E+00 
    4.0625000000167238E-01     1.0000000000000000E+00     0.0000000000000000E+00 
    3.7500000000154382E-01     1.0000000000000000E+00     0.0000000000000000E+00 
    3.4375000000141509E-01     1.0000000000000000E+00     0.0000000000000000E+00 
    3.1250000000128642E-01     1.0000000000000000E+00     0.0000000000000000E+00 
    2.8125000000115769E-01     1.0000000000000000E+00     0.0000000000000000E+00 
    2.5000000000102918E-01     1.0000000000000000E+00     0.0000000000000000E+00 
    2.1875000000090050E-01     1.0000000000000000E+00     0.0000000000000000E+00 
    1.8750000000077180E-01     1.0000000000000000E+00     0.0000000000000000E+00 
    1.5625000000064329E-01     1.0000000000000000E+00     0.0000000000000000E+00 
    1.2500000000051459E-01     1.0000000000000000E+00     0.0000000000000000E+00 
    9.3750000000385914E-02     1.0000000000000000E+00     0.0000000000000000E+00 
    6.2500000000257239E-02     1.0000000000000000E+00     0.0000000000000000E+00 
    3.1250000000128557E-02     1.0000000000000000E+00     0.0000000000000000E+00 
    0.0000000000000000E+00     9.6875000000003686E-01     0.0000000000000000E+00 
    0.0000000000000000E+00     9.3750000000011691E-01     0.0000000000000000E+00 
    0.0000000000000000E+00     9.0625000000015765E-01     0.0000000000000000E+00 
    0.0000000000000000E+00     8.7500000000017863E-01     0.0000000000000000E+00 
    0.0000000000000000E+00     8.4375000000028044E-01     0.0000000000000000E+00 
    0.0000000000000000E+00     8.1250000000040856E-01     0.0000000000000000E+00 
    0.0000000000000000E+00     7.8125000000054956E-01     0.0000000000000000E+00 
    0.0000000000000000E+00     7.5000000000066480E-01     0.0000000000000000E+00 
    0.0000000000000000E+00     7.1875000000086831E-01     0.0000000000000000E+00 
    0.0000000000000000E+00     6.8750000000102829E-01     0.0000000000000000E+00 
    0.0000000000000000E+00     6.5625000000114431E-01     0.0000000000000000E+00 
    0.0000000000000000E+00     6.2500000000129829E-01     0.0000000000000000E+00 
    0.0000000000000000E+00     5.9375000000147926E-01     0.0000000000000000E+00 
    0.0000000000000000E+00     5.6250000000168354E-01     0.0000000000000000E+00 
    0.0000000000000000E+00     5.3125000000188671E-01     0.0000000000000000E+00 
    0.0000000000000000E+00     5.0000000000205835E-01     0.0000000000000000E+00 
    0.0000000000000000E+00     4.6875000000192979E-01     0.0000000000000000E+00 
    0.0000000000000000E+00     4.3750000000180111E-01     0.0000000000000000E+00 
    0.0000000000000000E+00     4.0625000000167238E-01     0.0000000000000000E+00 
[...]
CELL_DATA 2795 
SCALARS Pressure double 1 
LOOKUP_TABLE default 

    8.1245522692417698E+00 
    1.9825875102418138E+01 
    1.3549991597624139E+01 
    1.3210737584795083E+01 
    1.0250977285820927E+01 
    1.9511673114097416E+01 
    2.0630304429274492E+01 
    7.1352456660628203E+00 
    1.4160120448595405E+01 
    1.0593430279261707E+01 
    8.8510048562831436E+00 
    1.9091441920336081E+01 
    1.9686163734041926E+01 
    1.9459077446302960E+01 
    1.2348087490875063E+01 
    6.9972148668497578E+00 
    1.2070326588818153E+01 
    9.4943802290689696E+00 
    1.8469447600306925E+01 
    1.3524596222823922E+01 
    1.3409374772393051E+01 
    1.9347033426021319E+01 
    1.2831550286099914E+01 
    4.4743018595800071E-01 
    1.9104436235607487E+01 
    1.9649861387710303E+01 
    2.0678057366390050E+01 
    8.4813013344185890E+00 
    1.8944615565917260E+01 
    2.0689871494488379E+01 
    1.3771122582094510E+01 
    1.3746956919463615E+01 
    9.2449541724726991E+00 
    1.3509362181668674E+01 
    4.0563173013033627E+00 
    1.2078098261365469E+01 
    1.3490961286816365E+01 
    2.0745263798697543E+01 
    2.0598171431449494E+01 
    1.9112463064988301E+01 
    1.0116295915648513E+01 
    1.9196187344591959E+01 
    9.2910887639314355E-01 
    1.3514888898768325E+01 
    2.0405658100539064E+01 
    1.9976250627717999E+01 
    1.9073525735766609E+01 
    1.4616881953699158E+01 
    1.9103955549267695E+01 
    1.2361904884297248E+01 
    1.1739249135314065E+01 
    1.3705382184820413E+01 
    1.3398101421843236E+01 
    1.2139942144750810E+01 
    1.3859871267197697E+01 
    1.8130582360454202E+01 
    1.5938143264867474E+01 
    1.0314351339916501E+01 
    1.9362607365539944E+01 
    1.9218259453826683E+01 
    1.3148689188891474E+01 
    1.2979064883827595E+01 
    1.3079252925533627E+01 
    2.0551247068929136E+01 
    2.0942036911440333E+01 
    1.2085148267289989E+01 
    1.3703252108414150E+01 
    1.8736798023824903E+01 
    1.5742079864883443E+01 
    1.3062951700881175E+01 
    2.0896693488201532E+01 
    1.9375417280237624E+01 
    1.1906265160087079E+01 
    2.0113276350347686E+01 
    1.4167886450430352E+01 
    1.8921129876736956E+01 
    2.0768376552928146E+01 
    1.4229145812688483E+01 
    8.2227898296127826E+00 
    1.3724421052769793E+01 
    2.0609337893951505E+01 
    2.0960989110452150E+01 
    1.2112452445245490E+01 
    1.3644978117363690E+01 
    2.1020114067551148E+01 
    1.3486997223993859E+01 
    1.2957267717475993E+01 
    1.6344961989889359E+01 
    7.8361712817687055E+00 
    1.1775156817091764E+01 
    1.3640690837222150E+01 
    1.4333857954891728E+01 
    2.2881348230114199E+01 
    9.9194749225579280E+00 
    1.3712363730232575E+01 
    1.9037501605820420E+01 
    1.9589640721927633E+01 
    8.5918731439882929E+00 
    1.3321317720570827E+01 
    1.3679881441607145E+01 
    1.9636684445675670E+01 
    1.3664506689753807E+01 
    1.9491457695778788E+01 
    4.8528473234723908E+00 
    8.5936799400806567E+00 
    1.3965975872452374E+01 
    1.9838257227350219E+01 
    1.2030265949950032E+01 
    1.2825853373147245E+01 
    1.3635202088414633E+01 
    1.2912376326842669E+01 
    1.5465583967929291E+01 
    1.2456121040125661E+01 
    1.1916859243040093E+01 
    9.0399425332103487E+00 
    1.6402765099520501E+01 
    1.3753359516076472E+01 
    2.0434507410460323E+01 
    1.1623422586377965E+01 
    1.3182175434195871E+01 
    1.9386375881356475E+01 
    1.0785826370196787E+01 
    2.0064912408185862E+01 
    1.3567196458241172E+01 
    1.3091735599379701E+01 
    1.9598973410501213E+01 
    1.3738820687408602E+01 
    2.0769928460412707E+01 
    1.6378283774701160E+01 
    1.7864131646511314E+01 
    2.0702306856642430E+01 
    9.9457152371978381E+00 
    1.3989250822592936E+01 
    1.9619827709392009E+01 
    3.6025140831649947E+00 
    1.3831954548381576E+01 
    2.0652882036141232E+01 
    1.3125170834750110E+01 
    1.5166914192350172E+01 
    8.4612925917095279E+00 
    1.9054403446809197E+01 
    2.3465543291817863E+01 
    1.7070119857376383E+01 
    1.3129934929147717E+01 
    1.1623627857075853E+01 
    1.4701710203087277E+01 
    1.3586363374280964E+01 
    8.9422223794889693E+00 
    2.0704914563748407E+01 
    1.9548937065187868E+01 
    1.9041725760253289E+01 
    1.4331339124621191E+01 
    1.1864483344055090E+01 
    1.3402520996793335E+01 
    2.0142256861423313E+01 
    1.2237468429606629E+01 
    1.3723471703793360E+01 
    1.2481131893128305E+01 
    1.6107212572856827E+01 
    2.3451680467635917E+01 
    1.9019928777393080E+01 
    1.1695682192302115E+01 
    1.9912112638911029E+01 
    1.9779126214259353E+01 
    1.9894199008472867E+01 
    2.1298192318624555E+01 
    2.2000621160404371E+01 
    1.9934830991220448E+01 
    1.3693558851472293E+01 
    1.4899747122103678E+01 
    1.9671086430952158E+01 
    2.0417398509894493E+01 
    9.3634714823942140E+00 
    1.9068151645902880E+01 
    2.0072241405837971E+01 
    9.0964359709905427E+00 
    2.1223698421983581E+01 
    2.1159111660906991E+01 
    1.8572828950285192E+01 
    1.4073136949377707E+01 
    3.3651457226964081E+00 
    2.0662095385582393E+01 
    1.3894002247315065E+01 
    2.0859387392552829E+01 
    1.3027162825070079E+01 
    2.0338283516197709E+01 
    1.1653201325088234E+00 
    1.7855897109627129E+01 
    1.3043066727027027E+01 
    1.1803192400841867E+01 
    1.1468223271659326E+01 
    1.3529656428922705E+01 
    1.4960019814138684E+01 
    1.4319404218192300E+01 
    9.1573391284682497E+00 
    2.0428726784617783E+01 
    1.9659118118072190E+01 
    1.5900846967394713E+01 
    1.3955298236400351E+01 
    1.8110418166806557E+00 
    1.0470070526341956E+01 
    6.8981243582089871E+00 
    2.0707903039637447E+01 
    1.5323077996013215E+01 
    1.9549835777570628E+01 
    1.9756333750853607E+01 
    1.2346476444793526E+01 
    1.6035197377190038E+01 
    1.9016439147749132E+01 
    2.1138325658850956E+01 
    8.4508804660387895E+00 
    1.7174508593104939E+01 
    1.4253212752115980E+01 
    7.4121127041935786E+00 
    1.2343195688339039E+01 
    1.6806388962450320E+01 
    1.9699640790837751E+01 
    1.3586301175679143E+01 
    1.9862522774917373E+01 
    1.9513620764320432E+01 
    1.9440288291968564E+01 
    1.3405277168438673E+01 
    1.1671754918475767E+01 
    1.9057688149358736E+01 
    1.1896910888477676E+01 
    1.3676081005676062E+01 
    1.1639312166584682E+01 
    1.3679868676187310E+01 
    1.9770268307041849E+01 
    8.0849793645031252E+00 
    1.2210137387227315E+01 
    2.0576110622274427E+01 
    1.3411985274448652E+01 
    1.5185401636007095E+01 
    8.2937933077249983E+00 
    1.1993966041263597E+01 
    1.9479248515962695E+01 
    1.9942921276037215E+01 
    6.7636408320764936E+00 
    1.3431891481889529E+01 
    1.1694398721552892E+01 
    2.1703944424921694E+01 
    2.0975218058837022E+01 
    2.2042154654639130E+01 
    1.3454721907439213E+01 
    1.9729688530791709E+01 
    1.8924478366117498E+01 
    1.3276497128459964E+01 
    1.9038928408120150E+01 
    1.3955780906015487E+01 
    7.4948171908783952E+00 
    1.3896225286830889E+01 
    2.0570578601391155E+01 
    1.9031705267267309E+01 
    8.7946809336547780E+00 
    1.9083589778913090E+01 
    1.4996112372120136E+01 
    1.3803826064884872E+01 
    1.3219041198503259E+01 
    1.8797277089899872E+01 
    1.4488207697051461E+01 
    1.9063837708093782E+01 
    1.3435700916448646E+01 
    7.7537392735859409E+00 
    1.3766431359245514E+01 
    1.1482120214515973E+01 
    1.7103241847502712E+01 
    2.0834424183317445E+01 
    1.9060309682110429E+01 
    2.0643786677506377E+01 
    1.3337831484758409E+01 
    8.5639694591458912E+00 
    8.6926124944858021E+00 
    1.4050518763186259E+01 
    1.3641307914708111E+01 
    1.8367191839419759E+00 
    1.8174844052696002E+01 
    2.1349146515020212E+01 
    1.3052232716215020E+01 
    7.8853614908292524E+00 
    1.5883693524943562E+01 
    1.9073983483529712E+01 
    9.5818468347209027E+00 
    6.1672900675612281E+00 
    1.3627530661081648E+01 
    1.9211265282773578E+01 
    2.0310898192455603E+01 
    1.9962929951256282E+01 
    1.9946890594621919E+01 
    9.2854218707310245E+00 
    1.3798809928383305E+01 
    1.8507611486925320E+01 
    1.0376931708434714E+01 
    1.9663712798049648E+01 
    1.6347745229151894E+01 
    8.8269808333043880E+00 
    1.9182207950303390E+01 
    2.0756385568623529E+01 
    1.9312728555702293E+01 
    9.1735069900436681E+00 
    1.3698619633361650E+01 
    1.0214905902440673E+01 
    1.2857829692096461E+01 
    1.9065627818104922E+01 
    1.9045704039814861E+01 
    9.2425504675148265E+00 
    2.0399055212045017E+01 
    1.4389884197337857E+01 
    1.9122537605008826E+01 
    2.0477136811453672E+01 
    1.9091451792032707E+01 
    1.7422571128971473E+01 
    2.1788758058954453E+01 
    1.2970850699507960E+01 
    2.0598029279106029E+01 
    1.9146775000805640E+01 
    2.0708301190579821E+01 
    2.0386756237430046E+01 
    1.3113797519989715E+01 
    1.3536201017408130E+01 
    1.3041262308119483E+01 
    1.6660559785883091E+01 
    4.8853452909427482E+00 
    1.3965746883905574E+01 
    2.1943993916612577E+01 
    1.3962088914242672E+01 
    1.4218132582106769E+01 
    2.0668517683613121E+01 
    2.0982970982822284E+01 
    1.2822356118240808E+01 
    1.9089281860861028E+01 
    1.9045260014835044E+01 
    1.4200842893545159E+01 
    2.0312607883462938E+01 
    9.2915047714602679E+00 
    5.8834016963672990E+00 
    1.4590420248988536E+01 
    1.3977798740140749E+01 
    1.9033119560880891E+01 
    8.5723652529610632E+00 
    1.9855629581601747E+01 
    5.9955893611080437E+00 
    1.3901519888121779E+01 
    1.3111302726924539E+01 
    1.3671900774423399E+01 
    2.3508718971509751E+01 
    4.7287909188297963E+00 
    1.3854814197941202E+01 
    1.6739086377410718E+01 
    1.3202332225884849E+01 
    1.0220942689365314E+01 
    2.0125931998592630E+01 
    2.2984504995663720E+01 
    2.0317531356962888E+01 
    1.3771755860120074E+01 
    7.3784386308224290E+00 
    2.2813421629071254E+01 
    1.9638996969427204E+01 
    9.6295684594313791E+00 
    1.3327544473838007E+01 
    2.1274279597599222E+01 
    4.0021646282732313E+00 
    1.4048959372617734E+01 
    2.0387055007845284E+01 
    1.3690770084301745E+01 
    1.1748139124442670E+01 
    1.3908285746806262E+01 
    1.8595078409602031E+01 
    1.3670968895781520E+01 
    6.4601021481209511E+00 
    1.1526333934812409E+00 
    9.7856895320745956E+00 
    2.1587783062924899E+01 
    1.3040430295409656E+01 
    1.5574285885368736E+01 
    1.4899725752016181E+01 
    1.7187845338627586E+01 
    1.3706374159953393E+01 
    1.9496994419917744E+01 
    2.3524907904032716E+01 
    1.6230479305161150E+01 
    2.0556641949961435E+01 
    6.7006008070157363E-01 
    1.9046746848553880E+01 
    7.2018843829131161E+00 
    2.2152128264578330E+01 
    1.3873136162473253E+01 
    1.2005501176203786E+01 
    1.0445863240061062E+01 
    6.8388330679926446E+00 
    1.5232109986459003E+01 
    1.0482321854261961E+01 
    1.6946716621940062E+01 
    2.8225622315471015E+00 
    1.5047722636386538E+01 
    1.8909435807505751E+01 
    7.8755750668303026E+00 
    1.9732464612777736E+01 
    2.1857299626057436E+01 
    1.9553858923283634E+01 
    1.3685931447080561E+01 
    1.3664281748452517E+01 
    1.3863385910232109E+01 
    7.4998722712924115E+00 
    1.2643933780674935E+01 
    1.2412062894521915E+01 
    1.3848560145204557E+01 
    1.2941006766291077E+01 
    8.5998378201566139E-01 
    8.3774041331199580E+00 
    1.3470620419220099E+01 
    1.3813799610323116E+01 
    1.7469562449731871E+01 
    2.6153073587144604E+00 
    1.4145366690562668E+01 
    1.3987418592066598E+01 
    4.5396060491178511E+00 
    1.9339127350048511E+01 
    1.1919207317579385E+01 
    1.3820431642915354E+01 
    1.9631263522356274E+01 
    6.8672524694934127E+00 
    1.9488890962258061E+01 
    1.2100126814464771E+01 
    1.1783362172892826E+00 
    1.3124927895520155E+01 
    2.0470756680039440E+01 
    1.9052975947644534E+01 
    1.9087399916422669E+01 
    1.4325011719164911E+01 
    1.3904883233182149E+01 
    1.1899950423994333E+01 
    9.1871683145862768E+00 
    1.9809821301196223E+01 
    1.3318171682315780E+01 
    8.8774909274538309E+00 
    1.9077055636399361E+01 
    2.0145595488659989E+01 
    1.4081871890258871E+01 
    1.3470127676712654E+01 
    2.3382895991562986E+01 
    1.4202174521705679E+01 
    1.9830027365305661E+01 
    1.1234447880324748E+01 
    2.3555021786760012E+01 
    8.6419965722195968E+00 
    1.2456747019191065E+01 
    9.7424801229081748E+00 
    1.4522478503761800E+01 
    1.1394884471975695E+01 
    2.3536776963392029E+01 
    1.4268634173963513E+01 
    1.8582353416040021E+01 
    8.8905163497675961E+00 
    1.3699255061516240E+01 
    1.9590339989193545E+01 
    1.1429712637132189E+01 
    9.6322259259070773E+00 
    1.5504153877073351E+01 
    1.9813096027164658E+01 
    9.6290678326776735E+00 
    1.3142949894288856E+01 
    1.3517652550461982E+01 
    1.9005615017848108E+01 
    1.3230022139244793E+01 
    1.9891458832109844E+01 
    2.0750294128011440E+01 
    1.1934445726594355E+01 
    1.1675207209847425E+01 
    1.0554691824944301E+01 
    1.9235613340501171E+01 
    1.4012264597675987E+01 
    2.3031194655146582E+01 
    1.7649274185479747E+01 
    1.9523660830324268E+01 
    2.2657761658904555E+01 
    2.1865282475217949E+01 
    1.3753657945696032E+01 
    1.3827682838452528E+01 
    1.8590180790048276E+01 
    1.9112740707284367E+01 
    2.0074374339245292E+01 
    1.9670009917512758E+01 
    2.3412119803037513E+01 
    1.4201505269529772E+01 
    1.2095665868752686E+01 
    1.4167831868855382E+01 
    2.0619991118703755E+01 
    1.3863556501851907E+01 
    7.6669213564524590E+00 
    1.3663556832151459E+01 
    2.1236448206951909E+01 
    1.4035479830885860E+01 
    1.2104548579633612E+01 
    1.3449692568005105E+01 
    2.1383919176387174E+01 
    1.9298915522989621E+01 
    1.1381203309284862E+01 
    2.1562282085704176E+01 
    1.3786430516518914E+01 
    2.0041439003930186E+01 
    2.1397819697492977E+01 
    1.4642702262864715E+01 
    6.8813670582800519E+00 
    1.5251915735916439E+01 
    7.1467120151573926E+00 
    1.3921480342716889E+01 
    1.3696866101487963E+01 
    1.6114784919355856E+01 
    7.6117440740293585E+00 
    1.7204181102910642E+01 
    1.3714417527678583E+01 
    1.9654808557082720E+01 
    1.4833680602246535E+01 
    1.0982433320183892E+01 
    1.3271536335443164E+01 
    1.4531960504131430E+01 
    1.4344817578588613E+01 
    2.0855544541866163E+01 
    1.1491289743159356E+01 
    1.1268163620119541E+01 
    8.0557255104008032E+00 
    2.0107123359720603E+01 
    1.3330640648916752E+01 
    1.8942078148605152E+01 
    1.3660627296647156E+01 
    8.9119702593113548E+00 
    1.9316801382472171E+01 
    1.3634782037655441E+01 
    9.8418604591151002E+00 
    1.0526763562100264E+01 
    1.0959137540931097E+01 
    1.9703535692015063E+01 
    1.3851271529945324E+01 
    2.0571967613710516E+01 
    1.3590827783494415E+01 
    1.3521736067962820E+01 
    1.3031911096419657E+01 
    1.9449927948351775E+01 
    1.3419558937986967E+01 
    1.1023876844543377E+01 
    2.1854962028302960E+01 
    1.9572434258209636E+01 
    9.0641264288979837E+00 
    3.3015420313929975E+00 
    1.3837304507974872E+01 
    1.2832676911760858E+01 
    1.1662265290181626E+01 
    1.2751735057589240E+01 
    1.9382454255172043E+01 
    1.3432195336521431E+01 
    1.2152117443208992E+01 
    1.9150748734428703E+01 
    8.9856494408565659E+00 
    1.8538140108606299E+01 
    1.2304926964032504E+01 
    1.0853061649292597E+01 
    1.1791569076550351E+01 
    2.0162251668123879E+01 
    1.3674564962942341E+01 
    1.3684640763443213E+01 
    7.7521122526672430E+00 
    8.4746695368104525E+00 
    1.7533871515140458E+01 
    1.3696172212712431E+01 
    1.3890961590657087E+01 
    2.1549648131950139E+01 
    1.1268920134411051E+01 
    1.3710435135028067E+01 
    9.3179742724949950E+00 
    9.6563872597332967E+00 
    1.9392135586542299E+01 
    1.3259941226216846E+01 
    9.4653631043025754E+00 
    1.4334515360185607E+01 
    1.3594988575830275E+01 
    1.9416140367977661E+01 
    2.1670248397369139E+01 
    1.2467687910162002E+00 
    1.3843942415976484E+01 
    1.3976367960977946E+01 
    1.9545280307660210E+01 
    1.3219763313822380E+01 
    1.3641468480072204E+01 
    2.0937792852050954E+01 
    1.1839862058627270E+01 
    9.5608104925281090E+00 
    1.6506756355394295E+01 
    1.9075015552894570E+01 
    2.0700953609831952E+01 
    2.1099893708031590E+01 
    1.3629441482876034E+01 
    1.3832040585376122E+01 
    1.5300253583539899E+01 
    8.5884407237990548E+00 
    1.9289737984521395E+01 
    1.0402039817924701E+01 
    8.9658311379054432E+00 
    1.7189897067556124E+01 
    1.6092241681738106E+01 
    8.7830150018572724E+00 
    1.9133107039583923E+01 
    2.0682408205287015E+01 
    1.4223340519020068E+01 
    2.1803924831847876E+01 
    1.9186548160549602E+01 
    1.3286511991268739E+01 
    2.0216821789023566E+01 
    9.6264751989877251E+00 
    1.9101431609877228E+01 
    1.3842342304207632E+01 
    1.3792220435834336E+01 
    2.1780213221455288E+01 
    1.3386197432655882E+01 
    1.6794341535481962E+01 
    1.1761976581157455E+01 
    2.0857105317920229E+01 
    1.8927297581172677E+01 
    1.2311444998603063E+01 
    1.9048402827161169E+01 
    1.2303461893036292E+01 
    1.3648461346459532E+01 
    2.0622656127693034E+01 
    1.9658645957374755E+01 
    2.0686352534883142E+01 
    1.9548446154497228E+01 
    1.2659796073231210E+01 
    1.2943722069745093E+01 
    2.0698483585164901E+01 
    1.3121969685303954E+01 
    1.8766927848541616E+01 
    1.3359257768191416E+01 
    4.9411383095236694E+00 
    9.0813870505943814E+00 
    8.3818942450155109E+00 
    2.0628309775278392E+01 
    2.1682143202992826E+01 
    1.9069450008728637E+01 
    1.5762572524486581E+01 
    1.9514079718309613E+01 
    1.9145838558711880E+01 
    2.0087699073418349E+01 
    7.4403687411438062E+00 
    4.5759174324598817E+00 
    1.5455572469180108E+01 
    1.3423588013100542E+01 
    1.9395649581627822E+01 
    1.9391299104174646E+01 
    1.3999545609680615E+01 
    1.9452519918188578E+01 
    1.3824256751725715E+01 
    1.3718952713811930E+01 
    6.6181463536037493E+00 
    4.5405321572979460E+00 
    2.1377463737738708E+01 
    1.0303858908611101E+01 
    1.2237028520407479E+01 
    1.3877552369672292E+01 
    2.3387694344634674E+01 
    1.3988266092843674E+01 
    1.4235179755847467E+01 
    5.2731763536004461E+00 
    1.3988084579599837E+01 
    1.4005289346220772E+01 
    1.9777598359429685E+01 
    1.1799513294780844E+01 
    1.3084506581764641E+01 
    2.1603904189099591E+01 
    1.3855180015399565E+01 
    1.9092444198436862E+01 
    1.9434212472736547E+01 
    1.6882710988591452E+01 
    1.1377625888475725E+01 
    1.9545044078195016E+01 
    1.3590653439191529E+01 
    1.9346451439415745E+01 
    1.8980069428131721E+01 
    2.0656851185141385E+01 
    1.9551011436375447E+01 
    1.7889684403691543E+01 
    1.3839675707800321E+01 
    8.7202548240982889E+00 
    2.3239305829116667E+01 
    1.0649389854932791E+01 
    2.0576947890303419E+01 
    1.3836261299915819E+01 
    1.1346554492664485E+01 
    6.2888184330926782E+00 
    1.4050230844481632E+01 
    1.9527949858824165E+01 
    1.9508944424791260E+01 
    1.3624577289051610E+01 
    1.3828603836626440E+01 
    2.1864795086668384E+01 
    2.1020230171203767E+01 
    1.4012929095578672E+01 
    4.2598583412963533E+00 
    1.7756921623706635E+01 
    2.3531510023189341E+01 
    1.3844035029451327E+01 
    1.6298972326071130E+01 
    1.3219575306404622E+01 
    2.3066461529768450E+01 
    2.1131709044851018E+01 
    2.0800738691590936E+01 
    1.4040643167598054E+01 
    5.8935974976879617E+00 
    1.3165209402414153E+01 
    1.3249509583537613E+01 
    1.3298896258031128E+01 
    4.6835263888918179E+00 