# vtk DataFile Version 2.0
Pressure Field Data 
ASCII 
DATASET UNSTRUCTURED_GRID 

POINTS 2860 double 

    0.0000000000000000E+00     0.0000000000000000E+00     0.0000000000000000E+00 
    1.0000000000000000E+00     0.0000000000000000E+00     0.0000000000000000E+00 
    1.0000000000000000E+00     1.0000000000000000E+00     0.0000000000000000E+00 
    0.0000000000000000E+00     1.0000000000000000E+00     0.0000000000000000E+00 
    2.5000000000000000E-01     2.5000000000000000E-01     0.0000000000000000E+00 
    7.5000000000000000E-01     2.5000000000000000E-01     0.0000000000000000E+00 
    7.5000000000000000E-01     7.5000000000000000E-01     0.0000000000000000E+00 
    2.5000000000000000E-01     7.5000000000000000E-01     0.0000000000000000E+00 
    3.1249999999942091E-02     0.0000000000000000E+00     0.0000000000000000E+00 
    6.2499999999873469E-02     0.0000000000000000E+00     0.0000000000000000E+00 
    9.3749999999826514E-02     0.0000000000000000E+00     0.0000000000000000E+00 
    1.2499999999977961E-01     0.0000000000000000E+00     0.0000000000000000E+00 
    1.5624999999968961E-01     0.0000000000000000E+00     0.0000000000000000E+00 
    1.8749999999959971E-01     0.0000000000000000E+00     0.0000000000000000E+00 
    2.1874999999950970E-01     0.0000000000000000E+00     0.0000000000000000E+00 
    2.4999999999941969E-01     0.0000000000000000E+00     0.0000000000000000E+00 
    2.8124999999932920E-01     0.0000000000000000E+00     0.0000000000000000E+00 
    3.1249999999923850E-01     0.0000000000000000E+00     0.0000000000000000E+00 
    3.4374999999914790E-01     0.0000000000000000E+00     0.0000000000000000E+00 
    3.7499999999905720E-01     0.0000000000000000E+00     0.0000000000000000E+00 
    4.0624999999896660E-01     0.0000000000000000E+00     0.0000000000000000E+00 
    4.3749999999887590E-01     0.0000000000000000E+00     0.0000000000000000E+00 
    4.6874999999878530E-01     0.0000000000000000E+00     0.0000000000000000E+00 
    4.9999999999869471E-01     0.0000000000000000E+00     0.0000000000000000E+00 
    5.3124999999877620E-01     0.0000000000000000E+00     0.0000000000000000E+00 
    5.6249999999885780E-01     0.0000000000000000E+00     0.0000000000000000E+00 
    5.9374999999893940E-01     0.0000000000000000E+00     0.0000000000000000E+00 
    6.2499999999902101E-01     0.0000000000000000E+00     0.0000000000000000E+00 
    6.5624999999910261E-01     0.0000000000000000E+00     0.0000000000000000E+00 
    6.8749999999918421E-01     0.0000000000000000E+00     0.0000000000000000E+00 
    7.1874999999926570E-01     0.0000000000000000E+00     0.0000000000000000E+00 
    7.4999999999934730E-01     0.0000000000000000E+00     0.0000000000000000E+00 
    7.8124999999942890E-01     0.0000000000000000E+00     0.0000000000000000E+00 
    8.1249999999951039E-01     0.0000000000000000E+00     0.0000000000000000E+00 
    8.4374999999959199E-01     0.0000000000000000E+00     0.0000000000000000E+00 
    8.7499999999967359E-01     0.0000000000000000E+00     0.0000000000000000E+00 
    9.0624999999975520E-01     0.0000000000000000E+00     0.0000000000000000E+00 
    9.3749999999983680E-01     0.0000000000000000E+00     0.0000000000000000E+00 
    9.6874999999991840E-01     0.0000000000000000E+00     0.0000000000000000E+00 
    1.0000000000000000E+00     3.1249999999942091E-02     0.0000000000000000E+00 
    1.0000000000000000E+00     6.2499999999873469E-02     0.0000000000000000E+00 
    1.0000000000000000E+00     9.3749999999826514E-02     0.0000000000000000E+00 
    1.0000000000000000E+00     1.2499999999977961E-01     0.0000000000000000E+00 
    1.0000000000000000E+00     1.5624999999968961E-01     0.0000000000000000E+00 
    1.0000000000000000E+00     1.8749999999959971E-01     0.0000000000000000E+00 
    1.0000000000000000E+00     2.1874999999950970E-01     0.0000000000000000E+00 
    1.0000000000000000E+00     2.4999999999941969E-01     0.0000000000000000E+00 
    1.0000000000000000E+00     2.8124999999932920E-01     0.0000000000000000E+00 
    1.0000000000000000E+00     3.1249999999923850E-01     0.0000000000000000E+00 
    1.0000000000000000E+00     3.4374999999914790E-01     0.0000000000000000E+00 
    1.0000000000000000E+00     3.7499999999905720E-01     0.0000000000000000E+00 
    1.0000000000000000E+00     4.0624999999896660E-01     0.0000000000000000E+00 
    1.0000000000000000E+00     4.3749999999887590E-01     0.0000000000000000E+00 
    1.0000000000000000E+00     4.6874999999878530E-01     0.0000000000000000E+00 
    1.0000000000000000E+00     4.9999999999869471E-01     0.0000000000000000E+00 
    1.0000000000000000E+00     5.3124999999877620E-01     0.0000000000000000E+00 
    1.0000000000000000E+00     5.6249999999885780E-01     0.0000000000000000E+00 
    1.0000000000000000E+00     5.9374999999893940E-01     0.0000000000000000E+00 
    1.0000000000000000E+00     6.2499999999902101E-01     0.0000000000000000E+00 
    1.0000000000000000E+00     6.5624999999910261E-01     0.0000000000000000E+00 
    1.0000000000000000E+00     6.8749999999918421E-01     0.0000000000000000E+00 
    1.0000000000000000E+00     7.1874999999926570E-01     0.0000000000000000E+00 
    1.0000000000000000E+00     7.4999999999934730E-01     0.0000000000000000E+00 
    1.0000000000000000E+00     7.8124999999942890E-01     0.0000000000000000E+00 
    1.0000000000000000E+00     8.1249999999951039E-01     0.0000000000000000E+00 
    1.0000000000000000E+00     8.4374999999959199E-01     0.0000000000000000E+00 
    1.0000000000000000E+00     8.7499999999967359E-01     0.0000000000000000E+00 
    1.0000000000000000E+00     9.0624999999975520E-01     0.0000000000000000E+00 
    1.0000000000000000E+00     9.3749999999983680E-01     0.0000000000000000E+00 
    1.0000000000000000E+00     9.6874999999991840E-01     0.0000000000000000E+00 
    9.6875000000003686E-01     1.0000000000000000E+00     0.0000000000000000E+00 
    9.3750000000011691E-01     1.0000000000000000E+00     0.0000000000000000E+00 
    9.0625000000015765E-01     1.0000000000000000E+00     0.0000000000000000E+00 
    8.7500000000017863E-01     1.0000000000000000E+00     0.0000000000000000E+00 
    8.4375000000028044E-01     1.0000000000000000E+00     0.0000000000000000E+00 
    8.1250000000040856E-01     1.0000000000000000E+00     0.0000000000000000E+00 
    7.8125000000054956E-01     1.0000000000000000E+00     0.0000000000000000E+00 
    7.5000000000066480E-01     1.0000000000000000E+00     0.0000000000000000E+00 
    7.1875000000086831E-01     1.0000000000000000E+00     0.0000000000000000E+00 
    6.8750000000102829E-01     1.0000000000000000E+00     0.0000000000000000E+00 
    6.5625000000114431E-01     1.0000000000000000E+00     0.0000000000000000E+00 
    6.2500000000129829E-01     1.0000000000000000E+00     0.0000000000000000E+00 
    5.9375000000147926E-01     1.0000000000000000E+00     0.0000000000000000E+00 
    5.6250000000168354E-01     1.0000000000000000E+00     0.0000000000000000E+00 
    5.3125000000188671E-01     1.0000000000000000E+00     0.0000000000000000E+00 
    5.0000000000205835E-01     1.0000000000000000E+00     0.0000000000000000E+00 
    4.6875000000192979E-01     1.0000000000000000E+00     0.0000000000000000E+00 
    4.3750000000180111E-01     1.0000000000000000E+00     0.0000000000000000E+00 
    4.0625000000167238E-01     1.0000000000000000E+00     0.0000000000000000E+00 
    3.7500000000154382E-01     1.0000000000000000E+00     0.0000000000000000E+00 
    3.4375000000141509E-01     1.0000000000000000E+00     0.0000000000000000E+00 
    3.1250000000128642E-01     1.0000000000000000E+00     0.0000000000000000E+00 
    2.8125000000115769E-01     1.0000000000000000E+00     0.0000000000000000E+00 
    2.5000000000102918E-01     1.0000000000000000E+00     0.0000000000000000E+00 
    2.1875000000090050E-01     1.0000000000000000E+00     0.0000000000000000E+00 
    1.8750000000077180E-01     1.0000000000000000E+00     0.0000000000000000E+00 
    1.5625000000064329E-01     1.0000000000000000E+00     0.0000000000000000E+00 
    1.2500000000051459E-01     1.0000000000000000E+00     0.0000000000000000E+00 
    9.3750000000385914E-02     1.0000000000000000E+00     0.0000000000000000E+00 
    6.2500000000257239E-02     1.0000000000000000E+00     0.0000000000000000E+00 
    3.1250000000128557E-02     1.0000000000000000E+00     0.0000000000000000E+00 
    0.0000000000000000E+00     9.6875000000003686E-01     0.0000000000000000E+00 
    0.0000000000000000E+00     9.3750000000011691E-01     0.0000000000000000E+00 
    0.0000000000000000E+00     9.0625000000015765E-01     0.0000000000000000E+00 
    0.0000000000000000E+00     8.7500000000017863E-01     0.0000000000000000E+00 
    0.0000000000000000E+00     8.4375000000028044E-01     0.0000000000000000E+00 
    0.0000000000000000E+00     8.1250000000040856E-01     0.0000000000000000E+00 
    0.0000000000000000E+00     7.8125000000054956E-01     0.0000000000000000E+00 
    0.0000000000000000E+00     7.5000000000066480E-01     0.0000000000000000E+00 
    0.0000000000000000E+00     7.1875000000086831E-01     0.0000000000000000E+00 
    0.0000000000000000E+00     6.8750000000102829E-01     0.0000000000000000E+00 
    0.0000000000000000E+00     6.5625000000114431E-01     0.0000000000000000E+00 
    0.0000000000000000E+00     6.2500000000129829E-01     0.0000000000000000E+00 
    0.0000000000000000E+00     5.9375000000147926E-01     0.0000000000000000E+00 
    0.0000000000000000E+00     5.6250000000168354E-01     0.0000000000000000E+00 
    0.0000000000000000E+00     5.3125000000188671E-01     0.0000000000000000E+00 
    0.0000000000000000E+00     5.0000000000205835E-01     0.0000000000000000E+00 
    0.0000000000000000E+00     4.6875000000192979E-01     0.0000000000000000E+00 
    0.0000000000000000E+00     4.3750000000180111E-01     0.0000000000000000E+00 
    0.0000000000000000E+00     4.0625000000167238E-01     0.0000000000000000E+00 
[...]
CELL_DATA 2795 
SCALARS Pressure double 1 
LOOKUP_TABLE default 

    5.3811594035768007E+00 
    1.2347294380345831E+01 
    8.7728353159814070E+00 
    8.3682185900094481E+00 
    6.6337971415535071E+00 
    1.2243950668100563E+01 
    1.2877663937858683E+01 
    4.8000253513705875E+00 
    9.2716844625701604E+00 
    7.0845055931350878E+00 
    6.0372159179413938E+00 
    1.2024364078692477E+01 
    1.2258568313365112E+01 
    1.2217129570313984E+01 
    8.0865672505496438E+00 
    4.7190737738256372E+00 
    7.6906110553953564E+00 
    6.4326582521819544E+00 
    1.1716008704921331E+01 
    8.7702818057358733E+00 
    8.6544802642189342E+00 
    1.2161142715429524E+01 
    8.1351154334513804E+00 
    3.1616071928430506E-01 
    1.1997282064446644E+01 
    1.2238641853546897E+01 
    1.2906076238226955E+01 
    5.8030315192579724E+00 
    1.1956360813983943E+01 
    1.2903955717376849E+01 
    8.8271959116870651E+00 
    9.0068791883587949E+00 
    6.2680279727267951E+00 
    8.7332148959352001E+00 
    2.7812512472628481E+00 
    7.6952206591455408E+00 
    8.7255162988050010E+00 
    1.2940383129705447E+01 
    1.2858032896023373E+01 
    1.2035369909409168E+01 
    6.5708788938903222E+00 
    1.1980066848770145E+01 
    6.5886935347043218E-01 
    8.5854595179414677E+00 
    1.2686795375650568E+01 
    1.2541233093079633E+01 
    1.2015233096765087E+01 
    9.5898961027018981E+00 
    1.2076976131544995E+01 
    7.8724233545041375E+00 
    7.4923732100725937E+00 
    8.9732794149272728E+00 
    8.4835703187059810E+00 
    7.7363978693812081E+00 
    8.9015116538050361E+00 
    1.1537540791662339E+01 
    1.0449769238111852E+01 
    6.6701846504070561E+00 
    1.2164590238719134E+01 
    1.2098854906487347E+01 
    8.4008153729051358E+00 
    8.4211578698662510E+00 
    8.2823722098355983E+00 
    1.2816365977000201E+01 
    1.3038508321079039E+01 
    7.6996883254102952E+00 
    8.9717757740808288E+00 
    1.1939305133524945E+01 
    1.0255196537677145E+01 
    8.4611024737924208E+00 
    1.3050784503117542E+01 
    1.2097130726532280E+01 
    7.5899106819794424E+00 
    1.2628313080765354E+01 
    9.1533678262334170E+00 
    1.1871106953950925E+01 
    1.2949508055959248E+01 
    9.0352861472071417E+00 
    5.4807907445446702E+00 
    8.9890639384294051E+00 
    1.2865319579865272E+01 
    1.3081016232620980E+01 
    7.7086604140142168E+00 
    8.9001166897868860E+00 
    1.3117919059635250E+01 
    8.7317523737989191E+00 
    8.2098210991923111E+00 
    1.0603709133075800E+01 
    5.2257480036479071E+00 
    7.5125625487043735E+00 
    8.9020154485684255E+00 
    9.3929679398438068E+00 
    1.4491094157339822E+01 
    6.4439380346392330E+00 
    8.9791899963377020E+00 
    1.1996483820124423E+01 
    1.2215535847751060E+01 
    5.6634206336683146E+00 
    8.6020055306403016E+00 
    8.9309897219952852E+00 
    1.2233878601238878E+01 
    8.9375960377111756E+00 
    1.2173520214191219E+01 
    3.4401416360402508E+00 
    5.8678964097295525E+00 
    9.1793043293739345E+00 
    1.2355430275433697E+01 
    7.6637620856432545E+00 
    8.2066260362125991E+00 
    8.9219428270082055E+00 
    8.1812773215840160E+00 
    1.0172510244346377E+01 
    7.9695215823082464E+00 
    7.5968435991897856E+00 
    5.9551428401406383E+00 
    1.0331601677488941E+01 
    9.0085375689710219E+00 
    1.2738029275076244E+01 
    7.6997147341482206E+00 
    8.3562801605681489E+00 
    1.2088263541770790E+01 
    6.9485417524481194E+00 
    1.2484372858106202E+01 
    8.8164090313273391E+00 
    8.2900532734050216E+00 
    1.2217691373020413E+01 
    9.0010689102363202E+00 
    1.2956369164422455E+01 
    1.0612766983012092E+01 
    1.1410882218453136E+01 
    1.2921135385711912E+01 
    6.4573697051136332E+00 
    9.1944666519575566E+00 
    1.2222146313544449E+01 
    2.5824507030632393E+00 
    8.8785989740013225E+00 
    1.2891203687248286E+01 
    8.3193827825704076E+00 
    9.5996954491314401E+00 
    5.6091630853173582E+00 
    1.1996055658118960E+01 
    1.4963671020696818E+01 
    1.1007824779478394E+01 
    8.3144597297820031E+00 
    7.4251254148177797E+00 
    9.5389484572389289E+00 
    8.8335847097862867E+00 
    6.1028422836157841E+00 
    1.2917322668607124E+01 
    1.2309579273138688E+01 
    1.1998003693637578E+01 
    9.4102297416483704E+00 
    7.5640421631674659E+00 
    8.6540094821493323E+00 
    1.2652637031708654E+01 
    7.7843069871608286E+00 
    8.7214327165955225E+00 
    7.9284337482671843E+00 
    1.0112658054026479E+01 
    1.4952335986391480E+01 
    1.1990551511398804E+01 
    7.5284982817661596E+00 
    1.2387841824031483E+01 
    1.2318678560893566E+01 
    1.2390363118159526E+01 
    1.3301329025805055E+01 
    1.3806483817502929E+01 
    1.2537835677461350E+01 
    8.9639815108015153E+00 
    9.4868943718157528E+00 
    1.2386835935766749E+01 
    1.2746607852452106E+01 
    6.3731555174558956E+00 
    1.2014810010393029E+01 
    1.2619055197745046E+01 
    6.2038847609688474E+00 
    1.3218617913699536E+01 
    1.3209932000574259E+01 
    1.1775720832535603E+01 
    9.2494404894866626E+00 
    2.2580685813018664E+00 
    1.2891434986995787E+01 
    9.1245398069894588E+00 
    1.3002883335008924E+01 
    8.2589807192433859E+00 
    1.2741554054693427E+01 
    8.0347476610478563E-01 
    1.1427652576773289E+01 
    8.4603238117032582E+00 
    7.5290490278984947E+00 
    7.3343795774776090E+00 
    8.7861829856882885E+00 
    9.8539200654153376E+00 
    9.0595591192574361E+00 
    6.0447221545495768E+00 
    1.2743330206926915E+01 
    1.2244974578776882E+01 
    1.0362930051309473E+01 
    9.1714280608819525E+00 
    1.3230796731035390E+00 
    6.7600312685011987E+00 
    4.6625073701469475E+00 
    1.2914833363564989E+01 
    9.9417630609500947E+00 
    1.2298358207665521E+01 
    1.2303181945468040E+01 
    7.8558634507023486E+00 
    1.0371138404562155E+01 
    1.1993876038855024E+01 
    1.3193022362142260E+01 
    5.5904908743455373E+00 
    1.0815399967067032E+01 
    9.0914144682653646E+00 
    4.9720149667073263E+00 
    7.8466805810378757E+00 
    1.0811114924564619E+01 
    1.2269722754134600E+01 
    8.8458709155149826E+00 
    1.2369501242578824E+01 
    1.2158590757958629E+01 
    1.2114230845760606E+01 
    8.6617917247995209E+00 
    7.4845647074573503E+00 
    1.2005091021547631E+01 
    7.5848857981508093E+00 
    8.9407550975152876E+00 
    7.4331620899723996E+00 
    8.6712298898327997E+00 
    1.2310527939726116E+01 
    5.5148040875166293E+00 
    7.7671871070148120E+00 
    1.2834498295592990E+01 
    8.6775359730492685E+00 
    9.8378627586305374E+00 
    5.6597815185312763E+00 
    7.6409763328621700E+00 
    1.2139062576122331E+01 
    1.2419744579414722E+01 
    4.6039957192101699E+00 
    8.6790108591920792E+00 
    7.4686745002736883E+00 
    1.3585462177625846E+01 
    1.3087644460240936E+01 
    1.3830807117653574E+01 
    8.7014791224954173E+00 
    1.2287740168325339E+01 
    1.1957379411550534E+01 
    8.5788874412477938E+00 
    1.1998165352719122E+01 
    9.1708309795829646E+00 
    5.0370323901048630E+00 
    8.8655419051878788E+00 
    1.2824151120068516E+01 
    1.1995384632406344E+01 
    6.0065403222102773E+00 
    1.2020821517276939E+01 
    9.8483221809194212E+00 
    8.8615274349079982E+00 
    8.3962269887915237E+00 
    1.1881177072854637E+01 
    9.3682301804087977E+00 
    1.2009478542315723E+01 
    8.5356255143460302E+00 
    5.2260447268297217E+00 
    9.0055762306464686E+00 
    7.3427166854504549E+00 
    1.1008236560087765E+01 
    1.2999946502641800E+01 
    1.2004295592326329E+01 
    1.2885050716159617E+01 
    8.6250429931696129E+00 
    5.8462497762154095E+00 
    5.9305020672429682E+00 
    9.0577180595896944E+00 
    8.9184754153709633E+00 
    1.2472682818784542E+00 
    1.1582114790257318E+01 
    1.3323996217435695E+01 
    8.2677327665986855E+00 
    5.2496865954405498E+00 
    1.0067764375538042E+01 
    1.2019545134274601E+01 
    6.2433339491120599E+00 
    4.2229325250546372E+00 
    8.8903808639733963E+00 
    1.2104387039191137E+01 
    1.2657439722411603E+01 
    1.2555070506479696E+01 
    1.2424022046104779E+01 
    6.0873078516169539E+00 
    8.8514407483420126E+00 
    1.1582924883766550E+01 
    6.9577900459706603E+00 
    1.2247113677504577E+01 
    1.0565224211948006E+01 
    6.0226247362778675E+00 
    1.2113782508355868E+01 
    1.2909030182747959E+01 
    1.2102649890056856E+01 
    6.0096190692375480E+00 
    8.9679668501778345E+00 
    6.6109549978892765E+00 
    8.4459258000391415E+00 
    1.2012216395434450E+01 
    1.2002066647620111E+01 
    6.0450902008571914E+00 
    1.2777252179263934E+01 
    9.4507488218790758E+00 
    1.2039183426960085E+01 
    1.2751165439382042E+01 
    1.2023557824832963E+01 
    1.1217870504391888E+01 
    1.3633573525859074E+01 
    8.2386754112246017E+00 
    1.2858047972618708E+01 
    1.2062558688965352E+01 
    1.2922865167270595E+01 
    1.2771368044932178E+01 
    8.3278050449414245E+00 
    8.7678384386317152E+00 
    8.2584598126492530E+00 
    1.0799779645873645E+01 
    3.4498019921812126E+00 
    8.9861981422465220E+00 
    1.3753568709376637E+01 
    9.1757163773035231E+00 
    9.3418246142306014E+00 
    1.2898350422363102E+01 
    1.3111489691040729E+01 
    8.2076051988056591E+00 
    1.2024526708405588E+01 
    1.1999068396335620E+01 
    9.3309420679389650E+00 
    1.2731406897669437E+01 
    6.3294588423683491E+00 
    4.0005928184965454E+00 
    9.5809551185907900E+00 
    9.1880965387767706E+00 
    1.2003906918843644E+01 
    5.6478886729332771E+00 
    1.2481709335550967E+01 
    4.0729923587838961E+00 
    9.1295667322092342E+00 
    8.3973767271198732E+00 
    8.9452847392989270E+00 
    1.5002912542146204E+01 
    3.3543506640391487E+00 
    8.8974041022712314E+00 
    1.0507200454662303E+01 
    8.5376496378058011E+00 
    6.6606524107075806E+00 
    1.2587420770226769E+01 
    1.4574670893642894E+01 
    1.2714655328924620E+01 
    8.8398879046975889E+00 
    4.9466301074090140E+00 
    1.4435981058333715E+01 
    1.2233559623055127E+01 
    6.3893572954770956E+00 
    8.4420480251273702E+00 
    1.3286782380157446E+01 
    2.8521467796011284E+00 
    9.2331368772620070E+00 
    1.2683156577053573E+01 
    8.9584570176038927E+00 
    7.7772899938599771E+00 
    8.9413909954675823E+00 
    1.1768514623371452E+01 
    8.9386278757658086E+00 
    4.4070192188778350E+00 
    7.7342451040231019E-01 
    6.6304199101923427E+00 
    1.3484098048111230E+01 
    8.2578064889861036E+00 
    1.0107293282298924E+01 
    9.6806335271643604E+00 
    1.1035595770198013E+01 
    8.9717253667604027E+00 
    1.2152011391074604E+01 
    1.5016834120494607E+01 
    1.0522512813741276E+01 
    1.2833674522709384E+01 
    4.6898400927696265E-01 
    1.2003757090393380E+01 
    4.8804676135624794E+00 
    1.3914342569388070E+01 
    8.9114663853296090E+00 
    7.8817908564717492E+00 
    6.7447819786453049E+00 
    4.6237922787501740E+00 
    9.9636285126511428E+00 
    7.0222647303690646E+00 
    1.0916713762077352E+01 
    1.8843966222123767E+00 
    9.8733787173558643E+00 
    1.1946050078351393E+01 
    5.3754804076819962E+00 
    1.2426361046805120E+01 
    1.3729950080527875E+01 
    1.2294646815966843E+01 
    8.7817447819410130E+00 
    8.9402162347591752E+00 
    8.9040873824264466E+00 
    5.0153234663380699E+00 
    8.0239218784196904E+00 
    7.8868632393972922E+00 
    8.8927016057039463E+00 
    8.1991818960023739E+00 
    5.9076469414129573E-01 
    5.5983119513380721E+00 
    8.5434249386097534E+00 
    8.8685129696375711E+00 
    1.1211870261038120E+01 
    1.8795482541428259E+00 
    9.2952450155199298E+00 
    9.1929893064291068E+00 
    3.2244983126631825E+00 
    1.2182551814385942E+01 
    7.6030495217451204E+00 
    9.0658681599071667E+00 
    1.2228917089684465E+01 
    4.6432981292090272E+00 
    1.2281021165284276E+01 
    7.7036962146138226E+00 
    8.6598462988046199E-01 
    8.3132735212658275E+00 
    1.2789933327579567E+01 
    1.2003917597401852E+01 
    1.2021619503872531E+01 
    9.2751544632779765E+00 
    9.1328747939630635E+00 
    7.5844433220524499E+00 
    6.0792558789498043E+00 
    1.2325297442207614E+01 
    8.4409966551812374E+00 
    5.9399564835144787E+00 
    1.2016432481566447E+01 
    1.2618250255303437E+01 
    9.0755715814667806E+00 
    8.7274543383768393E+00 
    1.4900553455200471E+01 
    9.3316378286624300E+00 
    1.2344560950119085E+01 
    7.1992692931381352E+00 
    1.5045301534910635E+01 
    5.8955430268730504E+00 
    7.9731670147177764E+00 
    6.6163889459682794E+00 
    9.5336101604434180E+00 
    7.5775020040378207E+00 
    1.5029127986344578E+01 
    9.3737322341863045E+00 
    1.1716637252489969E+01 
    6.0667178329188793E+00 
    8.9683315460045439E+00 
    1.2204019781283854E+01 
    7.6020318289377329E+00 
    6.3210137038969725E+00 
    9.7721048763549430E+00 
    1.2417972795217104E+01 
    6.5108706715254030E+00 
    8.4148858642754867E+00 
    8.7518090132549631E+00 
    1.1982528959576650E+01 
    8.5596060101521410E+00 
    1.2389067902631725E+01 
    1.2949246728193014E+01 
    7.6079754327263398E+00 
    7.4521870410159892E+00 
    7.0638735510344537E+00 
    1.2104452161082158E+01 
    9.1894586048922786E+00 
    1.4613037179658827E+01 
    1.1422301336156993E+01 
    1.2166524745272524E+01 
    1.4315150655679400E+01 
    1.3737825370832374E+01 
    9.0135104745840575E+00 
    8.8779265149997020E+00 
    1.1803747992970745E+01 
    1.2036397598889488E+01 
    1.2480378716644646E+01 
    1.2251250637200053E+01 
    1.4918975692377492E+01 
    9.3312426269541806E+00 
    7.6975877679411209E+00 
    9.2988965120616545E+00 
    1.2870857187618723E+01 
    9.1018048581124305E+00 
    5.2442457851794195E+00 
    8.7663386771745380E+00 
    1.3254654850828798E+01 
    9.2248221521623659E+00 
    7.7065819605971280E+00 
    8.6900186284344034E+00 
    1.3357647516428923E+01 
    1.2030338538254167E+01 
    7.3049903284022877E+00 
    1.3484914843479944E+01 
    9.0404547478720332E+00 
    1.2481897880674913E+01 
    1.3369859846678938E+01 
    9.3767837103875529E+00 
    4.6453424429028889E+00 
    9.7414466645511606E+00 
    4.8072852214636228E+00 
    9.1465980706569656E+00 
    8.9587095365959470E+00 
    1.0248750992278262E+01 
    5.0841788711951876E+00 
    1.0877015642789525E+01 
    8.9802092962414459E+00 
    1.2242817720171779E+01 
    9.3474511878195585E+00 
    7.1292693845478823E+00 
    8.5744241207848848E+00 
    9.4104076520215028E+00 
    9.4243091386313491E+00 
    1.2989333842463781E+01 
    7.3468004816013845E+00 
    7.2184651496693935E+00 
    5.3512217772732029E+00 
    1.2503704405815295E+01 
    8.6098405582408475E+00 
    1.1847695309170675E+01 
    8.9294463439082552E+00 
    5.8625044922482275E+00 
    1.2054289417786153E+01 
    8.9030698863007700E+00 
    6.4051727308215716E+00 
    6.7957855710075696E+00 
    7.0426274548644017E+00 
    1.2269006070407743E+01 
    8.8946801526334909E+00 
    1.2843333251611499E+01 
    8.8587972094555365E+00 
    8.7928258435112845E+00 
    8.3354779573837661E+00 
    1.2126950493924779E+01 
    8.7035596801306667E+00 
    7.0795845557832662E+00 
    1.3725716040246544E+01 
    1.2197489773304993E+01 
    6.1815363408671162E+00 
    2.3703072362183879E+00 
    8.8837300640744719E+00 
    8.3360569767873738E+00 
    7.4461270039853940E+00 
    8.1524381429350488E+00 
    1.2179845871117129E+01 
    8.6046407289410034E+00 
    7.7522425181483321E+00 
    1.2055224157000337E+01 
    6.1242748356627725E+00 
    1.1769043734208807E+01 
    8.0518363294628106E+00 
    7.0172021637299942E+00 
    7.5192607770385660E+00 
    1.2558640322269726E+01 
    8.9482491575449004E+00 
    8.9562722164450381E+00 
    5.1623316630486711E+00 
    5.5886104854541490E+00 
    1.1165255824057656E+01 
    8.9659755815114117E+00 
    8.9288275961640142E+00 
    1.3470460237877468E+01 
    7.2207939530668428E+00 
    8.9777430393649009E+00 
    6.3346285072877455E+00 
    6.5341918590109476E+00 
    1.2118752440904540E+01 
    8.5905899159200061E+00 
    6.1732237732173258E+00 
    9.4112044090123828E+00 
    8.8330056165954414E+00 
    1.2122332416010199E+01 
    1.3557915663151242E+01 
    9.1304660722971298E-01 
    8.8886252874713154E+00 
    9.1867689710459306E+00 
    1.2180252997594300E+01 
    8.3824612001090895E+00 
    8.9223192415910084E+00 
    1.3035135824763115E+01 
    7.5510043586479663E+00 
    6.2292423707020665E+00 
    1.0794657636516261E+01 
    1.2015723118194476E+01 
    1.2922279289449335E+01 
    1.3172235496420427E+01 
    8.7345966899227694E+00 
    8.8807413911309254E+00 
    1.0024498289073666E+01 
    5.8692403028894233E+00 
    1.2126223540071090E+01 
    6.7215540107474547E+00 
    6.1161316560391059E+00 
    1.1151525858285206E+01 
    1.0496042526243460E+01 
    5.9965906095842518E+00 
    1.2046671677105653E+01 
    1.2909192979606745E+01 
    9.3451006955025040E+00 
    1.3653285457934976E+01 
    1.2074790345257400E+01 
    8.4640487927557118E+00 
    1.2672215239308294E+01 
    6.5409782277634694E+00 
    1.2031568819808561E+01 
    8.8877723770525385E+00 
    8.8473795612288235E+00 
    1.3628581228461993E+01 
    8.6399528094877542E+00 
    1.0895597246536138E+01 
    7.5053388904837357E+00 
    1.3016788884098791E+01 
    1.1951181766348521E+01 
    7.8383688032461185E+00 
    1.1995457458005870E+01 
    8.0686569304805023E+00 
    8.9316791877327333E+00 
    1.2872791681109828E+01 
    1.2243941083191691E+01 
    1.2912219728650726E+01 
    1.2182916871880233E+01 
    8.0295194622972534E+00 
    8.2391435202181125E+00 
    1.2918196930944584E+01 
    8.3543441823236506E+00 
    1.1893615880031479E+01 
    8.6313122966663229E+00 
    3.4799804484697021E+00 
    6.1812071329412639E+00 
    5.7179454720497844E+00 
    1.2875819795106718E+01 
    1.3563244997539709E+01 
    1.2011138185614069E+01 
    1.0365339900145127E+01 
    1.2258987846391459E+01 
    1.2053044767797543E+01 
    1.2565731700671888E+01 
    4.9827337634697404E+00 
    3.2453031513991908E+00 
    1.0172937032805546E+01 
    8.5327674901991628E+00 
    1.2181271445725038E+01 
    1.2179073549963475E+01 
    9.2021632939086597E+00 
    1.2211438534009410E+01 
    8.8752464355027598E+00 
    8.7566521324203368E+00 
    4.4955203229213767E+00 
    3.2320577970223749E+00 
    1.3355117600199691E+01 
    6.9449793805833036E+00 
    7.7843639445444772E+00 
    9.1110732775090977E+00 
    1.4901436148229470E+01 
    9.1950477266176662E+00 
    9.1261700594747470E+00 
    3.6764665550690214E+00 
    9.1955801784322766E+00 
    9.2076208739974561E+00 
    1.2454125217880918E+01 
    7.5228124395038281E+00 
    8.5059096333553654E+00 
    1.3511582057086120E+01 
    8.8978183513560065E+00 
    1.2024760655067036E+01 
    1.2245263885131715E+01 
    1.1024719248049232E+01 
    7.5404798731571834E+00 
    1.2182185446995291E+01 
    8.6862765801593227E+00 
    1.2194016123797134E+01 
    1.1970683679490266E+01 
    1.2893111329081396E+01 
    1.2181823576316130E+01 
    1.1467263780700113E+01 
    8.8859865337199633E+00 
    5.9493350173822437E+00 
    1.4777797305673884E+01 
    6.8601700756921522E+00 
    1.2832728791176608E+01 
    8.8833440450450887E+00 
    7.2564025281817193E+00 
    4.3535178858222254E+00 
    9.2380452975432856E+00 
    1.2170980782744588E+01 
    1.2166721835031378E+01 
    8.9124693749604464E+00 
    8.8774093003937278E+00 
    1.3706847905153186E+01 
    1.3119275597136593E+01 
    9.2117794746235244E+00 
    3.0206535395511187E+00 
    1.1440548368353770E+01 
    1.5027324644992850E+01 
    8.8893989538217753E+00 
    1.0686638292082121E+01 
    8.3777850500531859E+00 
    1.4639879936428683E+01 
    1.3191469245507081E+01 
    1.2943822396312727E+01 
    9.2315678575832596E+00 
    4.0549506606553223E+00 
    8.3379759548377379E+00 
    8.4038230278229413E+00 
    8.4517511451174716E+00 
    3.2850826468652956E+00 