# vtk DataFile Version 2.0
Pressure Field Data 
ASCII 
DATASET UNSTRUCTURED_GRID 

POINTS 2860 double 

    0.0000000000000000E+00     0.0000000000000000E+00     0.0000000000000000E+00 
    1.0000000000000000E+00     0.0000000000000000E+00     0.0000000000000000E+00 
    1.0000000000000000E+00     1.0000000000000000E+00     0.0000000000000000E+00 
    0.0000000000000000E+00     1.0000000000000000E+00     0.0000000000000000E+00 
    2.5000000000000000E-01     2.5000000000000000E-01     0.0000000000000000E+00 
    7.5000000000000000E-01     2.5000000000000000E-01     0.0000000000000000E+00 
    7.5000000000000000E-01     7.5000000000000000E-01     0.0000000000000000E+00 
    2.5000000000000000E-01     7.5000000000000000E-01     0.0000000000000000E+00 
    3.1249999999942091E-02     0.0000000000000000E+00     0.0000000000000000E+00 
    6.2499999999873469E-02     0.0000000000000000E+00     0.0000000000000000E+00 
    9.3749999999826514E-02     0.0000000000000000E+00     0.0000000000000000E+00 
    1.2499999999977961E-01     0.0000000000000000E+00     0.0000000000000000E+00 
    1.5624999999968961E-01     0.0000000000000000E+00     0.0000000000000000E+00 
    1.8749999999959971E-01     0.0000000000000000E+00     0.0000000000000000E+00 
    2.1874999999950970E-01     0.0000000000000000E+00     0.0000000000000000E+00 
    2.4999999999941969E-01     0.0000000000000000E+00     0.0000000000000000E+00 
    2.8124999999932920E-01     0.0000000000000000E+00     0.0000000000000000E+00 
    3.1249999999923850E-01     0.0000000000000000E+00     0.0000000000000000E+00 
    3.4374999999914790E-01     0.0000000000000000E+00     0.0000000000000000E+00 
    3.7499999999905720E-01     0.0000000000000000E+00     0.0000000000000000E+00 
    4.0624999999896660E-01     0.0000000000000000E+00     0.0000000000000000E+00 
    4.3749999999887590E-01     0.0000000000000000E+00     0.0000000000000000E+00 
    4.6874999999878530E-01     0.0000000000000000E+00     0.0000000000000000E+00 
    4.9999999999869471E-01     0.0000000000000000E+00     0.0000000000000000E+00 
    5.3124999999877620E-01     0.0000000000000000E+00     0.0000000000000000E+00 
    5.6249999999885780E-01     0.0000000000000000E+00     0.0000000000000000E+00 
    5.9374999999893940E-01     0.0000000000000000E+00     0.0000000000000000E+00 
    6.2499999999902101E-01     0.0000000000000000E+00     0.0000000000000000E+00 
    6.5624999999910261E-01     0.0000000000000000E+00     0.0000000000000000E+00 
    6.8749999999918421E-01     0.0000000000000000E+00     0.0000000000000000E+00 
    7.1874999999926570E-01     0.0000000000000000E+00     0.0000000000000000E+00 
    7.4999999999934730E-01     0.0000000000000000E+00     0.0000000000000000E+00 
    7.8124999999942890E-01     0.0000000000000000E+00     0.0000000000000000E+00 
    8.1249999999951039E-01     0.0000000000000000E+00     0.0000000000000000E+00 
    8.4374999999959199E-01     0.0000000000000000E+00     0.0000000000000000E+00 
    8.7499999999967359E-01     0.0000000000000000E+00     0.0000000000000000E+00 
    9.0624999999975520E-01     0.0000000000000000E+00     0.0000000000000000E+00 
    9.3749999999983680E-01     0.0000000000000000E+00     0.0000000000000000E+00 
    9.6874999999991840E-01     0.0000000000000000E+00     0.0000000000000000E+00 
    1.0000000000000000E+00     3.1249999999942091E-02     0.0000000000000000E+00 
    1.0000000000000000E+00     6.2499999999873469E-02     0.0000000000000000E+00 
    1.0000000000000000E+00     9.3749999999826514E-02     0.0000000000000000E+00 
    1.0000000000000000E+00     1.2499999999977961E-01     0.0000000000000000E+00 
    1.0000000000000000E+00     1.5624999999968961E-01     0.0000000000000000E+00 
    1.0000000000000000E+00     1.8749999999959971E-01     0.0000000000000000E+00 
    1.0000000000000000E+00     2.1874999999950970E-01     0.0000000000000000E+00 
    1.0000000000000000E+00     2.4999999999941969E-01     0.0000000000000000E+00 
    1.0000000000000000E+00     2.8124999999932920E-01     0.0000000000000000E+00 
    1.0000000000000000E+00     3.1249999999923850E-01     0.0000000000000000E+00 
    1.0000000000000000E+00     3.4374999999914790E-01     0.0000000000000000E+00 
    1.0000000000000000E+00     3.7499999999905720E-01     0.0000000000000000E+00 
    1.0000000000000000E+00     4.0624999999896660E-01     0.0000000000000000E+00 
    1.0000000000000000E+00     4.3749999999887590E-01     0.0000000000000000E+00 
    1.0000000000000000E+00     4.6874999999878530E-01     0.0000000000000000E+00 
    1.0000000000000000E+00     4.9999999999869471E-01     0.0000000000000000E+00 
    1.0000000000000000E+00     5.3124999999877620E-01     0.0000000000000000E+00 
    1.0000000000000000E+00     5.6249999999885780E-01     0.0000000000000000E+00 
    1.0000000000000000E+00     5.9374999999893940E-01     0.0000000000000000E+00 
    1.0000000000000000E+00     6.2499999999902101E-01     0.0000000000000000E+00 
    1.0000000000000000E+00     6.5624999999910261E-01     0.0000000000000000E+00 
    1.0000000000000000E+00     6.8749999999918421E-01     0.0000000000000000E+00 
    1.0000000000000000E+00     7.1874999999926570E-01     0.0000000000000000E+00 
    1.0000000000000000E+00     7.4999999999934730E-01     0.0000000000000000E+00 
    1.0000000000000000E+00     7.8124999999942890E-01     0.0000000000000000E+00 
    1.0000000000000000E+00     8.1249999999951039E-01     0.0000000000000000E+00 
    1.0000000000000000E+00     8.4374999999959199E-01     0.0000000000000000E+00 
    1.0000000000000000E+00     8.7499999999967359E-01     0.0000000000000000E+00 
    1.0000000000000000E+00     9.0624999999975520E-01     0.0000000000000000E+00 
    1.0000000000000000E+00     9.3749999999983680E-01     0.0000000000000000E+00 
    1.0000000000000000E+00     9.6874999999991840E-01     0.0000000000000000E+00 
    9.6875000000003686E-01     1.0000000000000000E+00     0.0000000000000000E+00 
    9.3750000000011691E-01     1.0000000000000000E+00     0.0000000000000000E+00 
    9.0625000000015765E-01     1.0000000000000000E+00     0.0000000000000000E+00 
    8.7500000000017863E-01     1.0000000000000000E+00     0.0000000000000000E+00 
    8.4375000000028044E-01     1.0000000000000000E+00     0.0000000000000000E+00 
    8.1250000000040856E-01     1.0000000000000000E+00     0.0000000000000000E+00 
    7.8125000000054956E-01     1.0000000000000000E+00     0.0000000000000000E+00 
    7.5000000000066480E-01     1.0000000000000000E+00     0.0000000000000000E+00 
    7.1875000000086831E-01     1.0000000000000000E+00     0.0000000000000000E+00 
    6.8750000000102829E-01     1.0000000000000000E+00     0.0000000000000000E+00 
    6.5625000000114431E-01     1.0000000000000000E+00     0.0000000000000000E+00 
    6.2500000000129829E-01     1.0000000000000000E+00     0.0000000000000000E+00 
    5.9375000000147926E-01     1.0000000000000000E+00     0.0000000000000000E+00 
    5.6250000000168354E-01     1.0000000000000000E+00     0.0000000000000000E+00 
    5.3125000000188671E-01     1.0000000000000000E+00     0.0000000000000000E+00 
    5.0000000000205835E-01     1.0000000000000000E+00     0.0000000000000000E+00 
    4.6875000000192979E-01     1.0000000000000000E+00     0.0000000000000000E+00 
    4.3750000000180111E-01     1.0000000000000000E+00     0.0000000000000000E+00 
    4.0625000000167238E-01     1.0000000000000000E+00     0.0000000000000000E+00 
    3.7500000000154382E-01     1.0000000000000000E+00     0.0000000000000000E+00 
    3.4375000000141509E-01     1.0000000000000000E+00     0.0000000000000000E+00 
    3.1250000000128642E-01     1.0000000000000000E+00     0.0000000000000000E+00 
    2.8125000000115769E-01     1.0000000000000000E+00     0.0000000000000000E+00 
    2.5000000000102918E-01     1.0000000000000000E+00     0.0000000000000000E+00 
    2.1875000000090050E-01     1.0000000000000000E+00     0.0000000000000000E+00 
    1.8750000000077180E-01     1.0000000000000000E+00     0.0000000000000000E+00 
    1.5625000000064329E-01     1.0000000000000000E+00     0.0000000000000000E+00 
    1.2500000000051459E-01     1.0000000000000000E+00     0.0000000000000000E+00 
    9.3750000000385914E-02     1.0000000000000000E+00     0.0000000000000000E+00 
    6.2500000000257239E-02     1.0000000000000000E+00     0.0000000000000000E+00 
    3.1250000000128557E-02     1.0000000000000000E+00     0.0000000000000000E+00 
    0.0000000000000000E+00     9.6875000000003686E-01     0.0000000000000000E+00 
    0.0000000000000000E+00     9.3750000000011691E-01     0.0000000000000000E+00 
    0.0000000000000000E+00     9.0625000000015765E-01     0.0000000000000000E+00 
    0.0000000000000000E+00     8.7500000000017863E-01     0.0000000000000000E+00 
    0.0000000000000000E+00     8.4375000000028044E-01     0.0000000000000000E+00 
    0.0000000000000000E+00     8.1250000000040856E-01     0.0000000000000000E+00 
    0.0000000000000000E+00     7.8125000000054956E-01     0.0000000000000000E+00 
    0.0000000000000000E+00     7.5000000000066480E-01     0.0000000000000000E+00 
    0.0000000000000000E+00     7.1875000000086831E-01     0.0000000000000000E+00 
    0.0000000000000000E+00     6.8750000000102829E-01     0.0000000000000000E+00 
    0.0000000000000000E+00     6.5625000000114431E-01     0.0000000000000000E+00 
    0.0000000000000000E+00     6.2500000000129829E-01     0.0000000000000000E+00 
    0.0000000000000000E+00     5.9375000000147926E-01     0.0000000000000000E+00 
    0.0000000000000000E+00     5.6250000000168354E-01     0.0000000000000000E+00 
    0.0000000000000000E+00     5.3125000000188671E-01     0.0000000000000000E+00 
    0.0000000000000000E+00     5.0000000000205835E-01     0.0000000000000000E+00 
    0.0000000000000000E+00     4.6875000000192979E-01     0.0000000000000000E+00 
    0.0000000000000000E+00     4.3750000000180111E-01     0.0000000000000000E+00 
    0.0000000000000000E+00     4.0625000000167238E-01     0.0000000000000000E+00 
[...]
CELL_DATA 2795 
SCALARS Pressure double 1 
LOOKUP_TABLE default 

    6.8915752891215138E+00 
    1.5603289756702413E+01 
    1.0981353173143972E+01 
    1.0608154463296554E+01 
    8.4523761697320854E+00 
    1.5458546707817264E+01 
    1.6232883382056620E+01 
    6.1639373910827651E+00 
    1.1529682936741382E+01 
    8.8717554597124479E+00 
    7.5769735385952366E+00 
    1.5182802211958869E+01 
    1.5509128179722129E+01 
    1.5425289741802429E+01 
    1.0142478314711537E+01 
    6.0635631687769296E+00 
    9.7640802915864686E+00 
    8.0641072257223598E+00 
    1.4789499543769312E+01 
    1.0966572100775226E+01 
    1.0862559508471026E+01 
    1.5354871728565724E+01 
    1.0320305591939906E+01 
    4.0371814265341444E-01 
    1.5182238679117273E+01 
    1.5473336251311563E+01 
    1.6265584892697767E+01 
    7.2938060152141535E+00 
    1.5097069637756899E+01 
    1.6257543585365742E+01 
    1.1062950850076801E+01 
    1.1176345393742901E+01 
    7.9076479211869026E+00 
    1.0944315028085944E+01 
    3.5554131360069041E+00 
    9.7696622314425525E+00 
    1.0931665478432667E+01 
    1.6298935426080320E+01 
    1.6208407719731078E+01 
    1.5196473743595666E+01 
    8.4133426523003401E+00 
    1.5161021681589197E+01 
    8.3916740969694481E-01 
    1.0869468793158516E+01 
    1.6016403468504574E+01 
    1.5816818757378009E+01 
    1.5171357578319622E+01 
    1.1948990184500479E+01 
    1.5241386606554240E+01 
    9.9867165819079116E+00 
    9.5196479283759441E+00 
    1.1141500078195886E+01 
    1.0757501750811430E+01 
    9.8226508364687000E+00 
    1.1133569817756680E+01 
    1.4561912198008857E+01 
    1.2972777912941988E+01 
    8.4976427163591506E+00 
    1.5359967627852562E+01 
    1.5276019521221793E+01 
    1.0584355059866537E+01 
    1.0568332895911595E+01 
    1.0503260985792783E+01 
    1.6154727015510474E+01 
    1.6424139971660889E+01 
    9.7763041632926093E+00 
    1.1140229232383218E+01 
    1.5036443364180897E+01 
    1.2858410135500892E+01 
    1.0619998103279015E+01 
    1.6431456563627123E+01 
    1.5307843525458937E+01 
    9.6400818440704850E+00 
    1.5931248559719165E+01 
    1.1374069975231434E+01 
    1.5025900432835790E+01 
    1.6310255749166707E+01 
    1.1452910952646352E+01 
    7.0927153067892421E+00 
    1.1158423397996597E+01 
    1.6218123803186231E+01 
    1.6461119979618672E+01 
    9.7916143232990898E+00 
    1.1080442494441538E+01 
    1.6509395815527213E+01 
    1.0932343214819669E+01 
    1.0413241947840248E+01 
    1.3321955711218305E+01 
    6.7436566135159381E+00 
    9.5440514339659366E+00 
    1.1078780128631145E+01 
    1.1693797082516133E+01 
    1.8026527515394822E+01 
    8.2168789055339406E+00 
    1.1148116631325259E+01 
    1.5147591894494697E+01 
    1.5456665274859436E+01 
    7.2508310455848859E+00 
    1.0798811133257912E+01 
    1.1110612819418051E+01 
    1.5478883077335794E+01 
    1.1106179738888653E+01 
    1.5404909716767065E+01 
    4.4092305425529492E+00 
    7.3683019462187920E+00 
    1.1366498349100258E+01 
    1.5611532854855408E+01 
    9.7322592160291794E+00 
    1.0347480928616918E+01 
    1.1087216964030326E+01 
    1.0376739809743150E+01 
    1.2540773054935888E+01 
    1.0070751812332160E+01 
    9.6492020841771495E+00 
    7.6991497918652474E+00 
    1.3096376714987954E+01 
    1.1179953304801927E+01 
    1.6061716793981741E+01 
    9.6192715075729893E+00 
    1.0587254024383041E+01 
    1.5295477425452248E+01 
    8.8615035015782908E+00 
    1.5771642770141632E+01 
    1.1006731996209275E+01 
    1.0512555170090325E+01 
    1.5459065328881339E+01 
    1.1170765546458776E+01 
    1.6323473522771334E+01 
    1.3339511313162522E+01 
    1.4392132385243592E+01 
    1.6283160425064395E+01 
    8.2332916966089069E+00 
    1.1391869680360738E+01 
    1.5458024766680655E+01 
    3.2976369456959902E+00 
    1.1111506093017029E+01 
    1.6247774101088549E+01 
    1.0542617068072687E+01 
    1.2172245946261425E+01 
    7.2591807566719337E+00 
    1.5145160470084978E+01 
    1.8529924744676332E+01 
    1.3857624915379080E+01 
    1.0542681144295541E+01 
    9.4366051034873983E+00 
    1.1790691703107589E+01 
    1.1023580708396267E+01 
    7.6570756413279373E+00 
    1.6278863275842959E+01 
    1.5504648870849339E+01 
    1.5149378177725596E+01 
    1.1719989534246029E+01 
    9.6108569678423557E+00 
    1.0859996580130714E+01 
    1.5962501140341963E+01 
    9.8827973514771603E+00 
    1.1048455912131001E+01 
    1.0062160030573036E+01 
    1.2812949642028869E+01 
    1.8517816605686615E+01 
    1.5140363731900356E+01 
    9.6082588439914609E+00 
    1.5664916415690985E+01 
    1.5568556137934339E+01 
    1.5653154199213253E+01 
    1.6716661865857489E+01 
    1.7281139405846837E+01 
    1.5813074791837186E+01 
    1.1131987465314703E+01 
    1.2014513894884759E+01 
    1.5632467337746856E+01 
    1.6074866387170641E+01 
    7.9911907256317685E+00 
    1.5170960392169633E+01 
    1.5923005519743393E+01 
    7.7807127961240106E+00 
    1.6635563554334478E+01 
    1.6610876745488760E+01 
    1.4864717153360850E+01 
    1.1476563342379707E+01 
    2.9005155402789904E+00 
    1.6248783672053719E+01 
    1.1305540878704447E+01 
    1.6374731578631355E+01 
    1.0467496431690554E+01 
    1.6073187813081120E+01 
    1.0342491331996972E+00 
    1.4407703292593103E+01 
    1.0614784071357505E+01 
    9.5639442600452043E+00 
    9.3233343292386763E+00 
    1.0975848832967506E+01 
    1.2152814223710701E+01 
    1.1489818036589108E+01 
    7.8357538995356002E+00 
    1.6068785370638366E+01 
    1.5482938462489003E+01 
    1.2990365606499607E+01 
    1.1358921109416087E+01 
    1.6805523820847452E+00 
    8.6087785123546414E+00 
    6.0083954534951127E+00 
    1.6268293147722574E+01 
    1.2278540211364831E+01 
    1.5525207561558835E+01 
    1.5553747005097636E+01 
    9.9668489112133667E+00 
    1.2867469054266088E+01 
    1.5144395924542199E+01 
    1.6592521233473661E+01 
    7.2067152912297949E+00 
    1.3704070948691971E+01 
    1.1496620762737361E+01 
    6.4060393918537333E+00 
    9.9596706592107846E+00 
    1.3535909044013971E+01 
    1.5512932385975194E+01 
    1.1028380883069778E+01 
    1.5629969301953613E+01 
    1.5381255088574145E+01 
    1.5326584581891648E+01 
    1.0865424701805516E+01 
    9.4921154004695669E+00 
    1.5157702569963925E+01 
    9.6346747786455502E+00 
    1.1112674113095794E+01 
    9.4455400584033757E+00 
    1.0994968930289158E+01 
    1.5563433183523998E+01 
    6.9313404604834385E+00 
    9.8604171638212659E+00 
    1.6179174812122316E+01 
    1.0875891538421083E+01 
    1.2177139108804527E+01 
    7.1109430937456661E+00 
    9.7033855104531028E+00 
    1.5357880569829575E+01 
    1.5688945099228913E+01 
    5.8053376421499685E+00 
    1.0884473282303851E+01 
    9.5015756067011594E+00 
    1.7037684114270551E+01 
    1.6469697060591855E+01 
    1.7310319896236386E+01 
    1.0904471901334853E+01 
    1.5534816361167142E+01 
    1.5096724398830608E+01 
    1.0769397837180202E+01 
    1.5149837757477354E+01 
    1.1359898287371470E+01 
    6.4988787966431403E+00 
    1.1189499406269920E+01 
    1.6163046851689135E+01 
    1.5146404138041243E+01 
    7.5398569780039537E+00 
    1.5178514698916301E+01 
    1.2173957321970555E+01 
    1.1090436178291277E+01 
    1.0620546358676146E+01 
    1.5001554207142652E+01 
    1.1629078801554620E+01 
    1.5163595483151953E+01 
    1.0798239922927742E+01 
    6.7464871754109765E+00 
    1.1186343958611960E+01 
    9.3358096147212510E+00 
    1.3864565378460101E+01 
    1.6374715138842330E+01 
    1.5155808486648413E+01 
    1.6241139421826233E+01 
    1.0820827461326681E+01 
    7.3422279353651350E+00 
    7.4456057093749859E+00 
    1.1283155426827353E+01 
    1.1086904408581823E+01 
    1.6082365730553463E+00 
    1.4612739905140215E+01 
    1.6747438528942368E+01 
    1.0483103047739489E+01 
    6.7663429450590842E+00 
    1.2759873655498822E+01 
    1.5176865092309543E+01 
    7.9714215321873070E+00 
    5.4236536229943857E+00 
    1.1067350793458525E+01 
    1.5256957747761611E+01 
    1.5967392492521016E+01 
    1.5846289284132006E+01 
    1.5692273587765905E+01 
    7.8279167909217318E+00 
    1.1085079887334398E+01 
    1.4666322991204915E+01 
    8.7098136209127599E+00 
    1.5495160828161831E+01 
    1.3133450647454980E+01 
    7.5575307078154381E+00 
    1.5289194969889538E+01 
    1.6279579230857873E+01 
    1.5315572525613133E+01 
    7.6759099401688120E+00 
    1.1136379425035308E+01 
    8.4248371321448055E+00 
    1.0519460302776642E+01 
    1.5167670276741845E+01 
    1.5154827692368704E+01 
    7.7201419704610412E+00 
    1.6115774188045499E+01 
    1.1699713427696922E+01 
    1.5188200998048581E+01 
    1.6082559092785921E+01 
    1.5175394978911463E+01 
    1.4124180184723141E+01 
    1.7096414613656943E+01 
    1.0431567611091156E+01 
    1.6208360878505228E+01 
    1.5216513060722505E+01 
    1.6285577142724584E+01 
    1.6108543191497198E+01 
    1.0539664471726745E+01 
    1.0971854301873426E+01 
    1.0473095420937669E+01 
    1.3573217670346267E+01 
    4.4258843684119933E+00 
    1.1216131972427723E+01 
    1.7226865033383490E+01 
    1.1362692360519825E+01 
    1.1565083277404376E+01 
    1.6257151928541639E+01 
    1.6499775970528987E+01 
    1.0346201468318101E+01 
    1.5183234765778751E+01 
    1.5150542937228712E+01 
    1.1551573398189060E+01 
    1.6060838460609400E+01 
    7.9367373113846611E+00 
    5.0631369191088851E+00 
    1.1857147332964619E+01 
    1.1377029805771194E+01 
    1.5156884733360988E+01 
    7.2276666772010341E+00 
    1.5757343903375714E+01 
    5.1511754294579530E+00 
    1.1310998684091791E+01 
    1.0564250443690824E+01 
    1.1113249455566070E+01 
    1.8569916751263030E+01 
    4.2934904944004293E+00 
    1.1129629385604137E+01 
    1.3316628109389216E+01 
    1.0717504709260059E+01 
    8.5779126745366554E+00 
    1.5879707416735153E+01 
    1.8116249901709367E+01 
    1.6039226439566853E+01 
    1.1066011510708650E+01 
    6.3674704964364057E+00 
    1.7964622635682232E+01 
    1.5472107122715515E+01 
    8.2543353644531265E+00 
    1.0703590602854128E+01 
    1.6699425843743192E+01 
    3.6557859684105942E+00 
    1.1432011854863612E+01 
    1.6007436516519583E+01 
    1.1127466773208743E+01 
    9.7096562111246314E+00 
    1.1171381198831684E+01 
    1.4883373626892988E+01 
    1.1109221895386545E+01 
    5.6645926296762195E+00 
    1.0082127578421083E+00 
    8.3198655351175557E+00 
    1.6931499562743078E+01 
    1.0472556006910359E+01 
    1.2476779058323631E+01 
    1.1943285293051888E+01 
    1.3856888892046689E+01 
    1.1140872486617294E+01 
    1.5374436198445398E+01 
    1.8584512424615820E+01 
    1.3224551001837932E+01 
    1.6179060918224874E+01 
    6.0076024675073159E-01 
    1.5157019139387478E+01 
    6.3012197865575432E+00 
    1.7401649804846070E+01 
    1.1143918207476551E+01 
    9.8866597784562646E+00 
    8.5904943506051055E+00 
    5.9374907293056980E+00 
    1.2457222252581122E+01 
    8.8135461591496149E+00 
    1.3748935518398431E+01 
    2.4367123179694330E+00 
    1.2212501018867215E+01 
    1.5083141608597948E+01 
    6.7647810486748421E+00 
    1.5666190440593571E+01 
    1.7191873471363046E+01 
    1.5493304049686460E+01 
    1.1000578941200088E+01 
    1.1107605614881143E+01 
    1.1136315477049116E+01 
    6.4358637551966931E+00 
    1.0181922422261144E+01 
    1.0011077836120551E+01 
    1.1124761500658526E+01 
    1.0397460700973372E+01 
    7.6238454319118698E-01 
    7.2454570029441108E+00 
    1.0829446000122584E+01 
    1.1098105151200615E+01 
    1.4130179710911408E+01 
    2.4038166586678451E+00 
    1.1507931511100283E+01 
    1.1383242972491427E+01 
    4.1346756813993553E+00 
    1.5346132297431566E+01 
    9.6562148354367228E+00 
    1.1241164330619206E+01 
    1.5469318160585271E+01 
    5.9656470471087397E+00 
    1.5472029220425631E+01 
    9.7824086278442053E+00 
    1.0989431751261682E+00 
    1.0539987853487641E+01 
    1.6129535939419984E+01 
    1.5156805825118870E+01 
    1.5176413404052909E+01 
    1.1496082487118967E+01 
    1.1313985434041660E+01 
    9.6328115480098759E+00 
    7.8883799794178335E+00 
    1.5588222841197926E+01 
    1.0699334072110403E+01 
    7.6715186887797682E+00 
    1.5171937071918222E+01 
    1.5916616522838371E+01 
    1.1308177419202583E+01 
    1.0923035393211086E+01 
    1.8460315301838904E+01 
    1.1552561266686020E+01 
    1.5604877217515906E+01 
    9.1623004700677448E+00 
    1.8613315120365510E+01 
    7.4024342752171126E+00 
    1.0072669720418308E+01 
    8.2888980870030249E+00 
    1.1802922421767924E+01 
    9.4918743850551035E+00 
    1.8596525937794393E+01 
    1.1604584996519739E+01 
    1.4827000614947451E+01 
    7.6125101125195611E+00 
    1.1136441156893209E+01 
    1.5435670618795063E+01 
    9.5295891058880464E+00 
    8.1732320906944906E+00 
    1.2391386486804327E+01 
    1.5673598133319047E+01 
    8.1587313641878172E+00 
    1.0586846150765496E+01 
    1.0955822464673009E+01 
    1.5130270486760830E+01 
    1.0743297592422138E+01 
    1.5650704665451455E+01 
    1.6316142816092164E+01 
    9.6627051479563253E+00 
    9.4724151610586631E+00 
    8.8378760349578904E+00 
    1.5282325753202876E+01 
    1.1403420739585002E+01 
    1.8156700015121690E+01 
    1.4249230670484467E+01 
    1.5392041047293608E+01 
    1.7833624691254329E+01 
    1.7199464476720841E+01 
    1.1182858953236019E+01 
    1.1108692560208825E+01 
    1.4896993689994453E+01 
    1.5198229099337158E+01 
    1.5774333545906442E+01 
    1.5494266311357071E+01 
    1.8482698675625887E+01 
    1.1552048889130297E+01 
    9.7739085042632325E+00 
    1.1544558787833587E+01 
    1.6224186184363873E+01 
    1.1278497333378851E+01 
    6.6084435419508045E+00 
    1.0983433598845400E+01 
    1.6665121824195438E+01 
    1.1421616765422955E+01 
    9.7854892674483640E+00 
    1.0897117660608279E+01 
    1.6781837743105573E+01 
    1.5222424538361176E+01 
    9.3170622468516626E+00 
    1.6925265096624447E+01 
    1.1211546589600060E+01 
    1.5762086991670119E+01 
    1.6795992191439279E+01 
    1.1808948172421410E+01 
    5.9739647060096903E+00 
    1.2304657536350595E+01 
    6.1832384134662819E+00 
    1.1328571183253523E+01 
    1.1130485469412825E+01 
    1.2972054051451201E+01 
    6.5392159144097777E+00 
    1.3774014475829755E+01 
    1.1148755103047279E+01 
    1.5483591756234619E+01 
    1.1852281079077375E+01 
    9.1543910178064731E+00 
    1.0763863401624713E+01 
    1.1660821834429546E+01 
    1.1664838569075341E+01 
    1.6363573954109711E+01 
    9.3374792544221918E+00 
    9.1786980423555331E+00 
    6.8788076643888205E+00 
    1.5798182915770798E+01 
    1.0807787120986015E+01 
    1.4996775753239344E+01 
    1.1100308362753637E+01 
    7.5209126567125457E+00 
    1.5253724119805886E+01 
    1.1076448635264951E+01 
    8.1882706718827052E+00 
    8.6640222809577772E+00 
    8.9654876684002343E+00 
    1.5516563251037523E+01 
    1.1126863561013412E+01 
    1.6191763765201898E+01 
    1.1036262572068122E+01 
    1.0975327322885175E+01 
    1.0500453565487433E+01 
    1.5343703286185834E+01 
    1.0891441620964819E+01 
    9.0073432635074919E+00 
    1.7187520474635381E+01 
    1.5431134971028088E+01 
    7.7535786193900735E+00 
    3.0299143751921656E+00 
    1.1115881662328304E+01 
    1.0462510086645528E+01 
    9.4605717792305253E+00 
    1.0289196342444631E+01 
    1.5378477653207206E+01 
    1.0805152307317142E+01 
    9.8318137369191785E+00 
    1.5221815716452941E+01 
    7.6859338681126816E+00 
    1.4854454686375343E+01 
    1.0097957630786254E+01 
    8.9906520182673795E+00 
    9.5522130904709659E+00 
    1.5852488482545999E+01 
    1.1115987909590036E+01 
    1.1124222990813426E+01 
    6.6195465021837538E+00 
    7.1519174341842158E+00 
    1.4103580180473580E+01 
    1.1134035825574371E+01 
    1.1157915921704072E+01 
    1.6910612086844846E+01 
    9.1835688209978787E+00 
    1.1146291544199894E+01 
    7.9491540684794337E+00 
    8.2012568710631388E+00 
    1.5335967682028631E+01 
    1.0772158629243380E+01 
    7.8803759486454465E+00 
    1.1712022449787241E+01 
    1.1028289066411670E+01 
    1.5339500674558073E+01 
    1.7008082411161034E+01 
    1.1508499977914255E+00 
    1.1121054272838641E+01 
    1.1375353308398548E+01 
    1.5409155414081914E+01 
    1.0617517574801344E+01 
    1.1089185855178535E+01 
    1.6420941441876224E+01 
    9.5922741825457631E+00 
    7.9513352628961531E+00 
    1.3383753709793574E+01 
    1.5171725461231544E+01 
    1.6283744527838444E+01 
    1.6566883675000199E+01 
    1.0954427912630676E+01 
    1.1111980884771629E+01 
    1.2507942076065941E+01 
    7.3703735745131320E+00 
    1.5311644091568795E+01 
    8.5609648303020478E+00 
    7.6732482325122859E+00 
    1.3947087601489761E+01 
    1.3145397380997270E+01 
    7.5260808877746639E+00 
    1.5210083229422075E+01 
    1.6269069773681572E+01 
    1.1569151435157977E+01 
    1.7114814708826856E+01 
    1.5246199004434764E+01 
    1.0679451562458873E+01 
    1.5989204754026295E+01 
    8.2029990869863401E+00 
    1.5192101636867909E+01 
    1.1119871423542694E+01 
    1.1079954417006407E+01 
    1.7090368984280644E+01 
    1.0845437332688219E+01 
    1.3678100951728275E+01 
    9.5363216977818599E+00 
    1.6394227824726283E+01 
    1.5090193982344470E+01 
    9.9443379445586952E+00 
    1.5145005153426775E+01 
    1.0127544707020203E+01 
    1.1097351153124000E+01 
    1.6225957764538254E+01 
    1.5490730369225520E+01 
    1.6272369316202102E+01 
    1.5412760562229167E+01 
    1.0187832090509994E+01 
    1.0418379365593790E+01 
    1.6279898772608071E+01 
    1.0553491002506631E+01 
    1.5011526784633105E+01 
    1.0831839093665559E+01 
    4.4535598659861328E+00 
    7.7528095211371406E+00 
    7.1833586206214708E+00 
    1.6229886674781657E+01 
    1.7015288477582672E+01 
    1.5164618332941789E+01 
    1.2777979754698784E+01 
    1.5477818624690604E+01 
    1.5219305129064507E+01 
    1.5853116541659357E+01 
    6.3990795241768827E+00 
    4.1497024325758067E+00 
    1.2546554722671532E+01 
    1.0786007824147502E+01 
    1.5380678163260006E+01 
    1.5377962191558714E+01 
    1.1403381957867959E+01 
    1.5418419949029831E+01 
    1.1105982307698609E+01 
    1.1029540706376620E+01 
    5.7746664973499779E+00 
    4.1376504318689982E+00 
    1.6778237233239693E+01 
    8.7098063116698743E+00 
    9.8829040479565684E+00 
    1.1290408225399846E+01 
    1.8462615218736115E+01 
    1.1385279083813844E+01 
    1.1458364564526130E+01 
    4.7119292230939136E+00 
    1.1386358638843936E+01 
    1.1402329828266526E+01 
    1.5711232535029209E+01 
    9.5592999355129500E+00 
    1.0658326042805168E+01 
    1.6955825653715294E+01 
    1.1129832501438431E+01 
    1.5181739794462738E+01 
    1.5443590241014581E+01 
    1.3628158855247307E+01 
    9.4664328507262994E+00 
    1.5412401099522564E+01 
    1.0918542152432863E+01 
    1.5363684817876464E+01 
    1.5115386015489628E+01 
    1.6250317999958430E+01 
    1.5410160088144689E+01 
    1.4447331053693924E+01 
    1.1117829721544904E+01 
    7.4688124915212413E+00 
    1.8331907025903153E+01 
    8.7337683060060112E+00 
    1.6172852063612488E+01 
    1.1115143850360592E+01 
    9.2314409437189742E+00 
    5.5421805256968906E+00 
    1.1444083726385202E+01 
    1.5398013223422247E+01 
    1.5394216658805131E+01 
    1.1077830335563574E+01 
    1.1109103716036273E+01 
    1.7172186298650768E+01 
    1.6506792224595035E+01 
    1.1405229165461284E+01 
    3.8591032098325622E+00 
    1.4360702603413461E+01 
    1.8593567229361426E+01 
    1.1121257687855621E+01 
    1.3189565790802966E+01 
    1.0616610437858601E+01 
    1.8183395303832931E+01 
    1.6591763408471635E+01 
    1.6316334293124299E+01 
    1.1428328823116397E+01 
    5.1522778097489255E+00 
    1.0571133578260826E+01 
    1.0642159953852554E+01 
    1.0683345217550276E+01 
    4.2054877855845332E+00 