# vtk DataFile Version 2.0
Pressure Field Data 
ASCII 
DATASET UNSTRUCTURED_GRID 

POINTS 2860 double 

    0.0000000000000000E+00     0.0000000000000000E+00     0.0000000000000000E+00 
    1.0000000000000000E+00     0.0000000000000000E+00     0.0000000000000000E+00 
    1.0000000000000000E+00     1.0000000000000000E+00     0.0000000000000000E+00 
    0.0000000000000000E+00     1.0000000000000000E+00     0.0000000000000000E+00 
    2.5000000000000000E-01     2.5000000000000000E-01     0.0000000000000000E+00 
    7.5000000000000000E-01     2.5000000000000000E-01     0.0000000000000000E+00 
    7.5000000000000000E-01     7.5000000000000000E-01     0.0000000000000000E+00 
    2.5000000000000000E-01     7.5000000000000000E-01     0.0000000000000000E+00 
    3.1249999999942091E-02     0.0000000000000000E+00     0.0000000000000000E+00 
    6.2499999999873469E-02     0.0000000000000000E+00     0.0000000000000000E+00 
    9.3749999999826514E-02     0.0000000000000000E+00     0.0000000000000000E+00 
    1.2499999999977961E-01     0.0000000000000000E+00     0.0000000000000000E+00 
    1.5624999999968961E-01     0.0000000000000000E+00     0.0000000000000000E+00 
    1.8749999999959971E-01     0.0000000000000000E+00     0.0000000000000000E+00 
    2.1874999999950970E-01     0.0000000000000000E+00     0.0000000000000000E+00 
    2.4999999999941969E-01     0.0000000000000000E+00     0.0000000000000000E+00 
    2.8124999999932920E-01     0.0000000000000000E+00     0.0000000000000000E+00 
    3.1249999999923850E-01     0.0000000000000000E+00     0.0000000000000000E+00 
    3.4374999999914790E-01     0.0000000000000000E+00     0.0000000000000000E+00 
    3.7499999999905720E-01     0.0000000000000000E+00     0.0000000000000000E+00 
    4.0624999999896660E-01     0.0000000000000000E+00     0.0000000000000000E+00 
    4.3749999999887590E-01     0.0000000000000000E+00     0.0000000000000000E+00 
    4.6874999999878530E-01     0.0000000000000000E+00     0.0000000000000000E+00 
    4.9999999999869471E-01     0.0000000000000000E+00     0.0000000000000000E+00 
    5.3124999999877620E-01     0.0000000000000000E+00     0.0000000000000000E+00 
    5.6249999999885780E-01     0.0000000000000000E+00     0.0000000000000000E+00 
    5.9374999999893940E-01     0.0000000000000000E+00     0.0000000000000000E+00 
    6.2499999999902101E-01     0.0000000000000000E+00     0.0000000000000000E+00 
    6.5624999999910261E-01     0.0000000000000000E+00     0.0000000000000000E+00 
    6.8749999999918421E-01     0.0000000000000000E+00     0.0000000000000000E+00 
    7.1874999999926570E-01     0.0000000000000000E+00     0.0000000000000000E+00 
    7.4999999999934730E-01     0.0000000000000000E+00     0.0000000000000000E+00 
    7.8124999999942890E-01     0.0000000000000000E+00     0.0000000000000000E+00 
    8.1249999999951039E-01     0.0000000000000000E+00     0.0000000000000000E+00 
    8.4374999999959199E-01     0.0000000000000000E+00     0.0000000000000000E+00 
    8.7499999999967359E-01     0.0000000000000000E+00     0.0000000000000000E+00 
    9.0624999999975520E-01     0.0000000000000000E+00     0.0000000000000000E+00 
    9.3749999999983680E-01     0.0000000000000000E+00     0.0000000000000000E+00 
    9.6874999999991840E-01     0.0000000000000000E+00     0.0000000000000000E+00 
    1.0000000000000000E+00     3.1249999999942091E-02     0.0000000000000000E+00 
    1.0000000000000000E+00     6.2499999999873469E-02     0.0000000000000000E+00 
    1.0000000000000000E+00     9.3749999999826514E-02     0.0000000000000000E+00 
    1.0000000000000000E+00     1.2499999999977961E-01     0.0000000000000000E+00 
    1.0000000000000000E+00     1.5624999999968961E-01     0.0000000000000000E+00 
    1.0000000000000000E+00     1.8749999999959971E-01     0.0000000000000000E+00 
    1.0000000000000000E+00     2.1874999999950970E-01     0.0000000000000000E+00 
    1.0000000000000000E+00     2.4999999999941969E-01     0.0000000000000000E+00 
    1.0000000000000000E+00     2.8124999999932920E-01     0.0000000000000000E+00 
    1.0000000000000000E+00     3.1249999999923850E-01     0.0000000000000000E+00 
    1.0000000000000000E+00     3.4374999999914790E-01     0.0000000000000000E+00 
    1.0000000000000000E+00     3.7499999999905720E-01     0.0000000000000000E+00 
    1.0000000000000000E+00     4.0624999999896660E-01     0.0000000000000000E+00 
    1.0000000000000000E+00     4.3749999999887590E-01     0.0000000000000000E+00 
    1.0000000000000000E+00     4.6874999999878530E-01     0.0000000000000000E+00 
    1.0000000000000000E+00     4.9999999999869471E-01     0.0000000000000000E+00 
    1.0000000000000000E+00     5.3124999999877620E-01     0.0000000000000000E+00 
    1.0000000000000000E+00     5.6249999999885780E-01     0.0000000000000000E+00 
    1.0000000000000000E+00     5.9374999999893940E-01     0.0000000000000000E+00 
    1.0000000000000000E+00     6.2499999999902101E-01     0.0000000000000000E+00 
    1.0000000000000000E+00     6.5624999999910261E-01     0.0000000000000000E+00 
    1.0000000000000000E+00     6.8749999999918421E-01     0.0000000000000000E+00 
    1.0000000000000000E+00     7.1874999999926570E-01     0.0000000000000000E+00 
    1.0000000000000000E+00     7.4999999999934730E-01     0.0000000000000000E+00 
    1.0000000000000000E+00     7.8124999999942890E-01     0.0000000000000000E+00 
    1.0000000000000000E+00     8.1249999999951039E-01     0.0000000000000000E+00 
    1.0000000000000000E+00     8.4374999999959199E-01     0.0000000000000000E+00 
    1.0000000000000000E+00     8.7499999999967359E-01     0.0000000000000000E+00 
    1.0000000000000000E+00     9.0624999999975520E-01     0.0000000000000000E+00 
    1.0000000000000000E+00     9.3749999999983680E-01     0.0000000000000000E+00 
    1.0000000000000000E+00     9.6874999999991840E-01     0.0000000000000000E+00 
    9.6875000000003686E-01     1.0000000000000000E+00     0.0000000000000000E+00 
    9.3750000000011691E-01     1.0000000000000000E+00     0.0000000000000000E+00 
    9.0625000000015765E-01     1.0000000000000000E+00     0.0000000000000000E+00 
    8.7500000000017863E-01     1.0000000000000000E+00     0.0000000000000000E+00 
    8.4375000000028044E-01     1.0000000000000000E+00     0.0000000000000000E+00 
    8.1250000000040856E-01     1.0000000000000000E+00     0.0000000000000000E+00 
    7.8125000000054956E-01     1.0000000000000000E+00     0.0000000000000000E+00 
    7.5000000000066480E-01     1.0000000000000000E+00     0.0000000000000000E+00 
    7.1875000000086831E-01     1.0000000000000000E+00     0.0000000000000000E+00 
    6.8750000000102829E-01     1.0000000000000000E+00     0.0000000000000000E+00 
    6.5625000000114431E-01     1.0000000000000000E+00     0.0000000000000000E+00 
    6.2500000000129829E-01     1.0000000000000000E+00     0.0000000000000000E+00 
    5.9375000000147926E-01     1.0000000000000000E+00     0.0000000000000000E+00 
    5.6250000000168354E-01     1.0000000000000000E+00     0.0000000000000000E+00 
    5.3125000000188671E-01     1.0000000000000000E+00     0.0000000000000000E+00 
    5.0000000000205835E-01     1.0000000000000000E+00     0.0000000000000000E+00 
    4.6875000000192979E-01     1.0000000000000000E+00     0.0000000000000000E+00 
    4.3750000000180111E-01     1.0000000000000000E+00     0.0000000000000000E+00 
    4.0625000000167238E-01     1.0000000000000000E+00     0.0000000000000000E+00 
    3.7500000000154382E-01     1.0000000000000000E+00     0.0000000000000000E+00 
    3.4375000000141509E-01     1.0000000000000000E+00     0.0000000000000000E+00 
    3.1250000000128642E-01     1.0000000000000000E+00     0.0000000000000000E+00 
    2.8125000000115769E-01     1.0000000000000000E+00     0.0000000000000000E+00 
    2.5000000000102918E-01     1.0000000000000000E+00     0.0000000000000000E+00 
    2.1875000000090050E-01     1.0000000000000000E+00     0.0000000000000000E+00 
    1.8750000000077180E-01     1.0000000000000000E+00     0.0000000000000000E+00 
    1.5625000000064329E-01     1.0000000000000000E+00     0.0000000000000000E+00 
    1.2500000000051459E-01     1.0000000000000000E+00     0.0000000000000000E+00 
    9.3750000000385914E-02     1.0000000000000000E+00     0.0000000000000000E+00 
    6.2500000000257239E-02     1.0000000000000000E+00     0.0000000000000000E+00 
    3.1250000000128557E-02     1.0000000000000000E+00     0.0000000000000000E+00 
    0.0000000000000000E+00     9.6875000000003686E-01     0.0000000000000000E+00 
    0.0000000000000000E+00     9.3750000000011691E-01     0.0000000000000000E+00 
    0.0000000000000000E+00     9.0625000000015765E-01     0.0000000000000000E+00 
    0.0000000000000000E+00     8.7500000000017863E-01     0.0000000000000000E+00 
    0.0000000000000000E+00     8.4375000000028044E-01     0.0000000000000000E+00 
    0.0000000000000000E+00     8.1250000000040856E-01     0.0000000000000000E+00 
    0.0000000000000000E+00     7.8125000000054956E-01     0.0000000000000000E+00 
    0.0000000000000000E+00     7.5000000000066480E-01     0.0000000000000000E+00 
    0.0000000000000000E+00     7.1875000000086831E-01     0.0000000000000000E+00 
    0.0000000000000000E+00     6.8750000000102829E-01     0.0000000000000000E+00 
    0.0000000000000000E+00     6.5625000000114431E-01     0.0000000000000000E+00 
    0.0000000000000000E+00     6.2500000000129829E-01     0.0000000000000000E+00 
    0.0000000000000000E+00     5.9375000000147926E-01     0.0000000000000000E+00 
    0.0000000000000000E+00     5.6250000000168354E-01     0.0000000000000000E+00 
    0.0000000000000000E+00     5.3125000000188671E-01     0.0000000000000000E+00 
    0.0000000000000000E+00     5.0000000000205835E-01     0.0000000000000000E+00 
    0.0000000000000000E+00     4.6875000000192979E-01     0.0000000000000000E+00 
    0.0000000000000000E+00     4.3750000000180111E-01     0.0000000000000000E+00 
    0.0000000000000000E+00     4.0625000000167238E-01     0.0000000000000000E+00 
[...]
CELL_DATA 2795 
SCALARS Pressure double 1 
LOOKUP_TABLE default 

    6.3329752857925952E+00 
    1.4471051799163027E+01 
    1.0190592369725868E+01 
    9.8005641108855084E+00 
    7.7861395105951381E+00 
    1.4338939519597197E+01 
    1.5068961859398796E+01 
    5.6568067307908265E+00 
    1.0753406712010031E+01 
    8.2387043577381274E+00 
    7.0313587675336011E+00 
    1.4080585745677256E+01 
    1.4379141206843340E+01 
    1.4307793273266904E+01 
    9.4091948058055799E+00 
    5.5634454775629338E+00 
    9.0105705278684489E+00 
    7.4858758363115712E+00 
    1.3714331513893507E+01 
    1.0178821311749996E+01 
    1.0073681525482387E+01 
    1.4242095280907751E+01 
    9.5308567696888389E+00 
    3.7205230736330636E-01 
    1.4079376832474997E+01 
    1.4347995076205645E+01 
    1.5100194800418995E+01 
    6.7607394063891597E+00 
    1.4000369767479031E+01 
    1.5094020773185592E+01 
    1.0242456381211433E+01 
    1.0395040809340182E+01 
    7.3082243725177598E+00 
    1.0153190247137838E+01 
    3.2788112789301613E+00 
    9.0162864435993058E+00 
    1.0141852856781361E+01 
    1.5133796994335150E+01 
    1.5045898423305960E+01 
    1.4093511502203139E+01 
    7.7291780198586668E+00 
    1.4053382750880631E+01 
    7.7404881199126208E-01 
    1.0050337282064110E+01 
    1.4860560706832670E+01 
    1.4688619486926484E+01 
    1.4069815035732869E+01 
    1.1118828086775235E+01 
    1.4140613257877424E+01 
    9.2187404066263738E+00 
    8.7820689041139310E+00 
    1.0360533850586172E+01 
    9.9393045078523823E+00 
    9.0629515382051213E+00 
    1.0311098888490934E+01 
    1.3502423355121389E+01 
    1.2121858269605648E+01 
    7.8282932469462798E+00 
    1.4246430938910969E+01 
    1.4168547586727858E+01 
    9.7873016496121625E+00 
    9.8035732851414537E+00 
    9.7020035099621733E+00 
    1.4996098736828381E+01 
    1.5250225471775238E+01 
    9.0209157846094854E+00 
    1.0359704463711667E+01 
    1.3966533077831606E+01 
    1.1940961935055544E+01 
    9.8491851858734467E+00 
    1.5259279693205226E+01 
    1.4191313917825687E+01 
    8.8951092542244581E+00 
    1.4791114454805404E+01 
    1.0542962329529944E+01 
    1.3930306541514831E+01 
    1.5144326958758739E+01 
    1.0592084152562300E+01 
    6.4951997423927743E+00 
    1.0378278804475766E+01 
    1.5054954821969776E+01 
    1.5288990236672030E+01 
    9.0358409958065042E+00 
    1.0296017142851280E+01 
    1.5333721762583108E+01 
    1.0143969226634363E+01 
    9.6177873869984154E+00 
    1.2366404532220022E+01 
    6.1812543748810826E+00 
    8.8052195410366974E+00 
    1.0295269722037240E+01 
    1.0914625940305980E+01 
    1.6804313768895081E+01 
    7.5665232079621072E+00 
    1.0367864418834511E+01 
    1.4047508543547542E+01 
    1.4330222105540322E+01 
    6.6634193031045070E+00 
    1.0014191219525367E+01 
    1.0325745277161889E+01 
    1.4350769276012381E+01 
    1.0325254810743308E+01 
    1.4282103699489213E+01 
    4.0509713703345867E+00 
    6.8365820942855784E+00 
    1.0601955378197069E+01 
    1.4479211270743493E+01 
    8.9810076003471035E+00 
    9.5652828797858636E+00 
    1.0308590136345288E+01 
    9.5838066428554143E+00 
    1.1700799837582711E+01 
    9.3040688732501664E+00 
    8.9032203622625765E+00 
    7.0407063909156760E+00 
    1.2122678449901960E+01 
    1.0396840330989422E+01 
    1.4907713995249134E+01 
    8.9369135242129172E+00 
    9.7817543069855581E+00 
    1.4179319331285923E+01 
    8.1574501996072115E+00 
    1.4629360627075540E+01 
    1.0220143029877775E+01 
    9.7106812645332088E+00 
    1.4332263540992003E+01 
    1.0390422423150669E+01 
    1.5155645566189945E+01 
    1.2379519550675166E+01 
    1.3347254289347372E+01 
    1.5116968334072952E+01 
    7.5818383963715208E+00 
    1.0628272412994205E+01 
    1.4332488878525099E+01 
    3.0350937380567555E+00 
    1.0289765638309902E+01 
    1.5083301331362405E+01 
    9.7397298876817775E+00 
    1.1261358883776722E+01 
    6.6383230745802129E+00 
    1.4045493743355769E+01 
    1.7297570261980887E+01 
    1.2857808140022808E+01 
    9.7388974606848535E+00 
    8.7040806337129517E+00 
    1.0950934254713420E+01 
    1.0237014743524044E+01 
    7.1056342071527787E+00 
    1.5112821805573159E+01 
    1.4406730547623342E+01 
    1.4049194627396348E+01 
    1.0917542174714464E+01 
    8.8649878537877225E+00 
    1.0071907567206653E+01 
    1.4819124176194176E+01 
    9.1217239750636647E+00 
    1.0216318175536063E+01 
    9.2896521488214123E+00 
    1.1858133350084854E+01 
    1.7285710190485240E+01 
    1.4040740855908954E+01 
    8.8326634069394352E+00 
    1.4526269658220095E+01 
    1.4438279898187565E+01 
    1.4518677889385533E+01 
    1.5533182471131486E+01 
    1.6078498990563805E+01 
    1.4686462621711659E+01 
    1.0351430570227675E+01 
    1.1124461143905263E+01 
    1.4511752699312414E+01 
    1.4919806058690622E+01 
    7.4162916699486567E+00 
    1.4069467095683857E+01 
    1.4780899984872848E+01 
    7.2216475124883006E+00 
    1.5451570845682848E+01 
    1.5432031713930026E+01 
    1.3784810283064200E+01 
    1.0699278597226741E+01 
    2.6717996751933084E+00 
    1.5084094525458488E+01 
    1.0533687772344422E+01 
    1.5205229559154427E+01 
    9.6692951505458815E+00 
    1.4919465624194602E+01 
    9.5062206994421938E-01 
    1.3364805492012778E+01 
    9.8483944975257067E+00 
    8.8241055230225527E+00 
    8.5986159976255152E+00 
    1.0189821554284421E+01 
    1.1346089147862688E+01 
    1.0622283334141381E+01 
    7.1551323475387099E+00 
    1.4914386216642349E+01 
    1.4356617310605561E+01 
    1.2069344914235909E+01 
    1.0596355971330709E+01 
    1.5501214105799097E+00 
    7.9321394381215766E+00 
    5.5053265945334928E+00 
    1.5104728546181306E+01 
    1.1462118918163174E+01 
    1.4406823299105207E+01 
    1.4423369619000363E+01 
    9.2008774145457011E+00 
    1.2064537226118208E+01 
    1.4044720221241032E+01 
    1.5414137258239109E+01 
    6.6017483517382747E+00 
    1.2692784938507231E+01 
    1.0646162635853079E+01 
    5.8761959987078818E+00 
    9.1940276913242762E+00 
    1.2651233584566150E+01 
    1.4384923108867547E+01 
    1.0243690120711722E+01 
    1.4496289226877488E+01 
    1.4259990448164098E+01 
    1.4208601130834113E+01 
    1.0078007513422335E+01 
    8.7599294849472713E+00 
    1.4057068721196172E+01 
    8.8888780152829554E+00 
    1.0330341258348462E+01 
    8.7130722714060109E+00 
    1.0161627322127686E+01 
    1.4432320068624628E+01 
    6.4299984481051933E+00 
    9.1013412321366545E+00 
    1.5018536325657223E+01 
    1.0089972114565947E+01 
    1.1355971262783193E+01 
    6.5973726578960203E+00 
    8.9544399631203575E+00 
    1.4237889222955960E+01 
    1.4552425216116486E+01 
    5.3794263398303430E+00 
    1.0095890115571009E+01 
    8.7565895798258051E+00 
    1.5842315133524153E+01 
    1.5296926978703917E+01 
    1.6106089771309350E+01 
    1.0116038763012407E+01 
    1.4405561225978845E+01 
    1.4001002337407163E+01 
    9.9871730159961984E+00 
    1.4049612802505164E+01 
    1.0595856963000982E+01 
    5.9595087203755828E+00 
    1.0363186572994774E+01 
    1.5004153439163765E+01 
    1.4046392719288828E+01 
    6.9949194890866524E+00 
    1.4076516935548511E+01 
    1.1358186624361485E+01 
    1.0269962645341286E+01 
    9.8152515500707338E+00 
    1.3911289497871504E+01 
    1.0795278239937614E+01 
    1.4062594637231358E+01 
    9.9844041382212350E+00 
    6.1789909289552769E+00 
    1.0400618170494546E+01 
    8.6088832603322398E+00 
    1.2860890488273423E+01 
    1.5204438098401045E+01 
    1.4055347331190188E+01 
    1.5076867473413756E+01 
    1.0037637311388647E+01 
    6.8123048269196227E+00 
    6.9089198819685818E+00 
    1.0454818310340732E+01 
    1.0306217152922363E+01 
    1.4784385585735329E+00 
    1.3552232127327008E+01 
    1.5561351392973609E+01 
    9.6833698567868289E+00 
    6.2015268273453668E+00 
    1.1814812534127265E+01 
    1.4075079924036883E+01 
    7.3354560959046804E+00 
    4.9773352667449657E+00 
    1.0283865525310501E+01 
    1.4157043107620538E+01 
    1.4817782543048432E+01 
    1.4707187349512477E+01 
    1.4556016600135496E+01 
    7.1773008493363220E+00 
    1.0264143571387740E+01 
    1.3590382192854593E+01 
    8.0882259322121328E+00 
    1.4366025531905498E+01 
    1.2314973602438306E+01 
    7.0136793630780687E+00 
    1.4184708376069718E+01 
    1.5110612056111121E+01 
    1.4201453692701531E+01 
    7.0628015693799213E+00 
    1.0355910607588060E+01 
    7.7602318082941109E+00 
    9.7779125422761588E+00 
    1.4066348234028158E+01 
    1.4054296103361755E+01 
    7.1038335152059657E+00 
    1.4959324963740675E+01 
    1.0914763020442429E+01 
    1.4087257742429909E+01 
    1.4926052161975321E+01 
    1.4074335952833927E+01 
    1.3108242652740929E+01 
    1.5897607782273145E+01 
    9.6372378697406802E+00 
    1.5045868809025038E+01 
    1.4115653656466041E+01 
    1.5119173957963222E+01 
    1.4952307429682065E+01 
    9.7388785917149416E+00 
    1.0182229391853157E+01 
    9.6737869270425598E+00 
    1.2602078460027990E+01 
    4.0640719701478609E+00 
    1.0390842705251391E+01 
    1.6024654821366624E+01 
    1.0597133001204675E+01 
    1.0788669688649115E+01 
    1.5092020715010205E+01 
    1.5325144463701658E+01 
    9.5644633388159566E+00 
    1.4080955935843892E+01 
    1.4050300701965140E+01 
    1.0776045154764629E+01 
    1.4906817318475996E+01 
    7.3670079745457082E+00 
    4.6859080601091767E+00 
    1.1062314335700663E+01 
    1.0613056253644530E+01 
    1.4056547827776626E+01 
    6.6438570106086399E+00 
    1.4621296656332857E+01 
    4.7702482165222762E+00 
    1.0541974454890610E+01 
    9.7708339565517957E+00 
    1.0332589441160165E+01 
    1.7337283060926360E+01 
    3.9475479584668931E+00 
    1.0307342783714926E+01 
    1.2326972619872242E+01 
    9.9389618404020865E+00 
    7.8546834018746701E+00 
    1.4735535001597899E+01 
    1.6892047607771136E+01 
    1.4887244755168481E+01 
    1.0246776385449692E+01 
    5.8406168176472280E+00 
    1.6744425929066267E+01 
    1.4345718142443943E+01 
    7.5360731454275864E+00 
    9.8894460609747270E+00 
    1.5516816708484569E+01 
    3.3584008238762530E+00 
    1.0663578115902846E+01 
    1.4853225451239499E+01 
    1.0345990877811234E+01 
    9.0215888356323681E+00 
    1.0347542902444014E+01 
    1.3813281389674435E+01 
    1.0327324536633203E+01 
    5.1964139997157339E+00 
    9.2307923820203519E-01 
    7.7201605981907839E+00 
    1.5737704608805936E+01 
    9.6732616245703014E+00 
    1.1671610919089122E+01 
    1.1105834584936275E+01 
    1.2927955205757799E+01 
    1.0359334544026277E+01 
    1.4253378799426390E+01 
    1.7351660076288788E+01 
    1.2271936565389298E+01 
    1.5018124440816786E+01 
    5.5302906872895574E-01 
    1.4056367393962386E+01 
    5.7649754425073079E+00 
    1.6194886128717258E+01 
    1.0321116141742610E+01 
    9.1738762724685543E+00 
    7.9149014365023902E+00 
    5.4491215818161800E+00 
    1.1580093151561364E+01 
    8.1763611045757187E+00 
    1.2752531197172214E+01 
    2.2399636568958061E+00 
    1.1393565726705599E+01 
    1.3987857883401148E+01 
    6.2719626258268288E+00 
    1.4554317512120045E+01 
    1.5993532279658387E+01 
    1.4390923923829304E+01 
    1.0184634258696306E+01 
    1.0327277573325935E+01 
    1.0313765182428572E+01 
    5.9083596742633979E+00 
    9.4014041200375242E+00 
    9.2416199952519875E+00 
    1.0302663306682740E+01 
    9.6030608388145158E+00 
    7.0003454482526595E-01 
    6.6314134566530702E+00 
    1.0008266004222405E+01 
    1.0277272585545735E+01 
    1.3106464755347524E+01 
    2.2103649530250733E+00 
    1.0735029506340570E+01 
    1.0617317069992641E+01 
    3.7976783216552432E+00 
    1.4248361202208535E+01 
    8.9102049147265472E+00 
    1.0466653618499187E+01 
    1.4342421114823937E+01 
    5.4735397814646998E+00 
    1.4374977416565192E+01 
    9.0278845216023385E+00 
    1.0137290500234897E+00 
    9.7365543077873689E+00 
    1.4970999129383882E+01 
    1.4056177031345261E+01 
    1.4074857496268745E+01 
    1.0661569953113007E+01 
    1.0545291211434071E+01 
    8.8885587596067257E+00 
    7.1987210505325558E+00 
    1.4454022267860058E+01 
    9.8864241107748345E+00 
    7.0090283291124518E+00 
    1.4070525438515833E+01 
    1.4776134621445200E+01 
    1.0480309490700460E+01 
    1.0136357100767118E+01 
    1.7230008487107082E+01 
    1.0776927676937179E+01 
    1.4471361104518641E+01 
    8.4441253475606981E+00 
    1.7380338867628577E+01 
    6.8686254640749604E+00 
    9.3062597663504629E+00 
    7.6956334975688554E+00 
    1.1011048976203179E+01 
    8.8092207648163310E+00 
    1.7363749669833972E+01 
    1.0825623576675486E+01 
    1.3751753219060818E+01 
    7.0647218461582195E+00 
    1.0355622352958317E+01 
    1.4311476747237643E+01 
    8.8437417954337914E+00 
    7.4707468936733274E+00 
    1.1462906098112489E+01 
    1.4541142668576201E+01 
    7.5743488065105984E+00 
    9.7918243614790974E+00 
    1.0166299767972774E+01 
    1.4031265955440947E+01 
    9.9651684630099258E+00 
    1.4516570399806632E+01 
    1.5148395366906763E+01 
    8.9157597278128122E+00 
    8.7357397512716144E+00 
    8.2079165884757899E+00 
    1.4175719723634774E+01 
    1.0620534380984662E+01 
    1.6931795812232128E+01 
    1.3292183819459730E+01 
    1.4269946135313324E+01 
    1.6616743990602103E+01 
    1.6001192031294210E+01 
    1.0402480371510391E+01 
    1.0287328524611109E+01 
    1.3816851733361450E+01 
    1.4095012143885846E+01 
    1.4630078371574681E+01 
    1.4366449901066474E+01 
    1.7251169621554389E+01 
    1.0776457712963953E+01 
    9.0204111544119208E+00 
    1.0770585255054948E+01 
    1.5060778375336813E+01 
    1.0505663956653693E+01 
    6.1244895135309987E+00 
    1.0168321612125546E+01 
    1.5483208079117496E+01 
    1.0654037772108170E+01 
    9.0310277789076796E+00 
    1.0107724807332161E+01 
    1.5595504927607461E+01 
    1.4110902656316808E+01 
    8.5729383202142504E+00 
    1.5733751718071645E+01 
    1.0432026690962307E+01 
    1.4622015658405806E+01 
    1.5609086889188291E+01 
    1.0959107168030148E+01 
    5.4794682353557143E+00 
    1.1413188269931961E+01 
    5.6723485321186695E+00 
    1.0563852153802570E+01 
    1.0347867119390374E+01 
    1.2024803262197450E+01 
    5.9978659023527978E+00 
    1.2765676850417169E+01 
    1.0367699129650159E+01 
    1.4356491263257135E+01 
    1.0959725321978359E+01 
    8.3895165420576081E+00 
    9.9818456017913419E+00 
    1.0822324472978947E+01 
    1.0882357363157796E+01 
    1.5193296812549438E+01 
    8.6124364871232846E+00 
    8.4638615779086273E+00 
    6.3097745142400745E+00 
    1.4653620376551892E+01 
    1.0023007960712208E+01 
    1.3900341737916238E+01 
    1.0318441243031682E+01 
    6.9042823528579618E+00 
    1.4140353740830232E+01 
    1.0294019780473564E+01 
    7.5294436476557980E+00 
    7.9779626620649990E+00 
    8.2620582572303487E+00 
    1.4387276735385440E+01 
    1.0304673790443088E+01 
    1.5029953516443340E+01 
    1.0252988200343404E+01 
    1.0191447707275538E+01 
    9.7092781677761018E+00 
    1.4224556972164303E+01 
    1.0108725731400716E+01 
    8.3033697107630680E+00 
    1.5989203489995164E+01 
    1.4306491803903397E+01 
    7.1964856480944031E+00 
    2.7870852194895597E+00 
    1.0294077644934045E+01 
    9.7036123524387374E+00 
    8.7276349861332747E+00 
    9.5094634101896744E+00 
    1.4264181531013634E+01 
    9.9984092964171332E+00 
    9.0759353292812293E+00 
    1.4117243773439283E+01 
    7.1324805888143787E+00 
    1.3776189079049592E+01 
    9.3723244294469765E+00 
    8.2526098298416422E+00 
    8.8131102039802478E+00 
    1.4708026572016697E+01 
    1.0335501398880540E+01 
    1.0343583887455630E+01 
    6.0791641548500222E+00 
    6.5743465096396339E+00 
    1.3101992843094491E+01 
    1.0353366011340546E+01 
    1.0334386920365956E+01 
    1.5719132307808644E+01 
    8.4673643694734881E+00 
    1.0365653436351161E+01 
    7.3765043691216343E+00 
    7.6088919935706674E+00 
    1.4218083833220611E+01 
    9.9954696892695782E+00 
    7.2526538850401234E+00 
    1.0926794286361140E+01 
    1.0240473882746407E+01 
    1.4221000775159078E+01 
    1.5813365528902036E+01 
    1.0653022480170151E+00 
    1.0299024214958914E+01 
    1.0610944458752037E+01 
    1.4286003527548990E+01 
    9.8105711904757538E+00 
    1.0309277368689580E+01 
    1.5246996984768362E+01 
    8.8500845896472793E+00 
    7.3180898008088375E+00 
    1.2509280701327098E+01 
    1.4070209698293503E+01 
    1.5117706315942501E+01 
    1.5390075344609990E+01 
    1.0139736530694039E+01 
    1.0290435715188488E+01 
    1.1647849867296101E+01 
    6.8376546564563636E+00 
    1.4201160349298902E+01 
    7.8875546057051791E+00 
    7.1214817750745709E+00 
    1.2990187284075470E+01 
    1.2224887502042456E+01 
    6.9838339746568430E+00 
    1.4106597637161853E+01 
    1.5103554776979490E+01 
    1.0792471763429567E+01 
    1.5916417887949406E+01 
    1.4140444988444617E+01 
    9.8739264506473727E+00 
    1.4838417146061936E+01 
    7.6132773799098574E+00 
    1.4089306616205135E+01 
    1.0297936280054909E+01 
    1.0259293633978229E+01 
    1.5891901663804878E+01 
    1.0057619489572392E+01 
    1.2709917182801377E+01 
    8.7969965843240256E+00 
    1.5223096504084332E+01 
    1.3994135302217870E+01 
    9.1799078035739843E+00 
    1.4045222004172102E+01 
    9.3941110991693186E+00 
    1.0318273928377321E+01 
    1.5062563097889782E+01 
    1.4361926635409528E+01 
    1.5106759021763441E+01 
    1.4289335703769602E+01 
    9.4071739273273156E+00 
    9.6269562014494063E+00 
    1.5113816122182952E+01 
    9.7545569148163072E+00 
    1.3923726774657782E+01 
    1.0046367931969526E+01 
    4.0954744845538817E+00 
    7.1958159642889248E+00 
    6.6640105345120810E+00 
    1.5066226604975816E+01 
    1.5819964742226874E+01 
    1.4063650062243772E+01 
    1.1934872146292518E+01 
    1.4358189168957155E+01 
    1.4114742070981672E+01 
    1.4710495425041120E+01 
    5.8726162532735495E+00 
    3.8173773308003072E+00 
    1.1723298985282796E+01 
    9.9722233086206806E+00 
    1.4265844417184709E+01 
    1.4263284343411685E+01 
    1.0636318048626658E+01 
    1.4301245652525163E+01 
    1.0284713014240486E+01 
    1.0213787666807180E+01 
    5.2987829244452511E+00 
    3.8037925661528651E+00 
    1.5592250802722747E+01 
    8.0819857732502083E+00 
    9.1219225709171408E+00 
    1.0519003465047923E+01 
    1.7231872732162721E+01 
    1.0620780445349368E+01 
    1.0633202020406591E+01 
    4.3298890672886570E+00 
    1.0622476251288168E+01 
    1.0637409247955226E+01 
    1.4589250005608854E+01 
    8.8190932162084295E+00 
    9.8946763516496148E+00 
    1.5763026515253477E+01 
    1.0307409160026005E+01 
    1.4079850107814940E+01 
    1.4341862712341797E+01 
    1.2726169672566957E+01 
    8.7798424261454109E+00 
    1.4288909145433507E+01 
    1.0103002046277568E+01 
    1.4268146811700626E+01 
    1.4017350476371330E+01 
    1.5085657952998924E+01 
    1.4287111995043627E+01 
    1.3407611238849380E+01 
    1.0295999075126154E+01 
    6.9303489387151886E+00 
    1.7103488118696799E+01 
    8.0486515618651726E+00 
    1.5013640365107106E+01 
    1.0293410974768891E+01 
    8.5118462778932980E+00 
    5.1043627539326772E+00 
    1.0675636856242923E+01 
    1.4275502614912066E+01 
    1.4271811471390558E+01 
    1.0299074039035586E+01 
    1.0287589533998069E+01 
    1.5972643788341347E+01 
    1.5332324270608252E+01 
    1.0639610021356829E+01 
    3.5515560451966559E+00 
    1.3353791271488612E+01 
    1.7361154229830269E+01 
    1.0299307700990203E+01 
    1.2323144731708204E+01 
    9.8090191175644712E+00 
    1.6958394964654065E+01 
    1.5413205234891279E+01 
    1.5146702551249502E+01 
    1.0661623376917417E+01 
    4.7601396709776269E+00 
    9.7656622922589751E+00 
    9.8340989186763768E+00 
    9.8750514610647269E+00 
    3.8680859422957004E+00 