# vtk DataFile Version 2.0
Pressure Field Data 
ASCII 
DATASET UNSTRUCTURED_GRID 

POINTS 2860 double 

    0.0000000000000000E+00     0.0000000000000000E+00     0.0000000000000000E+00 
    1.0000000000000000E+00     0.0000000000000000E+00     0.0000000000000000E+00 
    1.0000000000000000E+00     1.0000000000000000E+00     0.0000000000000000E+00 
    0.0000000000000000E+00     1.0000000000000000E+00     0.0000000000000000E+00 
    2.5000000000000000E-01     2.5000000000000000E-01     0.0000000000000000E+00 
    7.5000000000000000E-01     2.5000000000000000E-01     0.0000000000000000E+00 
    7.5000000000000000E-01     7.5000000000000000E-01     0.0000000000000000E+00 
    2.5000000000000000E-01     7.5000000000000000E-01     0.0000000000000000E+00 
    3.1249999999942091E-02     0.0000000000000000E+00     0.0000000000000000E+00 
    6.2499999999873469E-02     0.0000000000000000E+00     0.0000000000000000E+00 
    9.3749999999826514E-02     0.0000000000000000E+00     0.0000000000000000E+00 
    1.2499999999977961E-01     0.0000000000000000E+00     0.0000000000000000E+00 
    1.5624999999968961E-01     0.0000000000000000E+00     0.0000000000000000E+00 
    1.8749999999959971E-01     0.0000000000000000E+00     0.0000000000000000E+00 
    2.1874999999950970E-01     0.0000000000000000E+00     0.0000000000000000E+00 
    2.4999999999941969E-01     0.0000000000000000E+00     0.0000000000000000E+00 
    2.8124999999932920E-01     0.0000000000000000E+00     0.0000000000000000E+00 
    3.1249999999923850E-01     0.0000000000000000E+00     0.0000000000000000E+00 
    3.4374999999914790E-01     0.0000000000000000E+00     0.0000000000000000E+00 
    3.7499999999905720E-01     0.0000000000000000E+00     0.0000000000000000E+00 
    4.0624999999896660E-01     0.0000000000000000E+00     0.0000000000000000E+00 
    4.3749999999887590E-01     0.0000000000000000E+00     0.0000000000000000E+00 
    4.6874999999878530E-01     0.0000000000000000E+00     0.0000000000000000E+00 
    4.9999999999869471E-01     0.0000000000000000E+00     0.0000000000000000E+00 
    5.3124999999877620E-01     0.0000000000000000E+00     0.0000000000000000E+00 
    5.6249999999885780E-01     0.0000000000000000E+00     0.0000000000000000E+00 
    5.9374999999893940E-01     0.0000000000000000E+00     0.0000000000000000E+00 
    6.2499999999902101E-01     0.0000000000000000E+00     0.0000000000000000E+00 
    6.5624999999910261E-01     0.0000000000000000E+00     0.0000000000000000E+00 
    6.8749999999918421E-01     0.0000000000000000E+00     0.0000000000000000E+00 
    7.1874999999926570E-01     0.0000000000000000E+00     0.0000000000000000E+00 
    7.4999999999934730E-01     0.0000000000000000E+00     0.0000000000000000E+00 
    7.8124999999942890E-01     0.0000000000000000E+00     0.0000000000000000E+00 
    8.1249999999951039E-01     0.0000000000000000E+00     0.0000000000000000E+00 
    8.4374999999959199E-01     0.0000000000000000E+00     0.0000000000000000E+00 
    8.7499999999967359E-01     0.0000000000000000E+00     0.0000000000000000E+00 
    9.0624999999975520E-01     0.0000000000000000E+00     0.0000000000000000E+00 
    9.3749999999983680E-01     0.0000000000000000E+00     0.0000000000000000E+00 
    9.6874999999991840E-01     0.0000000000000000E+00     0.0000000000000000E+00 
    1.0000000000000000E+00     3.1249999999942091E-02     0.0000000000000000E+00 
    1.0000000000000000E+00     6.2499999999873469E-02     0.0000000000000000E+00 
    1.0000000000000000E+00     9.3749999999826514E-02     0.0000000000000000E+00 
    1.0000000000000000E+00     1.2499999999977961E-01     0.0000000000000000E+00 
    1.0000000000000000E+00     1.5624999999968961E-01     0.0000000000000000E+00 
    1.0000000000000000E+00     1.8749999999959971E-01     0.0000000000000000E+00 
    1.0000000000000000E+00     2.1874999999950970E-01     0.0000000000000000E+00 
    1.0000000000000000E+00     2.4999999999941969E-01     0.0000000000000000E+00 
    1.0000000000000000E+00     2.8124999999932920E-01     0.0000000000000000E+00 
    1.0000000000000000E+00     3.1249999999923850E-01     0.0000000000000000E+00 
    1.0000000000000000E+00     3.4374999999914790E-01     0.0000000000000000E+00 
    1.0000000000000000E+00     3.7499999999905720E-01     0.0000000000000000E+00 
    1.0000000000000000E+00     4.0624999999896660E-01     0.0000000000000000E+00 
    1.0000000000000000E+00     4.3749999999887590E-01     0.0000000000000000E+00 
    1.0000000000000000E+00     4.6874999999878530E-01     0.0000000000000000E+00 
    1.0000000000000000E+00     4.9999999999869471E-01     0.0000000000000000E+00 
    1.0000000000000000E+00     5.3124999999877620E-01     0.0000000000000000E+00 
    1.0000000000000000E+00     5.6249999999885780E-01     0.0000000000000000E+00 
    1.0000000000000000E+00     5.9374999999893940E-01     0.0000000000000000E+00 
    1.0000000000000000E+00     6.2499999999902101E-01     0.0000000000000000E+00 
    1.0000000000000000E+00     6.5624999999910261E-01     0.0000000000000000E+00 
    1.0000000000000000E+00     6.8749999999918421E-01     0.0000000000000000E+00 
    1.0000000000000000E+00     7.1874999999926570E-01     0.0000000000000000E+00 
    1.0000000000000000E+00     7.4999999999934730E-01     0.0000000000000000E+00 
    1.0000000000000000E+00     7.8124999999942890E-01     0.0000000000000000E+00 
    1.0000000000000000E+00     8.1249999999951039E-01     0.0000000000000000E+00 
    1.0000000000000000E+00     8.4374999999959199E-01     0.0000000000000000E+00 
    1.0000000000000000E+00     8.7499999999967359E-01     0.0000000000000000E+00 
    1.0000000000000000E+00     9.0624999999975520E-01     0.0000000000000000E+00 
    1.0000000000000000E+00     9.3749999999983680E-01     0.0000000000000000E+00 
    1.0000000000000000E+00     9.6874999999991840E-01     0.0000000000000000E+00 
    9.6875000000003686E-01     1.0000000000000000E+00     0.0000000000000000E+00 
    9.3750000000011691E-01     1.0000000000000000E+00     0.0000000000000000E+00 
    9.0625000000015765E-01     1.0000000000000000E+00     0.0000000000000000E+00 
    8.7500000000017863E-01     1.0000000000000000E+00     0.0000000000000000E+00 
    8.4375000000028044E-01     1.0000000000000000E+00     0.0000000000000000E+00 
    8.1250000000040856E-01     1.0000000000000000E+00     0.0000000000000000E+00 
    7.8125000000054956E-01     1.0000000000000000E+00     0.0000000000000000E+00 
    7.5000000000066480E-01     1.0000000000000000E+00     0.0000000000000000E+00 
    7.1875000000086831E-01     1.0000000000000000E+00     0.0000000000000000E+00 
    6.8750000000102829E-01     1.0000000000000000E+00     0.0000000000000000E+00 
    6.5625000000114431E-01     1.0000000000000000E+00     0.0000000000000000E+00 
    6.2500000000129829E-01     1.0000000000000000E+00     0.0000000000000000E+00 
    5.9375000000147926E-01     1.0000000000000000E+00     0.0000000000000000E+00 
    5.6250000000168354E-01     1.0000000000000000E+00     0.0000000000000000E+00 
    5.3125000000188671E-01     1.0000000000000000E+00     0.0000000000000000E+00 
    5.0000000000205835E-01     1.0000000000000000E+00     0.0000000000000000E+00 
    4.6875000000192979E-01     1.0000000000000000E+00     0.0000000000000000E+00 
    4.3750000000180111E-01     1.0000000000000000E+00     0.0000000000000000E+00 
    4.0625000000167238E-01     1.0000000000000000E+00     0.0000000000000000E+00 
    3.7500000000154382E-01     1.0000000000000000E+00     0.0000000000000000E+00 
    3.4375000000141509E-01     1.0000000000000000E+00     0.0000000000000000E+00 
    3.1250000000128642E-01     1.0000000000000000E+00     0.0000000000000000E+00 
    2.8125000000115769E-01     1.0000000000000000E+00     0.0000000000000000E+00 
    2.5000000000102918E-01     1.0000000000000000E+00     0.0000000000000000E+00 
    2.1875000000090050E-01     1.0000000000000000E+00     0.0000000000000000E+00 
    1.8750000000077180E-01     1.0000000000000000E+00     0.0000000000000000E+00 
    1.5625000000064329E-01     1.0000000000000000E+00     0.0000000000000000E+00 
    1.2500000000051459E-01     1.0000000000000000E+00     0.0000000000000000E+00 
    9.3750000000385914E-02     1.0000000000000000E+00     0.0000000000000000E+00 
    6.2500000000257239E-02     1.0000000000000000E+00     0.0000000000000000E+00 
    3.1250000000128557E-02     1.0000000000000000E+00     0.0000000000000000E+00 
    0.0000000000000000E+00     9.6875000000003686E-01     0.0000000000000000E+00 
    0.0000000000000000E+00     9.3750000000011691E-01     0.0000000000000000E+00 
    0.0000000000000000E+00     9.0625000000015765E-01     0.0000000000000000E+00 
    0.0000000000000000E+00     8.7500000000017863E-01     0.0000000000000000E+00 
    0.0000000000000000E+00     8.4375000000028044E-01     0.0000000000000000E+00 
    0.0000000000000000E+00     8.1250000000040856E-01     0.0000000000000000E+00 
    0.0000000000000000E+00     7.8125000000054956E-01     0.0000000000000000E+00 
    0.0000000000000000E+00     7.5000000000066480E-01     0.0000000000000000E+00 
    0.0000000000000000E+00     7.1875000000086831E-01     0.0000000000000000E+00 
    0.0000000000000000E+00     6.8750000000102829E-01     0.0000000000000000E+00 
    0.0000000000000000E+00     6.5625000000114431E-01     0.0000000000000000E+00 
    0.0000000000000000E+00     6.2500000000129829E-01     0.0000000000000000E+00 
    0.0000000000000000E+00     5.9375000000147926E-01     0.0000000000000000E+00 
    0.0000000000000000E+00     5.6250000000168354E-01     0.0000000000000000E+00 
    0.0000000000000000E+00     5.3125000000188671E-01     0.0000000000000000E+00 
    0.0000000000000000E+00     5.0000000000205835E-01     0.0000000000000000E+00 
    0.0000000000000000E+00     4.6875000000192979E-01     0.0000000000000000E+00 
    0.0000000000000000E+00     4.3750000000180111E-01     0.0000000000000000E+00 
    0.0000000000000000E+00     4.0625000000167238E-01     0.0000000000000000E+00 
[...]
CELL_DATA 2795 
SCALARS Pressure double 1 
LOOKUP_TABLE default 

    5.5684574867083390E+00 
    1.2798105936664093E+01 
    9.0632811271410585E+00 
    8.6612314395805488E+00 
    6.8648105114166276E+00 
    1.2689027094507262E+01 
    1.3344221711135875E+01 
    4.9665786280888105E+00 
    9.5920691750461398E+00 
    7.3277424695026703E+00 
    6.2360371042046676E+00 
    1.2460718716363758E+01 
    1.2708654566453800E+01 
    1.2661238893140746E+01 
    8.3569050324363285E+00 
    4.8828225661912183E+00 
    7.9586726566896555E+00 
    6.6471264936261232E+00 
    1.2139832766634878E+01 
    9.0576526293262578E+00 
    8.9457001860136511E+00 
    1.2603168122845640E+01 
    8.4199296126879926E+00 
    3.2667013160161862E-01 
    1.2439704973348929E+01 
    1.2686167069010489E+01 
    1.3373257279575428E+01 
    5.9935920683118331E+00 
    1.2389957054941336E+01 
    1.3369880225153816E+01 
    9.1090599248901274E+00 
    9.3043082374579562E+00 
    6.4761057327544158E+00 
    9.0226877679988302E+00 
    2.8771765043043462E+00 
    7.9635293595091872E+00 
    9.0127728507766545E+00 
    1.3407034517129977E+01 
    1.3323823574549710E+01 
    1.2472217949040218E+01 
    6.7987643123856278E+00 
    1.2419441268872234E+01 
    6.8055874057823840E-01 
    8.8872415263918203E+00 
    1.3148860173559997E+01 
    1.2999129901228113E+01 
    1.2451179486775008E+01 
    9.9175920474564929E+00 
    1.2515911647109114E+01 
    8.1463832803898573E+00 
    7.7536547893500494E+00 
    9.2700453420450053E+00 
    8.7820528580477593E+00 
    8.0057934284648518E+00 
    9.1799471882373620E+00 
    1.1954078095705485E+01 
    1.0814006323717622E+01 
    6.9024469153481300E+00 
    1.2606724397232115E+01 
    1.2538399681784293E+01 
    8.6792839387255025E+00 
    8.7093264925425053E+00 
    8.5725178599891905E+00 
    1.3279960745862050E+01 
    1.3509166284509011E+01 
    7.9679873541607904E+00 
    9.2682947810707770E+00 
    1.2372511033980812E+01 
    1.0614610717253193E+01 
    8.7462914207612901E+00 
    1.3521171646196008E+01 
    1.2541354160720118E+01 
    7.8546136411846881E+00 
    1.3089231142952137E+01 
    9.4325428499560733E+00 
    1.2307860766121197E+01 
    1.3416416960258495E+01 
    9.3579446736145648E+00 
    5.6708117977648165E+00 
    9.2864200485245103E+00 
    1.3331509672960774E+01 
    1.3550903229039021E+01 
    7.9779874301357312E+00 
    9.1924178173780202E+00 
    1.3589736498619132E+01 
    9.0176821134655558E+00 
    8.4973648732041358E+00 
    1.0979092264632566E+01 
    5.4081681478917272E+00 
    7.7744999282408918E+00 
    9.1948463155067728E+00 
    9.7196033873715475E+00 
    1.4984645849501142E+01 
    6.6684494214223644E+00 
    9.2760118924975519E+00 
    1.2431546037260873E+01 
    1.2664384333498964E+01 
    5.8604043331903490E+00 
    8.8924967208546679E+00 
    9.2225716828531237E+00 
    1.2683148814875285E+01 
    9.2324673248894307E+00 
    1.2621070915537514E+01 
    3.5573505568728350E+00 
    6.0614563939678909E+00 
    9.4863569245584376E+00 
    1.2806246304299531E+01 
    7.9311633559868691E+00 
    8.4791958851939597E+00 
    9.2175380164900922E+00 
    8.4675866143118874E+00 
    1.0494179912469191E+01 
    8.2379137402949869E+00 
    7.8618293747298766E+00 
    6.1609160833349348E+00 
    1.0706880198827537E+01 
    9.3046997375568612E+00 
    1.3199286894123491E+01 
    7.9639540442550842E+00 
    8.6473260233665599E+00 
    1.2531655888175207E+01 
    7.1903809107121726E+00 
    1.2939970264685813E+01 
    9.1057945222093792E+00 
    8.5803979050870538E+00 
    1.2666462651295587E+01 
    9.2992284762195343E+00 
    1.3424547992516791E+01 
    1.0988683928533058E+01 
    1.1821883230125996E+01 
    1.3388694695416568E+01 
    6.6822692695531689E+00 
    9.5035164797891021E+00 
    1.2669909671637912E+01 
    2.6687973462032191E+00 
    9.1583036552231292E+00 
    1.3357938737072798E+01 
    8.6092549207317788E+00 
    9.9458390891519688E+00 
    5.8039098820144845E+00 
    1.2430534470840312E+01 
    1.5461727520938593E+01 
    1.1401300616265470E+01 
    8.6056386689635662E+00 
    7.6840223130864143E+00 
    9.8591410732788258E+00 
    9.1237110437211033E+00 
    6.3028489961098257E+00 
    1.3384716609809104E+01 
    1.2760270602214611E+01 
    1.2433101692805730E+01 
    9.7322450456487726E+00 
    7.8277130351346775E+00 
    8.9448545973796332E+00 
    1.3114387468362164E+01 
    8.0561727841689574E+00 
    9.0301472137812873E+00 
    8.2055458192601556E+00 
    1.0477126269675741E+01 
    1.5450274023537775E+01 
    1.2425460651516079E+01 
    7.7866109471581915E+00 
    1.2841937792550498E+01 
    1.2768542271004105E+01 
    1.2842213209216002E+01 
    1.3776578438249773E+01 
    1.4290730556401760E+01 
    1.2996473214212081E+01 
    9.2600702372954764E+00 
    9.8295699656243549E+00 
    1.2839721601954727E+01 
    1.3208812658943415E+01 
    6.5817584516648937E+00 
    1.2450788074048383E+01 
    1.3079776822214081E+01 
    6.4069890868846899E+00 
    1.3694040180363153E+01 
    1.3682990920130697E+01 
    1.2202010980482207E+01 
    9.5612336285159572E+00 
    2.3374526457328058E+00 
    1.3358192641636252E+01 
    9.4306348902415156E+00 
    1.3471476551070882E+01 
    8.5465376342243058E+00 
    1.3205247406021657E+01 
    8.3123089697887620E-01 
    1.1839316403378296E+01 
    8.7518873382323470E+00 
    7.7915146825136619E+00 
    7.5900384861402372E+00 
    9.0727417302972082E+00 
    1.0178424303405563E+01 
    9.3826517240264220E+00 
    6.2525087379049289E+00 
    1.3204984208646007E+01 
    1.2693027329008949E+01 
    1.0727179403780259E+01 
    9.4789844498907208E+00 
    1.3657626257696995E+00 
    6.9953895502484329E+00 
    4.8238098552216169E+00 
    1.3380648203188731E+01 
    1.0295872803621352E+01 
    1.2746902594487194E+01 
    1.2753180683455088E+01 
    8.1285498766408342E+00 
    1.0750914499234682E+01 
    1.2429036097800745E+01 
    1.3665853668309886E+01 
    5.7848517229285941E+00 
    1.1210714651054682E+01 
    9.4164108437072986E+00 
    5.1451846541194790E+00 
    8.1207034551636816E+00 
    1.1211364350781951E+01 
    1.2718587332516414E+01 
    9.1367338311882556E+00 
    1.2821002450081666E+01 
    1.2604315641847286E+01 
    1.2558348462957360E+01 
    8.9517023884207685E+00 
    7.7414404116181412E+00 
    1.2440406627436481E+01 
    7.8493351184683231E+00 
    9.2350133911408907E+00 
    7.6922861055088294E+00 
    8.9779408123757687E+00 
    1.2760888049799421E+01 
    5.6968026680826140E+00 
    8.0382821879243167E+00 
    1.3299162963972455E+01 
    8.9659658578907315E+00 
    1.0187968934269367E+01 
    5.8462404757511326E+00 
    7.9075034058953166E+00 
    1.2584205657303883E+01 
    1.2872586456505431E+01 
    4.7574452260455962E+00 
    8.9678402010831384E+00 
    7.7287006583521620E+00 
    1.4066327210951529E+01 
    1.3557816896344407E+01 
    1.4315772434247787E+01 
    8.9881976942857928E+00 
    1.2737201559089060E+01 
    1.2391142753051467E+01 
    8.8689426516137075E+00 
    1.2433345830122736E+01 
    9.4790773929120835E+00 
    5.2114359975913747E+00 
    9.1780753597627243E+00 
    1.3287730770202206E+01 
    1.2430470143988522E+01 
    6.2035402094749381E+00 
    1.2457027953097873E+01 
    1.0167014765905009E+01 
    9.1405208979356782E+00 
    8.6847976316455906E+00 
    1.2311739129550464E+01 
    9.6845198713183454E+00 
    1.2445094206595622E+01 
    8.8334238941811254E+00 
    5.4044661268604735E+00 
    9.3010548244938782E+00 
    7.5987197012323042E+00 
    1.1401828812609407E+01 
    1.3469347941014464E+01 
    1.2439315802223689E+01 
    1.3351720680661252E+01 
    8.9174536970183436E+00 
    6.0385051832200105E+00 
    6.1255638061117494E+00 
    9.3412986514199385E+00 
    9.2114735038586275E+00 
    1.2913005080185873E+00 
    1.2000388074588514E+01 
    1.3800467233813308E+01 
    8.5568832263686971E+00 
    5.4328086079556304E+00 
    1.0434156229591196E+01 
    1.2455753037286062E+01 
    6.4607267551612786E+00 
    4.3689167708732342E+00 
    9.1832053450248914E+00 
    1.2544492297566318E+01 
    1.3116577161923416E+01 
    1.3013421398006100E+01 
    1.2876711439737244E+01 
    6.2982071901879770E+00 
    9.1321269037130168E+00 
    1.2007400684972890E+01 
    7.1933459567704068E+00 
    1.2696832684817140E+01 
    1.0954302486767519E+01 
    6.2211097684419858E+00 
    1.2554245293081634E+01 
    1.3377361706243905E+01 
    1.2548478266885482E+01 
    6.2190024371111416E+00 
    9.2643012522690249E+00 
    6.8412940912881233E+00 
    8.7315685090362294E+00 
    1.2448054604305391E+01 
    1.2437445720309272E+01 
    6.2556168965547920E+00 
    1.3241948634511333E+01 
    9.7666412367399893E+00 
    1.2474560905766367E+01 
    1.3213551486372891E+01 
    1.2458927060002074E+01 
    1.1620347863128133E+01 
    1.4116031385411100E+01 
    8.5228993338357277E+00 
    1.3323829023212729E+01 
    1.2500844229566709E+01 
    1.3390507989266196E+01 
    1.3235847637539075E+01 
    8.6147499396332723E+00 
    9.0567282771111142E+00 
    8.5476247154991682E+00 
    1.1183902662115802E+01 
    3.5676545681264300E+00 
    9.2617360228325367E+00 
    1.4237598736630089E+01 
    9.4825473540120253E+00 
    9.6538128674830901E+00 
    1.3365399839737632E+01 
    1.3583042731907735E+01 
    8.4796186371961859E+00 
    1.2460910828738628E+01 
    1.2434170261751932E+01 
    9.6425472038219819E+00 
    1.3194616319122350E+01 
    6.5365967342786240E+00 
    4.1353974051872360E+00 
    9.8996257064827624E+00 
    9.4955834759976874E+00 
    1.2439512537254355E+01 
    5.8443836237554079E+00 
    1.2936904052806900E+01 
    4.2099900310434171E+00 
    9.4342075978324829E+00 
    8.6719168630371204E+00 
    9.2405357689550058E+00 
    1.5501053793189950E+01 
    3.4682031959193149E+00 
    9.1763222662519457E+00 
    1.0888652406664907E+01 
    8.8257926115913410E+00 
    6.8888456312642861E+00 
    1.3044339112316374E+01 
    1.5069164385314576E+01 
    1.3176987710744498E+01 
    9.1186986455685375E+00 
    5.1190145875521988E+00 
    1.4928331769912809E+01 
    1.2681736394494289E+01 
    6.6040552389980594E+00 
    8.7386486171830260E+00 
    1.3761627036939165E+01 
    2.9487186627239330E+00 
    9.5417812428705613E+00 
    1.3144419991805995E+01 
    9.2539503110709873E+00 
    8.0421824353539098E+00 
    9.2174297406652688E+00 
    1.2204275685327207E+01 
    9.2332893263915050E+00 
    4.5594729226334634E+00 
    8.0143218002656103E-01 
    6.8490867243822127E+00 
    1.3964205374046843E+01 
    8.5470067722382943E+00 
    1.0470383929703686E+01 
    1.0008779939244596E+01 
    1.1445309331517908E+01 
    9.2674399689197919E+00 
    1.2597746644103413E+01 
    1.5515076903721267E+01 
    1.0894569697272710E+01 
    1.3298703301957998E+01 
    4.8478958259101879E-01 
    1.2439243417718583E+01 
    5.0465455538756103E+00 
    1.4400478807380553E+01 
    9.1900458654416877E+00 
    8.1509419040359568E+00 
    6.9796991725045707E+00 
    4.7841567173231958E+00 
    1.0309176759192447E+01 
    7.2572316181861964E+00 
    1.1306509865933517E+01 
    1.9518927248158915E+00 
    1.0193990002361938E+01 
    1.2379320821514950E+01 
    5.5537901905663150E+00 
    1.2881555722509303E+01 
    1.4212600995282521E+01 
    1.2743576390015690E+01 
    9.0601190810055883E+00 
    9.2350148144091264E+00 
    9.1826511644485134E+00 
    5.1895188484619528E+00 
    8.3046695382055464E+00 
    8.1625632968592221E+00 
    9.1717066172623056E+00 
    8.4856738132849667E+00 
    6.1128584384301188E-01 
    5.7904042938951097E+00 
    8.8443742561038832E+00 
    9.1475038811097367E+00 
    1.1614336298437923E+01 
    1.9420550510313581E+00 
    9.6057797917404688E+00 
    9.5004017030242345E+00 
    3.3342135383620946E+00 
    1.2627471200350090E+01 
    7.8677981942309350E+00 
    9.3669179859125986E+00 
    1.2677393565198811E+01 
    4.8042459197440905E+00 
    1.2730696680770844E+01 
    7.9726092355175116E+00 
    8.9332525606832247E-01 
    8.6041018608295268E+00 
    1.3254009812833724E+01 
    1.2439292258537082E+01 
    1.2457475130110593E+01 
    9.5569965017287899E+00 
    9.4379116420985625E+00 
    7.8489039781085861E+00 
    6.2872032295332430E+00 
    1.2777193379611916E+01 
    8.7372499272204713E+00 
    6.1404250916984848E+00 
    1.2452357016844514E+01 
    1.3077684431327393E+01 
    9.3661787558700969E+00 
    9.0123872704720380E+00 
    1.5397586425660789E+01 
    9.6433015221001241E+00 
    1.2796049158478597E+01 
    7.4502302446575772E+00 
    1.5543584113764313E+01 
    6.0896022880655956E+00 
    8.2410747082609017E+00 
    6.8324733455557149E+00 
    9.8519914985400696E+00 
    7.8266331578042472E+00 
    1.5527317966801451E+01 
    9.6867883906806647E+00 
    1.2148949795048701E+01 
    6.2657566277660068E+00 
    9.2648034086808710E+00 
    1.2651123487389668E+01 
    7.8540617121111476E+00 
    6.5377462065133791E+00 
    1.0124256022021044E+01 
    1.2869304977572153E+01 
    6.7281535559293886E+00 
    8.6902535025196368E+00 
    9.0396720985636119E+00 
    1.2417084483570720E+01 
    8.8522778121877526E+00 
    1.2840732766671580E+01 
    1.3417516054118254E+01 
    7.8732881632602520E+00 
    7.7119987057478268E+00 
    7.3027308713648562E+00 
    1.2544490069838469E+01 
    9.5042450088660431E+00 
    1.5107818411095641E+01 
    1.1829541217549952E+01 
    1.2612721099772051E+01 
    1.4805981172971109E+01 
    1.4220403836720749E+01 
    9.3122331514523964E+00 
    9.1569864292290788E+00 
    1.2231290484461296E+01 
    1.2473289288192241E+01 
    1.2937001277773570E+01 
    1.2700114523958300E+01 
    1.5416654537815530E+01 
    9.6428870889953977E+00 
    7.9661601362067644E+00 
    9.6203543442681028E+00 
    1.3337106193716524E+01 
    9.4060259509003341E+00 
    5.4180096757705671E+00 
    9.0446463058204891E+00 
    1.3729155584405113E+01 
    9.5332121457059920E+00 
    7.9755360502269834E+00 
    8.9783940254451799E+00 
    1.3834244595201556E+01 
    1.2471304391700011E+01 
    7.5582059906791068E+00 
    1.3964003855134546E+01 
    9.3412165619191221E+00 
    1.2936429592564243E+01 
    1.3846818366357573E+01 
    9.7127581612512905E+00 
    4.8068317104523306E+00 
    1.0094998282990261E+01 
    4.9745914786146770E+00 
    9.4527748942112666E+00 
    9.2526498724085293E+00 
    1.0623447570374374E+01 
    5.2611817800721212E+00 
    1.1275946007834815E+01 
    9.2771131147693531E+00 
    1.2691338046165829E+01 
    9.6815059115290918E+00 
    7.3714835724938625E+00 
    8.8638241992805131E+00 
    9.7254092790229603E+00 
    9.7384529292101210E+00 
    1.3458267371104808E+01 
    7.6027767280375871E+00 
    7.4699668225765450E+00 
    5.5372852610380541E+00 
    1.2960394751701056E+01 
    8.9010931631369345E+00 
    1.2282539482673780E+01 
    9.2239966816993082E+00 
    6.0660823232476258E+00 
    1.2496595530965598E+01 
    9.1964745442733680E+00 
    6.6279096251733201E+00 
    7.0325282862863689E+00 
    7.2881258374175104E+00 
    1.2718558462103697E+01 
    9.1736528181660226E+00 
    1.3308847951975116E+01 
    9.1483231199742363E+00 
    9.0766952165619159E+00 
    8.6109429343304225E+00 
    1.2571844335528104E+01 
    8.9905686187572140E+00 
    7.3262814460636498E+00 
    1.4208311132539126E+01 
    1.2644957632653611E+01 
    6.3840959068510292E+00 
    2.4495751301072963E+00 
    9.1630508664071399E+00 
    8.6164893409086645E+00 
    7.7056018661385242E+00 
    8.4252201409251928E+00 
    1.2622632619203673E+01 
    8.8826171435141195E+00 
    8.0200677609499298E+00 
    1.2492938785857980E+01 
    6.3258633348123947E+00 
    1.2195133378735157E+01 
    8.3325695532078239E+00 
    7.2587450480850961E+00 
    7.7814420856103528E+00 
    1.3015277051537753E+01 
    9.2435887288728313E+00 
    9.2520374521939566E+00 
    5.3417450325871130E+00 
    5.7830595974328549E+00 
    1.1578094474208728E+01 
    9.2622520040920531E+00 
    9.2049654294476557E+00 
    1.3949483372280385E+01 
    7.4725052788989519E+00 
    9.2746709296917107E+00 
    6.5433308060820679E+00 
    6.7506284289916332E+00 
    1.2564269490622348E+01 
    8.8849116930080303E+00 
    6.3881847085039176E+00 
    9.7352462826115111E+00 
    9.1237588175769027E+00 
    1.2567593538606310E+01 
    1.4038457785885669E+01 
    9.4175894384105929E-01 
    9.1678328267779765E+00 
    9.4941526872715656E+00 
    1.2626983036507831E+01 
    8.6741218991707996E+00 
    9.2157570183049575E+00 
    1.3505817197363879E+01 
    7.8143619151500774E+00 
    6.4461524586469539E+00 
    1.1169742693184050E+01 
    1.2451672010141928E+01 
    1.3389759583676032E+01 
    1.3644343224737478E+01 
    9.0143390603056144E+00 
    9.1598589690786554E+00 
    1.0372736008414787E+01 
    6.0619032414317378E+00 
    1.2566807961350783E+01 
    6.9555779370903714E+00 
    6.3167460020307526E+00 
    1.1547728741040965E+01 
    1.0866087109775233E+01 
    6.1933247326468122E+00 
    1.2484045973055132E+01 
    1.3376430692050754E+01 
    9.6572008509522380E+00 
    1.4135542039443356E+01 
    1.2513393637540281E+01 
    8.7488975424870841E+00 
    1.3133235023960403E+01 
    6.7553824925690789E+00 
    1.2468268650873528E+01 
    9.1669476377742054E+00 
    9.1278156643623856E+00 
    1.4110881034571543E+01 
    8.9313062091292537E+00 
    1.1283341773241599E+01 
    7.7670423543355103E+00 
    1.3486629353314253E+01 
    1.2384619743974859E+01 
    8.1113042722161630E+00 
    1.2430085713115240E+01 
    8.3395661561455743E+00 
    9.2272435759552458E+00 
    1.3339007980250898E+01 
    1.2693439041101424E+01 
    1.3379499123236897E+01 
    1.2629801265339792E+01 
    8.3102683450359720E+00 
    8.5200981867657308E+00 
    1.3385704045884896E+01 
    8.6376228703447762E+00 
    1.2324821923234266E+01 
    8.9230174882084210E+00 
    3.5981767395699440E+00 
    6.3855242990368852E+00 
    5.9065250816787485E+00 
    1.3342176511693287E+01 
    1.4044068846702007E+01 
    1.2446649074747388E+01 
    1.0709355195095704E+01 
    1.2705061729311021E+01 
    1.2490641662329503E+01 
    1.3021906937981901E+01 
    5.1558318053913927E+00 
    3.3550323704746945E+00 
    1.0516047431140089E+01 
    8.8272161013882933E+00 
    1.2624022643059602E+01 
    1.2621737622907892E+01 
    9.5111542830310558E+00 
    1.2655373678511383E+01 
    9.1543752305359885E+00 
    9.0589437563392430E+00 
    4.6511448412797352E+00 
    3.3416154471627428E+00 
    1.3831554947392997E+01 
    7.1732789917575275E+00 
    8.0562296040618708E+00 
    9.4149569687164743E+00 
    1.5398699618296256E+01 
    9.5028146352153708E+00 
    9.4459688494846166E+00 
    3.8016179028043786E+00 
    9.5034495776539387E+00 
    9.5160397158241867E+00 
    1.2909881997065193E+01 
    7.7854451869791115E+00 
    8.8036019738649660E+00 
    1.3991230523706143E+01 
    9.1761565836280070E+00 
    1.2461043696828245E+01 
    1.2692895644633211E+01 
    1.1402308400883172E+01 
    7.7914940967862680E+00 
    1.2629144008349918E+01 
    8.9704332530734767E+00 
    1.2639697052788179E+01 
    1.2404793327292165E+01 
    1.3359944199513345E+01 
    1.2628439872177012E+01 
    1.1880347735469455E+01 
    9.1651311687391068E+00 
    6.1452527196959190E+00 
    1.5274016818978694E+01 
    7.0991138551035844E+00 
    1.3296560854204760E+01 
    9.1625569175462118E+00 
    7.5098698341678194E+00 
    4.4992334112484480E+00 
    9.5479096254763771E+00 
    1.2617436503998862E+01 
    1.2613341033697964E+01 
    9.2062680228989358E+00 
    9.1567634791618495E+00 
    1.4189771824866723E+01 
    1.3590340378802889E+01 
    9.5197671227602711E+00 
    3.1223935097195485E+00 
    1.1850849728417572E+01 
    1.5525332420449580E+01 
    9.1684424015957102E+00 
    1.1047443286263409E+01 
    8.6704185177549764E+00 
    1.5134488424346474E+01 
    1.3664522257620975E+01 
    1.3412461797230247E+01 
    9.5396600186717180E+00 
    4.1919979268742891E+00 
    8.6298704957740728E+00 
    8.6959455810349127E+00 
    8.7410345976212867E+00 
    3.3969218179628453E+00 