# vtk DataFile Version 2.0
Pressure Field Data 
ASCII 
DATASET UNSTRUCTURED_GRID 

POINTS 2860 double 

    0.0000000000000000E+00     0.0000000000000000E+00     0.0000000000000000E+00 
    1.0000000000000000E+00     0.0000000000000000E+00     0.0000000000000000E+00 
    1.0000000000000000E+00     1.0000000000000000E+00     0.0000000000000000E+00 
    0.0000000000000000E+00     1.0000000000000000E+00     0.0000000000000000E+00 
    2.5000000000000000E-01     2.5000000000000000E-01     0.0000000000000000E+00 
    7.5000000000000000E-01     2.5000000000000000E-01     0.0000000000000000E+00 
    7.5000000000000000E-01     7.5000000000000000E-01     0.0000000000000000E+00 
    2.5000000000000000E-01     7.5000000000000000E-01     0.0000000000000000E+00 
    3.1249999999942091E-02     0.0000000000000000E+00     0.0000000000000000E+00 
    6.2499999999873469E-02     0.0000000000000000E+00     0.0000000000000000E+00 
    9.3749999999826514E-02     0.0000000000000000E+00     0.0000000000000000E+00 
    1.2499999999977961E-01     0.0000000000000000E+00     0.0000000000000000E+00 
    1.5624999999968961E-01     0.0000000000000000E+00     0.0000000000000000E+00 
    1.8749999999959971E-01     0.0000000000000000E+00     0.0000000000000000E+00 
    2.1874999999950970E-01     0.0000000000000000E+00     0.0000000000000000E+00 
    2.4999999999941969E-01     0.0000000000000000E+00     0.0000000000000000E+00 
    2.8124999999932920E-01     0.0000000000000000E+00     0.0000000000000000E+00 
    3.1249999999923850E-01     0.0000000000000000E+00     0.0000000000000000E+00 
    3.4374999999914790E-01     0.0000000000000000E+00     0.0000000000000000E+00 
    3.7499999999905720E-01     0.0000000000000000E+00     0.0000000000000000E+00 
    4.0624999999896660E-01     0.0000000000000000E+00     0.0000000000000000E+00 
    4.3749999999887590E-01     0.0000000000000000E+00     0.0000000000000000E+00 
    4.6874999999878530E-01     0.0000000000000000E+00     0.0000000000000000E+00 
    4.9999999999869471E-01     0.0000000000000000E+00     0.0000000000000000E+00 
    5.3124999999877620E-01     0.0000000000000000E+00     0.0000000000000000E+00 
    5.6249999999885780E-01     0.0000000000000000E+00     0.0000000000000000E+00 
    5.9374999999893940E-01     0.0000000000000000E+00     0.0000000000000000E+00 
    6.2499999999902101E-01     0.0000000000000000E+00     0.0000000000000000E+00 
    6.5624999999910261E-01     0.0000000000000000E+00     0.0000000000000000E+00 
    6.8749999999918421E-01     0.0000000000000000E+00     0.0000000000000000E+00 
    7.1874999999926570E-01     0.0000000000000000E+00     0.0000000000000000E+00 
    7.4999999999934730E-01     0.0000000000000000E+00     0.0000000000000000E+00 
    7.8124999999942890E-01     0.0000000000000000E+00     0.0000000000000000E+00 
    8.1249999999951039E-01     0.0000000000000000E+00     0.0000000000000000E+00 
    8.4374999999959199E-01     0.0000000000000000E+00     0.0000000000000000E+00 
    8.7499999999967359E-01     0.0000000000000000E+00     0.0000000000000000E+00 
    9.0624999999975520E-01     0.0000000000000000E+00     0.0000000000000000E+00 
    9.3749999999983680E-01     0.0000000000000000E+00     0.0000000000000000E+00 
    9.6874999999991840E-01     0.0000000000000000E+00     0.0000000000000000E+00 
    1.0000000000000000E+00     3.1249999999942091E-02     0.0000000000000000E+00 
    1.0000000000000000E+00     6.2499999999873469E-02     0.0000000000000000E+00 
    1.0000000000000000E+00     9.3749999999826514E-02     0.0000000000000000E+00 
    1.0000000000000000E+00     1.2499999999977961E-01     0.0000000000000000E+00 
    1.0000000000000000E+00     1.5624999999968961E-01     0.0000000000000000E+00 
    1.0000000000000000E+00     1.8749999999959971E-01     0.0000000000000000E+00 
    1.0000000000000000E+00     2.1874999999950970E-01     0.0000000000000000E+00 
    1.0000000000000000E+00     2.4999999999941969E-01     0.0000000000000000E+00 
    1.0000000000000000E+00     2.8124999999932920E-01     0.0000000000000000E+00 
    1.0000000000000000E+00     3.1249999999923850E-01     0.0000000000000000E+00 
    1.0000000000000000E+00     3.4374999999914790E-01     0.0000000000000000E+00 
    1.0000000000000000E+00     3.7499999999905720E-01     0.0000000000000000E+00 
    1.0000000000000000E+00     4.0624999999896660E-01     0.0000000000000000E+00 
    1.0000000000000000E+00     4.3749999999887590E-01     0.0000000000000000E+00 
    1.0000000000000000E+00     4.6874999999878530E-01     0.0000000000000000E+00 
    1.0000000000000000E+00     4.9999999999869471E-01     0.0000000000000000E+00 
    1.0000000000000000E+00     5.3124999999877620E-01     0.0000000000000000E+00 
    1.0000000000000000E+00     5.6249999999885780E-01     0.0000000000000000E+00 
    1.0000000000000000E+00     5.9374999999893940E-01     0.0000000000000000E+00 
    1.0000000000000000E+00     6.2499999999902101E-01     0.0000000000000000E+00 
    1.0000000000000000E+00     6.5624999999910261E-01     0.0000000000000000E+00 
    1.0000000000000000E+00     6.8749999999918421E-01     0.0000000000000000E+00 
    1.0000000000000000E+00     7.1874999999926570E-01     0.0000000000000000E+00 
    1.0000000000000000E+00     7.4999999999934730E-01     0.0000000000000000E+00 
    1.0000000000000000E+00     7.8124999999942890E-01     0.0000000000000000E+00 
    1.0000000000000000E+00     8.1249999999951039E-01     0.0000000000000000E+00 
    1.0000000000000000E+00     8.4374999999959199E-01     0.0000000000000000E+00 
    1.0000000000000000E+00     8.7499999999967359E-01     0.0000000000000000E+00 
    1.0000000000000000E+00     9.0624999999975520E-01     0.0000000000000000E+00 
    1.0000000000000000E+00     9.3749999999983680E-01     0.0000000000000000E+00 
    1.0000000000000000E+00     9.6874999999991840E-01     0.0000000000000000E+00 
    9.6875000000003686E-01     1.0000000000000000E+00     0.0000000000000000E+00 
    9.3750000000011691E-01     1.0000000000000000E+00     0.0000000000000000E+00 
    9.0625000000015765E-01     1.0000000000000000E+00     0.0000000000000000E+00 
    8.7500000000017863E-01     1.0000000000000000E+00     0.0000000000000000E+00 
    8.4375000000028044E-01     1.0000000000000000E+00     0.0000000000000000E+00 
    8.1250000000040856E-01     1.0000000000000000E+00     0.0000000000000000E+00 
    7.8125000000054956E-01     1.0000000000000000E+00     0.0000000000000000E+00 
    7.5000000000066480E-01     1.0000000000000000E+00     0.0000000000000000E+00 
    7.1875000000086831E-01     1.0000000000000000E+00     0.0000000000000000E+00 
    6.8750000000102829E-01     1.0000000000000000E+00     0.0000000000000000E+00 
    6.5625000000114431E-01     1.0000000000000000E+00     0.0000000000000000E+00 
    6.2500000000129829E-01     1.0000000000000000E+00     0.0000000000000000E+00 
    5.9375000000147926E-01     1.0000000000000000E+00     0.0000000000000000E+00 
    5.6250000000168354E-01     1.0000000000000000E+00     0.0000000000000000E+00 
    5.3125000000188671E-01     1.0000000000000000E+00     0.0000000000000000E+00 
    5.0000000000205835E-01     1.0000000000000000E+00     0.0000000000000000E+00 
    4.6875000000192979E-01     1.0000000000000000E+00     0.0000000000000000E+00 
    4.3750000000180111E-01     1.0000000000000000E+00     0.0000000000000000E+00 
    4.0625000000167238E-01     1.0000000000000000E+00     0.0000000000000000E+00 
    3.7500000000154382E-01     1.0000000000000000E+00     0.0000000000000000E+00 
    3.4375000000141509E-01     1.0000000000000000E+00     0.0000000000000000E+00 
    3.1250000000128642E-01     1.0000000000000000E+00     0.0000000000000000E+00 
    2.8125000000115769E-01     1.0000000000000000E+00     0.0000000000000000E+00 
    2.5000000000102918E-01     1.0000000000000000E+00     0.0000000000000000E+00 
    2.1875000000090050E-01     1.0000000000000000E+00     0.0000000000000000E+00 
    1.8750000000077180E-01     1.0000000000000000E+00     0.0000000000000000E+00 
    1.5625000000064329E-01     1.0000000000000000E+00     0.0000000000000000E+00 
    1.2500000000051459E-01     1.0000000000000000E+00     0.0000000000000000E+00 
    9.3750000000385914E-02     1.0000000000000000E+00     0.0000000000000000E+00 
    6.2500000000257239E-02     1.0000000000000000E+00     0.0000000000000000E+00 
    3.1250000000128557E-02     1.0000000000000000E+00     0.0000000000000000E+00 
    0.0000000000000000E+00     9.6875000000003686E-01     0.0000000000000000E+00 
    0.0000000000000000E+00     9.3750000000011691E-01     0.0000000000000000E+00 
    0.0000000000000000E+00     9.0625000000015765E-01     0.0000000000000000E+00 
    0.0000000000000000E+00     8.7500000000017863E-01     0.0000000000000000E+00 
    0.0000000000000000E+00     8.4375000000028044E-01     0.0000000000000000E+00 
    0.0000000000000000E+00     8.1250000000040856E-01     0.0000000000000000E+00 
    0.0000000000000000E+00     7.8125000000054956E-01     0.0000000000000000E+00 
    0.0000000000000000E+00     7.5000000000066480E-01     0.0000000000000000E+00 
    0.0000000000000000E+00     7.1875000000086831E-01     0.0000000000000000E+00 
    0.0000000000000000E+00     6.8750000000102829E-01     0.0000000000000000E+00 
    0.0000000000000000E+00     6.5625000000114431E-01     0.0000000000000000E+00 
    0.0000000000000000E+00     6.2500000000129829E-01     0.0000000000000000E+00 
    0.0000000000000000E+00     5.9375000000147926E-01     0.0000000000000000E+00 
    0.0000000000000000E+00     5.6250000000168354E-01     0.0000000000000000E+00 
    0.0000000000000000E+00     5.3125000000188671E-01     0.0000000000000000E+00 
    0.0000000000000000E+00     5.0000000000205835E-01     0.0000000000000000E+00 
    0.0000000000000000E+00     4.6875000000192979E-01     0.0000000000000000E+00 
    0.0000000000000000E+00     4.3750000000180111E-01     0.0000000000000000E+00 
    0.0000000000000000E+00     4.0625000000167238E-01     0.0000000000000000E+00 
[...]
CELL_DATA 2795 
SCALARS Pressure double 1 
LOOKUP_TABLE default 

    7.7744830936092058E+00 
    2.0061945564045892E+01 
    1.3059492486585688E+01 
    1.2679959564052133E+01 
    9.6785970114453779E+00 
    1.9627499929708993E+01 
    2.0945130692679534E+01 
    6.8864594886054036E+00 
    1.3744024840160101E+01 
    1.0339442725759898E+01 
    8.7067768796271885E+00 
    1.9158982788983163E+01 
    1.9845354260186475E+01 
    1.9562360569501330E+01 
    1.1943109897650379E+01 
    6.7636742018416918E+00 
    1.1419948610449158E+01 
    9.3128083356157649E+00 
    1.8487884385919635E+01 
    1.3036371749261695E+01 
    1.2901124709036118E+01 
    1.9423783626949984E+01 
    1.2255856919464634E+01 
    4.4728413582640963E-01 
    1.9227913659691652E+01 
    1.9861345263003692E+01 
    2.1006110804166102E+01 
    8.3476891911641342E+00 
    1.9009999066773187E+01 
    2.1044444503616052E+01 
    1.3307790585891018E+01 
    1.3300133432085005E+01 
    9.0433449177026777E+00 
    1.3011640451100766E+01 
    4.0264223410177982E+00 
    1.1431903808820243E+01 
    1.2993133214065077E+01 
    2.1108254159643852E+01 
    2.0913063748726916E+01 
    1.9180319439702863E+01 
    9.6025145441696651E+00 
    1.9339189021971031E+01 
    9.2839911846852763E-01 
    1.3015531111402115E+01 
    2.0707096840692181E+01 
    2.0218437961555320E+01 
    1.9141758538132301E+01 
    1.4256920697175305E+01 
    1.9173532991744104E+01 
    1.1724781633337312E+01 
    1.1059149845448756E+01 
    1.3256181792767693E+01 
    1.2877276580703668E+01 
    1.1494223285690039E+01 
    1.3407876124252057E+01 
    1.8115298855587000E+01 
    1.5708507253319320E+01 
    9.7337489605728198E+00 
    1.9446870767564842E+01 
    1.9283237712308409E+01 
    1.2628843619268194E+01 
    1.2519814947904544E+01 
    1.2534904084446360E+01 
    2.0886044503461740E+01 
    2.1333008912388635E+01 
    1.1433079439227875E+01 
    1.3254520445768836E+01 
    1.8786759908299732E+01 
    1.5492416642218338E+01 
    1.2574410066267347E+01 
    2.1255669772884115E+01 
    1.9522110341596374E+01 
    1.1236815781998121E+01 
    2.0372405063327996E+01 
    1.3749527524927542E+01 
    1.9021513781722739E+01 
    2.1138690159889897E+01 
    1.3772437981429274E+01 
    7.9255685940938676E+00 
    1.3277638944430855E+01 
    2.0919349802069160E+01 
    2.1353486544528742E+01 
    1.1472656497611730E+01 
    1.3180494358513501E+01 
    2.1412459105314056E+01 
    1.2992187095612033E+01 
    1.2397528751004478E+01 
    1.6154573437624020E+01 
    7.5436836591380025E+00 
    1.1093345436702991E+01 
    1.3177724126117241E+01 
    1.3937227594673139E+01 
    2.3461995824919025E+01 
    9.3902308270769250E+00 
    1.3264538985415562E+01 
    1.9111087925957456E+01 
    1.9737226833170908E+01 
    8.1934973725514091E+00 
    1.2814889190252073E+01 
    1.3218980477992844E+01 
    1.9789200788142651E+01 
    1.3211315907444940E+01 
    1.9645244624258662E+01 
    4.8598806716853815E+00 
    8.4546555933936034E+00 
    1.3542334675676942E+01 
    2.0079973374430935E+01 
    1.1373079101463738E+01 
    1.2287835501067166E+01 
    1.3186699631635364E+01 
    1.2350243200346920E+01 
    1.5189741790082717E+01 
    1.1892220979528416E+01 
    1.1252906978523335E+01 
    8.6557442141628176E+00 
    1.6197534990213320E+01 
    1.3304927499742801E+01 
    2.0759517569530029E+01 
    1.1302390662736629E+01 
    1.2648966884048043E+01 
    1.9546011089868252E+01 
    1.0192124256708123E+01 
    2.0329969007698615E+01 
    1.3087503086565038E+01 
    1.2547622402029379E+01 
    1.9751923516905919E+01 
    1.3293318115348375E+01 
    2.1123888788113632E+01 
    1.6190957676471363E+01 
    1.7822952767763169E+01 
    2.1034424202636988E+01 
    9.4083874070483766E+00 
    1.3567627373233130E+01 
    1.9810317253978724E+01 
    3.6123837683898139E+00 
    1.3376667760243267E+01 
    2.0976868115180096E+01 
    1.2586082310835971E+01 
    1.4775895128409294E+01 
    8.1272004238444335E+00 
    1.9143728239260628E+01 
    2.4092146869248833E+01 
    1.6951037302032947E+01 
    1.2589819565242344E+01 
    1.0945211384347768E+01 
    1.4341879794579807E+01 
    1.3109318793473571E+01 
    8.7981445566199703E+00 
    2.1042952221042576E+01 
    1.9721388983349129E+01 
    1.9116292954830520E+01 
    1.3941581606803103E+01 
    1.1200946545618240E+01 
    1.2896626095860119E+01 
    2.0402932181329675E+01 
    1.1596775927209968E+01 
    1.3241961185479262E+01 
    1.1866897473459607E+01 
    1.5992049215142588E+01 
    2.4077351956329018E+01 
    1.9091082906862844E+01 
    1.1140833266067544E+01 
    2.0117976276858165E+01 
    2.0009942584154690E+01 
    2.0143834868430144E+01 
    2.1734048680028543E+01 
    2.2510474124510900E+01 
    2.0164648345065359E+01 
    1.3244041450937862E+01 
    1.4517872851646676E+01 
    1.9841546835891322E+01 
    2.0725648379143724E+01 
    9.2001699501467140E+00 
    1.9133719671892763E+01 
    2.0318538529392800E+01 
    8.9502072009839306E+00 
    2.1654977099894580E+01 
    2.1577329366617157E+01 
    1.8601568988991065E+01 
    1.3659631782009630E+01 
    3.3250765743584165E+00 
    2.0989423122947372E+01 
    1.3462873553894118E+01 
    2.1243037071572633E+01 
    1.2478248001279402E+01 
    2.0625872271125619E+01 
    1.1626551866717876E+00 
    1.7814045413045207E+01 
    1.2578995658711746E+01 
    1.1125385864084024E+01 
    1.0782418139003656E+01 
    1.3046692988251520E+01 
    1.4634255003750786E+01 
    1.3854238321382566E+01 
    8.7926040383250115E+00 
    2.0743304534229573E+01 
    1.9865125062277308E+01 
    1.5667005371900780E+01 
    1.3530469388696643E+01 
    1.8147813012163307E+00 
    9.8730489284535370E+00 
    6.7003065421874606E+00 
    2.1068458633841658E+01 
    1.5031738276876958E+01 
    1.9685558140830111E+01 
    1.9972387822294795E+01 
    1.1736144064290675E+01 
    1.5823074708649809E+01 
    1.9083985832381256E+01 
    2.1555019305739194E+01 
    8.0952978987460540E+00 
    1.7042751597776771E+01 
    1.3827779918374274E+01 
    7.1544390838902325E+00 
    1.1716063907692066E+01 
    1.6680885397819708E+01 
    1.9910036063647087E+01 
    1.3113719406103774E+01 
    2.0103802380893047E+01 
    1.9690734604879029E+01 
    1.9611352194886180E+01 
    1.2903048628884930E+01 
    1.1072006630311515E+01 
    1.9134154519745337E+01 
    1.1235691899757015E+01 
    1.3220189870170701E+01 
    1.0949543838048266E+01 
    1.3173797020973669E+01 
    1.9984658988709562E+01 
    7.9582598683528722E+00 
    1.1570160063052707E+01 
    2.0901326632086640E+01 
    1.2916190723032839E+01 
    1.4877747439717474E+01 
    8.1640433506293348E+00 
    1.1334549809194725E+01 
    1.9650088239145635E+01 
    2.0198261567973727E+01 
    6.6605221801500321E+00 
    1.2929144192905506E+01 
    1.1045165232343992E+01 
    2.2184966647823806E+01 
    2.1370759129159520E+01 
    2.2558836871447948E+01 
    1.2955531781303378E+01 
    1.9943377894967423E+01 
    1.8985304164245360E+01 
    1.2776686584595138E+01 
    1.9110756943475707E+01 
    1.3530796713130396E+01 
    7.2545974814418219E+00 
    1.3438257850566993E+01 
    2.0914037239432137E+01 
    1.9103258085409724E+01 
    8.6534858581081036E+00 
    1.9149523740453763E+01 
    1.4673995535147256E+01 
    1.3346634840855542E+01 
    1.2692364799981085E+01 
    1.8848166532384646E+01 
    1.4103224803485150E+01 
    1.9137538857439260E+01 
    1.2928589387758944E+01 
    7.5258159824405544E+00 
    1.3314411790121850E+01 
    1.0813739735799439E+01 
    1.6987132158160119E+01 
    2.1193847857889072E+01 
    1.9141385322773072E+01 
    2.0964712937117838E+01 
    1.2843456169207622E+01 
    8.4295133336236887E+00 
    8.5540596456698488E+00 
    1.3618730496514852E+01 
    1.3186662866743685E+01 
    1.8262833709690376E+00 
    1.8164378998527205E+01 
    2.1793709892691222E+01 
    1.2504102497000977E+01 
    7.5784255476915430E+00 
    1.5576815479595901E+01 
    1.9138404879687187E+01 
    9.0806342690705506E+00 
    6.0354937224070131E+00 
    1.3163056495396372E+01 
    1.9324015876119436E+01 
    2.0619990220930269E+01 
    2.0185525760065904E+01 
    2.0206000275467886E+01 
    8.8554315808021435E+00 
    1.3339466532048030E+01 
    1.8575500046638332E+01 
    1.0137434451512153E+01 
    1.9819354360249982E+01 
    1.6171317539385093E+01 
    8.6815851598822551E+00 
    1.9258688423261415E+01 
    2.1115423679665362E+01 
    1.9455120963835341E+01 
    8.7278745611948896E+00 
    1.3249618057606790E+01 
    9.6475996530282515E+00 
    1.2458081422637436E+01 
    1.9132620333039437E+01 
    1.9115537709530045E+01 
    8.7797287074750496E+00 
    2.0685249492391048E+01 
    1.4008012396636701E+01 
    1.9228087875048889E+01 
    2.0810333647988269E+01 
    1.9179004992985465E+01 
    1.7338259844909260E+01 
    2.2283572444583577E+01 
    1.2420879732688340E+01 
    2.0913009523998184E+01 
    1.9240096621832006E+01 
    2.1042856590836603E+01 
    2.0663568552245746E+01 
    1.2577114852591963E+01 
    1.3045625085803037E+01 
    1.2491570762949090E+01 
    1.6501380667262275E+01 
    4.8831173893727282E+00 
    1.3525353625752903E+01 
    2.2452678896805924E+01 
    1.3538083423796788E+01 
    1.3819334163323060E+01 
    2.0994175746155182E+01 
    2.1352514805201963E+01 
    1.2285932313242187E+01 
    1.9153523684718905E+01 
    1.9120941663035659E+01 
    1.3800339993198765E+01 
    2.0573269483207561E+01 
    9.1458517123291259E+00 
    5.7952373958914878E+00 
    1.4228308288636370E+01 
    1.3555306435874680E+01 
    1.9099279466094735E+01 
    8.1722409468070651E+00 
    2.0049944619485846E+01 
    5.9095654103768558E+00 
    1.3471670411559428E+01 
    1.2597023912200314E+01 
    1.3220238051160955E+01 
    2.4137458247145233E+01 
    4.7361007653189686E+00 
    1.3402326790003830E+01 
    1.6660242829003924E+01 
    1.2708074755994593E+01 
    9.7524464492911829E+00 
    2.0356200362965453E+01 
    2.3572069970005664E+01 
    2.0607965708575239E+01 
    1.3311860187699866E+01 
    7.1117123024750430E+00 
    2.3393694511367617E+01 
    1.9830227555940972E+01 
    9.2924456966040090E+00 
    1.2804994296292010E+01 
    2.1706598611308753E+01 
    4.0144845963102869E+00 
    1.3633494098545199E+01 
    2.0703768500122344E+01 
    1.3238567591075373E+01 
    1.1419456007279486E+01 
    1.3461559943365341E+01 
    1.8677718060073719E+01 
    1.3215594681108634E+01 
    6.2932412833151705E+00 
    1.1480736275189518E+00 
    9.6351673655664012E+00 
    2.2060106249531465E+01 
    1.2491775609411228E+01 
    1.5311370539864502E+01 
    1.4562051653505137E+01 
    1.7106278678832787E+01 
    1.3255523333573429E+01 
    1.9665017199439642E+01 
    2.4154504202662146E+01 
    1.6028290448513342E+01 
    2.0864600891611751E+01 
    6.6958300779429336E-01 
    1.9115150303812182E+01 
    7.0156636446443317E+00 
    2.2678960545402283E+01 
    1.3422625419255670E+01 
    1.1641769702958621E+01 
    9.8532771108354691E+00 
    6.6297473805413238E+00 
    1.4932560949881466E+01 
    1.0253312963224394E+01 
    1.6814850822459643E+01 
    2.7895673160630450E+00 
    1.4730719570210502E+01 
    1.8970790790899276E+01 
    7.7506906401266047E+00 
    1.9927801971970993E+01 
    2.2330084413338071E+01 
    1.9734846030505555E+01 
    1.3218727302097262E+01 
    1.3212967283080948E+01 
    1.3411798501532152E+01 
    7.2103607034174173E+00 
    1.2045756886478765E+01 
    1.1788621056453376E+01 
    1.3395418733837829E+01 
    1.2380561356654919E+01 
    8.5863913973791361E-01 
    8.0930409591992021E+00 
    1.2960877202049373E+01 
    1.3357525292541204E+01 
    1.7389630426573323E+01 
    2.6222703470989654E+00 
    1.3739398265592801E+01 
    1.3565896011192207E+01 
    4.5516337393963058E+00 
    1.9477162898268141E+01 
    1.1277338194243836E+01 
    1.3382825800004239E+01 
    1.9803437486398991E+01 
    6.6497102127717991E+00 
    1.9643967342168171E+01 
    1.1446917329614553E+01 
    1.1802769698078674E+00 
    1.2584651193693979E+01 
    2.0775578233538909E+01 
    1.9126532263287572E+01 
    1.9166762482143188E+01 
    1.3924042351970412E+01 
    1.3475300004482818E+01 
    1.1234444037952784E+01 
    8.8377643496430238E+00 
    1.9985311481677080E+01 
    1.2797226324129820E+01 
    8.5943393369923715E+00 
    1.9151149798257848E+01 
    2.0414534580997135E+01 
    1.3652520385622287E+01 
    1.2978418259223462E+01 
    2.4003165393338485E+01 
    1.3801803524552424E+01 
    2.0050306494415395E+01 
    1.0588941548406096E+01 
    2.4185492856978655E+01 
    8.5038924419175128E+00 
    1.1895598122180688E+01 
    9.5747865503862624E+00 
    1.4153683518838704E+01 
    1.1106254986941757E+01 
    2.4166465540665918E+01 
    1.3874813927670861E+01 
    1.8652023659827844E+01 
    8.7486385526702986E+00 
    1.3249740961781704E+01 
    1.9779579206375931E+01 
    1.1145644832615707E+01 
    9.2215419042730318E+00 
    1.5214842096714129E+01 
    1.9978788513373985E+01 
    9.4372971513511210E+00 
    1.2629616360162670E+01 
    1.3024501309438474E+01 
    1.9076803390157572E+01 
    1.2743167721556031E+01 
    2.0142808485571656E+01 
    2.1092262825663852E+01 
    1.1275423978240987E+01 
    1.1007666704247105E+01 
    1.0303303758373451E+01 
    1.9313983732994284E+01 
    1.3585305091678300E+01 
    2.3622408108969790E+01 
    1.7589522249784714E+01 
    1.9695844798206792E+01 
    2.3224485136416529E+01 
    2.2338024962851343E+01 
    1.3308451539494088E+01 
    1.3372593426666468E+01 
    1.8619717896564079E+01 
    1.9175518072135016E+01 
    2.0306546705270669E+01 
    1.9858665713728477E+01 
    2.4035309434586967E+01 
    1.3801068164243393E+01 
    1.1446882040107917E+01 
    1.3757857052420642E+01 
    2.0936628452632707E+01 
    1.3429685410280712E+01 
    7.5589351150338446E+00 
    1.3194357836395140E+01 
    2.1666270540919200E+01 
    1.3618683468881802E+01 
    1.1453209761650037E+01 
    1.2946919969022300E+01 
    2.1830631645906653E+01 
    1.9459101008654606E+01 
    1.0778596302106138E+01 
    2.2027130764693243E+01 
    1.3344837975008407E+01 
    2.0312674320194532E+01 
    2.1843037367908710E+01 
    1.4261629698115204E+01 
    6.6635050837878831E+00 
    1.4921325892736297E+01 
    6.9013996387396999E+00 
    1.3493391728957587E+01 
    1.3242783225616737E+01 
    1.5857275345613600E+01 
    7.3182168250420432E+00 
    1.7072281973179599E+01 
    1.3265394818068582E+01 
    1.9845625942100845E+01 
    1.4559411190695817E+01 
    1.0489572975374438E+01 
    1.2767704890387536E+01 
    1.4152861891654696E+01 
    1.3958499159400096E+01 
    2.1239742053642317E+01 
    1.0804805161331620E+01 
    1.0592117714635133E+01 
    7.7211648475532701E+00 
    2.0368835921427415E+01 
    1.2827183591259239E+01 
    1.9047070197394849E+01 
    1.3204231944221288E+01 
    8.4996777182301457E+00 
    1.9465166847883978E+01 
    1.3174004063675525E+01 
    9.3359098835129704E+00 
    9.9425695799441414E+00 
    1.0328406546905606E+01 
    1.9890015258346466E+01 
    1.3398396653040606E+01 
    2.0873615057966369E+01 
    1.3122839674280325E+01 
    1.3044616618727778E+01 
    1.2506970018973163E+01 
    1.9612241674323393E+01 
    1.2935716611926878E+01 
    1.0374503928822332E+01 
    2.2329202985628591E+01 
    1.9742558839107875E+01 
    8.9202537105421928E+00 
    3.3112651710197718E+00 
    1.3382859312937088E+01 
    1.2370917617441458E+01 
    1.0981690892667947E+01 
    1.2204638021167565E+01 
    1.9463527513213752E+01 
    1.2941344147133480E+01 
    1.1538166793369486E+01 
    1.9215835313224300E+01 
    8.8397954586563383E+00 
    1.8563146671124326E+01 
    1.1912236235833699E+01 
    1.0316767716265696E+01 
    1.1121555441513335E+01 
    2.0451547470024373E+01 
    1.3223676164548317E+01 
    1.3234186259118060E+01 
    7.4355908235072468E+00 
    8.0839270336177460E+00 
    1.7491719827815466E+01 
    1.3246661960507526E+01 
    1.3442171616883670E+01 
    2.2016113254387033E+01 
    1.0604050740976493E+01 
    1.3262230465119849E+01 
    9.1675129128134270E+00 
    9.4820796086433763E+00 
    1.9541026867311047E+01 
    1.2780624640343046E+01 
    8.9738701158143996E+00 
    1.3943741086658219E+01 
    1.3116659703170276E+01 
    1.9568088744865893E+01 
    2.2149219201429791E+01 
    1.2473796420568168E+00 
    1.3390152796212581E+01 
    1.3553743067242285E+01 
    1.9717357637162255E+01 
    1.2690566593855779E+01 
    1.3189390032322741E+01 
    2.1326089179959688E+01 
    1.1165731844076639E+01 
    9.0590823362126276E+00 
    1.6333385230843422E+01 
    1.9145634753584439E+01 
    2.1032167623443090E+01 
    2.1509921755569863E+01 
    1.3154544030092238E+01 
    1.3377285564023182E+01 
    1.5007575926223875E+01 
    8.4541254723480925E+00 
    1.9361318223712942E+01 
    9.8136951265064987E+00 
    8.8228850094653879E+00 
    1.7083556619772995E+01 
    1.5877392300768809E+01 
    8.6434699858232324E+00 
    1.9203148975114456E+01 
    2.1011064137066501E+01 
    1.3825055535537963E+01 
    2.2297463314204474E+01 
    1.9255368484354229E+01 
    1.2771027216433490E+01 
    2.0455589401929849E+01 
    9.4818967313507212E+00 
    1.9164079437284787E+01 
    1.3388490238683003E+01 
    1.3332373920120256E+01 
    2.2273875702107915E+01 
    1.2877869710625014E+01 
    1.6648508740512291E+01 
    1.1094176997062702E+01 
    2.1216850318534018E+01 
    1.8990806598503081E+01 
    1.1669728006594948E+01 
    1.9132273286779686E+01 
    1.1918847413517323E+01 
    1.3199693986664890E+01 
    2.0941748260416027E+01 
    1.9815947720727944E+01 
    2.1015496474635849E+01 
    1.9718957064518882E+01 
    1.2068938716061313E+01 
    1.2396644719178848E+01 
    2.1030234397345993E+01 
    1.2591208834101819E+01 
    1.8814762081214543E+01 
    1.2858155304060817E+01 
    4.9328925142030569E+00 
    8.9233971265429410E+00 
    8.2482276335974944E+00 
    2.0947638373048786E+01 
    2.2163633356594108E+01 
    1.9147035491822230E+01 
    1.5515939219688299E+01 
    1.9630318098425420E+01 
    1.9206898405245372E+01 
    2.0312502107435307E+01 
    7.1596494006276714E+00 
    4.5818290928119305E+00 
    1.5178604049594046E+01 
    1.2916178971802122E+01 
    1.9485489194850736E+01 
    1.9482557828326293E+01 
    1.3579043633465345E+01 
    1.9549561236160454E+01 
    1.3368773909426048E+01 
    1.3243587620174237E+01 
    6.4312884601522038E+00 
    4.5551757091600207E+00 
    2.1822754959393091E+01 
    1.0125600130450598E+01 
    1.1596880465619613E+01 
    1.3445363894663382E+01 
    2.4009034683373397E+01 
    1.3566807488557195E+01 
    1.3815356347198161E+01 
    5.2501411406551375E+00 
    1.3566595180103299E+01 
    1.3585481806147316E+01 
    1.9974575014622584E+01 
    1.1137069401371599E+01 
    1.2633332442585029E+01 
    2.2075256064473965E+01 
    1.3402491073765196E+01 
    1.9167294716459260E+01 
    1.9565130645542492E+01 
    1.6747040136089570E+01 
    1.1098280951417220E+01 
    1.9713041350625183E+01 
    1.3106858847503586E+01 
    1.9474511935465340E+01 
    1.9048729558385084E+01 
    2.0981328869029927E+01 
    1.9729023337943140E+01 
    1.7851196225186609E+01 
    1.3385595810493369E+01 
    8.5795977828587660E+00 
    2.3850826272718447E+01 
    1.0037242979933019E+01 
    2.0917606776913164E+01 
    1.3381802643580453E+01 
    1.0699364318348557E+01 
    6.2277622182772427E+00 
    1.3634822774344810E+01 
    1.9697036011223844E+01 
    1.9671416833247125E+01 
    1.3174700572717507E+01 
    1.3373288918388443E+01 
    2.2358832643270141E+01 
    2.1418843280555460E+01 
    1.3593896359043955E+01 
    4.2638933326010164E+00 
    1.7706343027555786E+01 
    2.4160101246795001E+01 
    1.3390445800313014E+01 
    1.6105329795608284E+01 
    1.2689894569747077E+01 
    2.3665007623585524E+01 
    2.1543224605524955E+01 
    2.1166300568351232E+01 
    1.3624330543996850E+01 
    5.8379834669166293E+00 
    1.2629250548085523E+01 
    1.2723492787234754E+01 
    1.2780220640931375E+01 
    4.6773283233541747E+00 