# vtk DataFile Version 2.0
Pressure Field Data 
ASCII 
DATASET UNSTRUCTURED_GRID 

POINTS 2860 double 

    0.0000000000000000E+00     0.0000000000000000E+00     0.0000000000000000E+00 
    1.0000000000000000E+00     0.0000000000000000E+00     0.0000000000000000E+00 
    1.0000000000000000E+00     1.0000000000000000E+00     0.0000000000000000E+00 
    0.0000000000000000E+00     1.0000000000000000E+00     0.0000000000000000E+00 
    2.5000000000000000E-01     2.5000000000000000E-01     0.0000000000000000E+00 
    7.5000000000000000E-01     2.5000000000000000E-01     0.0000000000000000E+00 
    7.5000000000000000E-01     7.5000000000000000E-01     0.0000000000000000E+00 
    2.5000000000000000E-01     7.5000000000000000E-01     0.0000000000000000E+00 
    3.1249999999942091E-02     0.0000000000000000E+00     0.0000000000000000E+00 
    6.2499999999873469E-02     0.0000000000000000E+00     0.0000000000000000E+00 
    9.3749999999826514E-02     0.0000000000000000E+00     0.0000000000000000E+00 
    1.2499999999977961E-01     0.0000000000000000E+00     0.0000000000000000E+00 
    1.5624999999968961E-01     0.0000000000000000E+00     0.0000000000000000E+00 
    1.8749999999959971E-01     0.0000000000000000E+00     0.0000000000000000E+00 
    2.1874999999950970E-01     0.0000000000000000E+00     0.0000000000000000E+00 
    2.4999999999941969E-01     0.0000000000000000E+00     0.0000000000000000E+00 
    2.8124999999932920E-01     0.0000000000000000E+00     0.0000000000000000E+00 
    3.1249999999923850E-01     0.0000000000000000E+00     0.0000000000000000E+00 
    3.4374999999914790E-01     0.0000000000000000E+00     0.0000000000000000E+00 
    3.7499999999905720E-01     0.0000000000000000E+00     0.0000000000000000E+00 
    4.0624999999896660E-01     0.0000000000000000E+00     0.0000000000000000E+00 
    4.3749999999887590E-01     0.0000000000000000E+00     0.0000000000000000E+00 
    4.6874999999878530E-01     0.0000000000000000E+00     0.0000000000000000E+00 
    4.9999999999869471E-01     0.0000000000000000E+00     0.0000000000000000E+00 
    5.3124999999877620E-01     0.0000000000000000E+00     0.0000000000000000E+00 
    5.6249999999885780E-01     0.0000000000000000E+00     0.0000000000000000E+00 
    5.9374999999893940E-01     0.0000000000000000E+00     0.0000000000000000E+00 
    6.2499999999902101E-01     0.0000000000000000E+00     0.0000000000000000E+00 
    6.5624999999910261E-01     0.0000000000000000E+00     0.0000000000000000E+00 
    6.8749999999918421E-01     0.0000000000000000E+00     0.0000000000000000E+00 
    7.1874999999926570E-01     0.0000000000000000E+00     0.0000000000000000E+00 
    7.4999999999934730E-01     0.0000000000000000E+00     0.0000000000000000E+00 
    7.8124999999942890E-01     0.0000000000000000E+00     0.0000000000000000E+00 
    8.1249999999951039E-01     0.0000000000000000E+00     0.0000000000000000E+00 
    8.4374999999959199E-01     0.0000000000000000E+00     0.0000000000000000E+00 
    8.7499999999967359E-01     0.0000000000000000E+00     0.0000000000000000E+00 
    9.0624999999975520E-01     0.0000000000000000E+00     0.0000000000000000E+00 
    9.3749999999983680E-01     0.0000000000000000E+00     0.0000000000000000E+00 
    9.6874999999991840E-01     0.0000000000000000E+00     0.0000000000000000E+00 
    1.0000000000000000E+00     3.1249999999942091E-02     0.0000000000000000E+00 
    1.0000000000000000E+00     6.2499999999873469E-02     0.0000000000000000E+00 
    1.0000000000000000E+00     9.3749999999826514E-02     0.0000000000000000E+00 
    1.0000000000000000E+00     1.2499999999977961E-01     0.0000000000000000E+00 
    1.0000000000000000E+00     1.5624999999968961E-01     0.0000000000000000E+00 
    1.0000000000000000E+00     1.8749999999959971E-01     0.0000000000000000E+00 
    1.0000000000000000E+00     2.1874999999950970E-01     0.0000000000000000E+00 
    1.0000000000000000E+00     2.4999999999941969E-01     0.0000000000000000E+00 
    1.0000000000000000E+00     2.8124999999932920E-01     0.0000000000000000E+00 
    1.0000000000000000E+00     3.1249999999923850E-01     0.0000000000000000E+00 
    1.0000000000000000E+00     3.4374999999914790E-01     0.0000000000000000E+00 
    1.0000000000000000E+00     3.7499999999905720E-01     0.0000000000000000E+00 
    1.0000000000000000E+00     4.0624999999896660E-01     0.0000000000000000E+00 
    1.0000000000000000E+00     4.3749999999887590E-01     0.0000000000000000E+00 
    1.0000000000000000E+00     4.6874999999878530E-01     0.0000000000000000E+00 
    1.0000000000000000E+00     4.9999999999869471E-01     0.0000000000000000E+00 
    1.0000000000000000E+00     5.3124999999877620E-01     0.0000000000000000E+00 
    1.0000000000000000E+00     5.6249999999885780E-01     0.0000000000000000E+00 
    1.0000000000000000E+00     5.9374999999893940E-01     0.0000000000000000E+00 
    1.0000000000000000E+00     6.2499999999902101E-01     0.0000000000000000E+00 
    1.0000000000000000E+00     6.5624999999910261E-01     0.0000000000000000E+00 
    1.0000000000000000E+00     6.8749999999918421E-01     0.0000000000000000E+00 
    1.0000000000000000E+00     7.1874999999926570E-01     0.0000000000000000E+00 
    1.0000000000000000E+00     7.4999999999934730E-01     0.0000000000000000E+00 
    1.0000000000000000E+00     7.8124999999942890E-01     0.0000000000000000E+00 
    1.0000000000000000E+00     8.1249999999951039E-01     0.0000000000000000E+00 
    1.0000000000000000E+00     8.4374999999959199E-01     0.0000000000000000E+00 
    1.0000000000000000E+00     8.7499999999967359E-01     0.0000000000000000E+00 
    1.0000000000000000E+00     9.0624999999975520E-01     0.0000000000000000E+00 
    1.0000000000000000E+00     9.3749999999983680E-01     0.0000000000000000E+00 
    1.0000000000000000E+00     9.6874999999991840E-01     0.0000000000000000E+00 
    9.6875000000003686E-01     1.0000000000000000E+00     0.0000000000000000E+00 
    9.3750000000011691E-01     1.0000000000000000E+00     0.0000000000000000E+00 
    9.0625000000015765E-01     1.0000000000000000E+00     0.0000000000000000E+00 
    8.7500000000017863E-01     1.0000000000000000E+00     0.0000000000000000E+00 
    8.4375000000028044E-01     1.0000000000000000E+00     0.0000000000000000E+00 
    8.1250000000040856E-01     1.0000000000000000E+00     0.0000000000000000E+00 
    7.8125000000054956E-01     1.0000000000000000E+00     0.0000000000000000E+00 
    7.5000000000066480E-01     1.0000000000000000E+00     0.0000000000000000E+00 
    7.1875000000086831E-01     1.0000000000000000E+00     0.0000000000000000E+00 
    6.8750000000102829E-01     1.0000000000000000E+00     0.0000000000000000E+00 
    6.5625000000114431E-01     1.0000000000000000E+00     0.0000000000000000E+00 
    6.2500000000129829E-01     1.0000000000000000E+00     0.0000000000000000E+00 
    5.9375000000147926E-01     1.0000000000000000E+00     0.0000000000000000E+00 
    5.6250000000168354E-01     1.0000000000000000E+00     0.0000000000000000E+00 
    5.3125000000188671E-01     1.0000000000000000E+00     0.0000000000000000E+00 
    5.0000000000205835E-01     1.0000000000000000E+00     0.0000000000000000E+00 
    4.6875000000192979E-01     1.0000000000000000E+00     0.0000000000000000E+00 
    4.3750000000180111E-01     1.0000000000000000E+00     0.0000000000000000E+00 
    4.0625000000167238E-01     1.0000000000000000E+00     0.0000000000000000E+00 
    3.7500000000154382E-01     1.0000000000000000E+00     0.0000000000000000E+00 
    3.4375000000141509E-01     1.0000000000000000E+00     0.0000000000000000E+00 
    3.1250000000128642E-01     1.0000000000000000E+00     0.0000000000000000E+00 
    2.8125000000115769E-01     1.0000000000000000E+00     0.0000000000000000E+00 
    2.5000000000102918E-01     1.0000000000000000E+00     0.0000000000000000E+00 
    2.1875000000090050E-01     1.0000000000000000E+00     0.0000000000000000E+00 
    1.8750000000077180E-01     1.0000000000000000E+00     0.0000000000000000E+00 
    1.5625000000064329E-01     1.0000000000000000E+00     0.0000000000000000E+00 
    1.2500000000051459E-01     1.0000000000000000E+00     0.0000000000000000E+00 
    9.3750000000385914E-02     1.0000000000000000E+00     0.0000000000000000E+00 
    6.2500000000257239E-02     1.0000000000000000E+00     0.0000000000000000E+00 
    3.1250000000128557E-02     1.0000000000000000E+00     0.0000000000000000E+00 
    0.0000000000000000E+00     9.6875000000003686E-01     0.0000000000000000E+00 
    0.0000000000000000E+00     9.3750000000011691E-01     0.0000000000000000E+00 
    0.0000000000000000E+00     9.0625000000015765E-01     0.0000000000000000E+00 
    0.0000000000000000E+00     8.7500000000017863E-01     0.0000000000000000E+00 
    0.0000000000000000E+00     8.4375000000028044E-01     0.0000000000000000E+00 
    0.0000000000000000E+00     8.1250000000040856E-01     0.0000000000000000E+00 
    0.0000000000000000E+00     7.8125000000054956E-01     0.0000000000000000E+00 
    0.0000000000000000E+00     7.5000000000066480E-01     0.0000000000000000E+00 
    0.0000000000000000E+00     7.1875000000086831E-01     0.0000000000000000E+00 
    0.0000000000000000E+00     6.8750000000102829E-01     0.0000000000000000E+00 
    0.0000000000000000E+00     6.5625000000114431E-01     0.0000000000000000E+00 
    0.0000000000000000E+00     6.2500000000129829E-01     0.0000000000000000E+00 
    0.0000000000000000E+00     5.9375000000147926E-01     0.0000000000000000E+00 
    0.0000000000000000E+00     5.6250000000168354E-01     0.0000000000000000E+00 
    0.0000000000000000E+00     5.3125000000188671E-01     0.0000000000000000E+00 
    0.0000000000000000E+00     5.0000000000205835E-01     0.0000000000000000E+00 
    0.0000000000000000E+00     4.6875000000192979E-01     0.0000000000000000E+00 
    0.0000000000000000E+00     4.3750000000180111E-01     0.0000000000000000E+00 
    0.0000000000000000E+00     4.0625000000167238E-01     0.0000000000000000E+00 
[...]
CELL_DATA 2795 
SCALARS Pressure double 1 
LOOKUP_TABLE default 

    8.3075012973684164E+00 
    1.9877677610746662E+01 
    1.3683084167727154E+01 
    1.3347555958439255E+01 
    1.0427460177295082E+01 
    1.9574755719922070E+01 
    2.0670050150294728E+01 
    7.3307129763700614E+00 
    1.4284868051779576E+01 
    1.0684128075985454E+01 
    8.9181898136041760E+00 
    1.9165574337813034E+01 
    1.9746293153092328E+01 
    1.9523770261940015E+01 
    1.2521852866074012E+01 
    7.1932705928352494E+00 
    1.2224395571172922E+01 
    9.5697334742798432E+00 
    1.8547238011844019E+01 
    1.3657684521276661E+01 
    1.3545503927588635E+01 
    1.9414953423508688E+01 
    1.2974472634293329E+01 
    4.4766788082064712E-01 
    1.9167570614286358E+01 
    1.9704961246643908E+01 
    2.0716459872410613E+01 
    8.5614377984284449E+00 
    1.9018086886267632E+01 
    2.0726645233756496E+01 
    1.3901645228723861E+01 
    1.3874981056255336E+01 
    9.3506114030651748E+00 
    1.3643352202132013E+01 
    4.1095420327444394E+00 
    1.2232283039053808E+01 
    1.3625167008006358E+01 
    2.0781074729618876E+01 
    2.0638079245105498E+01 
    1.9186091008207733E+01 
    1.0289898312207196E+01 
    1.9260308681306032E+01 
    9.3066239432716225E-01 
    1.3648992217610710E+01 
    2.0447130352709646E+01 
    2.0027809526429536E+01 
    1.9148180649838515E+01 
    1.4735184538662129E+01 
    1.9177862826436243E+01 
    1.2512853920457575E+01 
    1.1897820699231984E+01 
    1.3833644810127522E+01 
    1.3532124492049329E+01 
    1.2293451745946955E+01 
    1.3989332625019582E+01 
    1.8212265264302662E+01 
    1.6041240273860396E+01 
    1.0489516461601179E+01 
    1.9429550321347882E+01 
    1.9290230453283730E+01 
    1.3287583149769134E+01 
    1.3114132214014603E+01 
    1.3217570894783229E+01 
    2.0590478095586146E+01 
    2.0973720200923928E+01 
    1.2239433975704060E+01 
    1.3831447139081963E+01 
    1.8807720125566636E+01 
    1.5848098147662082E+01 
    1.3207057067746117E+01 
    2.0931459055830341E+01 
    1.9437951293576525E+01 
    1.2063107200480086E+01 
    2.0162480610783987E+01 
    1.4293396621957587E+01 
    1.8990358447141087E+01 
    2.0803372243582583E+01 
    1.4356932164749342E+01 
    8.4044521904670386E+00 
    1.3852400285895072E+01 
    2.0649524927398669E+01 
    2.0993162180248241E+01 
    1.2266379524300870E+01 
    1.3775072977968808E+01 
    2.1051681052605364E+01 
    1.3621030188020146E+01 
    1.3097964639486408E+01 
    1.6444227160954657E+01 
    8.0265464035856411E+00 
    1.1933721156126296E+01 
    1.3770619140408497E+01 
    1.4456491789175692E+01 
    2.2889517096060441E+01 
    1.0097903992037066E+01 
    1.3840456517797298E+01 
    1.9112822048689001E+01 
    1.9653173524375394E+01 
    8.7805664832798076E+00 
    1.3459266811038816E+01 
    1.3809550264864633E+01 
    1.9698470738217100E+01 
    1.3793229692286369E+01 
    1.9554581593544214E+01 
    5.0269680553419036E+00 
    8.6590690229715399E+00 
    1.4091368782969880E+01 
    1.9889432513627504E+01 
    1.2185377333769212E+01 
    1.2969535705350371E+01 
    1.3763174598978701E+01 
    1.3052948856865680E+01 
    1.5573915539912317E+01 
    1.2605052689740194E+01 
    1.2073135712581273E+01 
    9.2203992631234613E+00 
    1.6498182345585484E+01 
    1.3881590199159119E+01 
    2.0475254347840352E+01 
    1.1726750067919115E+01 
    1.3319489649226428E+01 
    1.9448251980546914E+01 
    1.0954190300535378E+01 
    2.0112038282025047E+01 
    1.3699171218114426E+01 
    1.3229934542941768E+01 
    1.9661763294863135E+01 
    1.3866659507672509E+01 
    2.0805910233234943E+01 
    1.6477471876941248E+01 
    1.7947329549566476E+01 
    2.0740253456438179E+01 
    1.0123848167299661E+01 
    1.4114443841404377E+01 
    1.9677364358657560E+01 
    3.6348602716901688E+00 
    1.3961759805517895E+01 
    2.0691747880283444E+01 
    1.3263253283935475E+01 
    1.5279913739132432E+01 
    8.6456839511948615E+00 
    1.9126689056680664E+01 
    2.3468139618799036E+01 
    1.7161209946617049E+01 
    1.3267819278649078E+01 
    1.1783152281568368E+01 
    1.4820357239701888E+01 
    1.3717972762003550E+01 
    9.0127772452201818E+00 
    2.0742415245932428E+01 
    1.9609666449162138E+01 
    1.9116730408956972E+01 
    1.4453128884891123E+01 
    1.2020019659387021E+01 
    1.3538693856330593E+01 
    2.0191647231067314E+01 
    1.2389992789193178E+01 
    1.3856257559232052E+01 
    1.2629674551170458E+01 
    1.6205666790934139E+01 
    2.3454395163294969E+01 
    1.9095810812711015E+01 
    1.1850345813734100E+01 
    1.9966407138589538E+01 
    1.9831678285264779E+01 
    1.9944346630866026E+01 
    2.1324867374890122E+01 
    2.2017948703239817E+01 
    1.9987837811971112E+01 
    1.3821838153370368E+01 
    1.5021201113442880E+01 
    1.9730737434728105E+01 
    2.0460387983687774E+01 
    9.4438446333659272E+00 
    1.9143443740831867E+01 
    2.0123724822622453E+01 
    9.1662586606368155E+00 
    2.1250873224294338E+01 
    2.1188025499674740E+01 
    1.8648109913657116E+01 
    1.4197444371447174E+01 
    3.3902636694699706E+00 
    2.0700687373608332E+01 
    1.4020255636885183E+01 
    2.0892638238728260E+01 
    1.3166599127040095E+01 
    2.0384270382366587E+01 
    1.1697002271350503E+00 
    1.7938016306195262E+01 
    1.3176296064148172E+01 
    1.1961292963104416E+01 
    1.1630366006256889E+01 
    1.3662229757618357E+01 
    1.5074143075288028E+01 
    1.4441134880863091E+01 
    9.3320416329402285E+00 
    2.0470610424777291E+01 
    1.9714801028079858E+01 
    1.6004846873317682E+01 
    1.4080837942360603E+01 
    1.8018292862390297E+00 
    1.0644138691291605E+01 
    7.0921996625608319E+00 
    2.0744137998996127E+01 
    1.5433699195464548E+01 
    1.9612888048804219E+01 
    1.9810360969519689E+01 
    1.2496695601727081E+01 
    1.6136534934794081E+01 
    1.9092597354769190E+01 
    2.1167422501234807E+01 
    8.6395266499654255E+00 
    1.7261632973538386E+01 
    1.4379274113668851E+01 
    7.6046193617921984E+00 
    1.2493507818449975E+01 
    1.6897603380812050E+01 
    1.9754673942677272E+01 
    1.3717465928521783E+01 
    1.9913607987811069E+01 
    1.9573105606176696E+01 
    1.9500766605826389E+01 
    1.3541095158804755E+01 
    1.1831972381751678E+01 
    1.9131804848055971E+01 
    1.2052263380811990E+01 
    1.3805153016500105E+01 
    1.1799573655760689E+01 
    1.3811942621831676E+01 
    1.9824169479726891E+01 
    8.1482784361449934E+00 
    1.2362146490114462E+01 
    2.0615762391439564E+01 
    1.3546925632740853E+01 
    1.5297959759541554E+01 
    8.3597427196647338E+00 
    1.2149342349738880E+01 
    1.9539565361281198E+01 
    1.9992256599875446E+01 
    6.8157421396824027E+00 
    1.3567333236520080E+01 
    1.1853054423188343E+01 
    2.1724891935438407E+01 
    2.1007012863737231E+01 
    2.2058644146133798E+01 
    1.3589518053730004E+01 
    1.9784200863965822E+01 
    1.8997578900309250E+01 
    1.3415072417373858E+01 
    1.9114752291541866E+01 
    1.4081348502952753E+01 
    7.6812546780343247E+00 
    1.4025794750245215E+01 
    2.0608983429808628E+01 
    1.9107770063742183E+01 
    8.8675097962952147E+00 
    1.9157992212756486E+01 
    1.5109788611515201E+01 
    1.3934034039108868E+01 
    1.3356107504659295E+01 
    1.8871825342003767E+01 
    1.4609793834143634E+01 
    1.9138493942322281E+01 
    1.3570487748241705E+01 
    7.9281754431768201E+00 
    1.3895097746937191E+01 
    1.1642695230172498E+01 
    1.7194589508074241E+01 
    2.0869533395324137E+01 
    1.9133642433886664E+01 
    2.0682947039251413E+01 
    1.3473468881290509E+01 
    8.6327559165566985E+00 
    8.7595775951511481E+00 
    1.4177583380093525E+01 
    1.3770202263182801E+01 
    1.8496761181752279E+00 
    1.8253324090839669E+01 
    2.1374620376727826E+01 
    1.3191036822583619E+01 
    8.0779007283734625E+00 
    1.5990301814938059E+01 
    1.9149483921230846E+01 
    9.7614960676634315E+00 
    6.3609785068184470E+00 
    1.3757656757507592E+01 
    1.9280108970473467E+01 
    2.0353651345413848E+01 
    2.0017263089410960E+01 
    1.9995891161934747E+01 
    9.4661729617763637E+00 
    1.3929008500498460E+01 
    1.8579308772967735E+01 
    1.0464081910815660E+01 
    1.9724555039420590E+01 
    1.6444792006700201E+01 
    8.8942029360876855E+00 
    1.9254181420208919E+01 
    2.0792407482430974E+01 
    1.9378710619010242E+01 
    9.3483660980698104E+00 
    1.3826840225993401E+01 
    1.0391961672743600E+01 
    1.2976350862122079E+01 
    1.9140695535759257E+01 
    1.9121436863808526E+01 
    9.4215660215036330E+00 
    2.0445840310222067E+01 
    1.4510459478264861E+01 
    1.9192609815468028E+01 
    2.0516605340240549E+01 
    1.9163794849497108E+01 
    1.7509335871643039E+01 
    2.1808004107462100E+01 
    1.3111446342211870E+01 
    2.0637936278565959E+01 
    1.9218121783790945E+01 
    2.0746025029131758E+01 
    2.0435101919228217E+01 
    1.3252323348213976E+01 
    1.3669385231187530E+01 
    1.3179983591364389E+01 
    1.6755998690364009E+01 
    5.0529135413634982E+00 
    1.4093846561191601E+01 
    2.1961492681870777E+01 
    1.4087520810314125E+01 
    1.4340661197210846E+01 
    2.0707177019188116E+01 
    2.1016453079821719E+01 
    1.2966131636019865E+01 
    1.9163667211911751E+01 
    1.9119868267447217E+01 
    1.4323568348375858E+01 
    2.0363379734346069E+01 
    9.3665799745995137E+00 
    5.9277027511547606E+00 
    1.4708716131204291E+01 
    1.4103062908182704E+01 
    1.9109094002326415E+01 
    8.7590061991358983E+00 
    1.9913005533359172E+01 
    6.0444707759490939E+00 
    1.4027608359096334E+01 
    1.3251043246275239E+01 
    1.3800426922928263E+01 
    2.3511076701945179E+01 
    4.8873027607478443E+00 
    1.3984340508581180E+01 
    1.6830550826751573E+01 
    1.3342497254891803E+01 
    1.0389911769862552E+01 
    2.0175626572841082E+01 
    2.2991756559050899E+01 
    2.0362707671132576E+01 
    1.3902403008369999E+01 
    7.5732237505835132E+00 
    2.2821910363474437E+01 
    1.9696330543220988E+01 
    9.7862257242159938E+00 
    1.3463167630890219E+01 
    2.1301399382312692E+01 
    4.0884348608451573E+00 
    1.4173409928815246E+01 
    2.0427943238171693E+01 
    1.3819396703503017E+01 
    1.1852808696812806E+01 
    1.4037126963607715E+01 
    1.8661345717526370E+01 
    1.3799976989885966E+01 
    6.6586224027231893E+00 
    1.1571992402378921E+00 
    9.8979094806807950E+00 
    2.1609832105351238E+01 
    1.3179035430846735E+01 
    1.5681540318220515E+01 
    1.5015766181826855E+01 
    1.7273566236156107E+01 
    1.3834849266395921E+01 
    1.9557509772727453E+01 
    2.3527157420406891E+01 
    1.6331576598603132E+01 
    2.0597362820656475E+01 
    6.7080264254293176E-01 
    1.9122795989042302E+01 
    7.3805801794282377E+00 
    2.2167343900831124E+01 
    1.4002426982187494E+01 
    1.2130548574256899E+01 
    1.0621257194760547E+01 
    7.0356397768660379E+00 
    1.5343593077376227E+01 
    1.0592171482764032E+01 
    1.7040256686507099E+01 
    2.8418823787477874E+00 
    1.5160802100519255E+01 
    1.8982424002277718E+01 
    7.9355626282990253E+00 
    1.9789729385245149E+01 
    2.1878372825098275E+01 
    1.9613801993494420E+01 
    1.3817750809575459E+01 
    1.3792743941456646E+01 
    1.3992802170348833E+01 
    7.6933471106788573E+00 
    1.2790026864059005E+01 
    1.2561875792950683E+01 
    1.3978167252340180E+01 
    1.3081429751012442E+01 
    8.6185594925938425E-01 
    8.5514098675091805E+00 
    1.3605686587007064E+01 
    1.3943874316619722E+01 
    1.7556482054247979E+01 
    2.6274727787508128E+00 
    1.4268722389935441E+01 
    1.4112566446872396E+01 
    4.6783161408748803E+00 
    1.9404544439515337E+01 
    1.2075704007560773E+01 
    1.3947386501719729E+01 
    1.9690957279517850E+01 
    7.0640345141384966E+00 
    1.9551652304947428E+01 
    1.2254499458422174E+01 
    1.1754606420723916E+00 
    1.3262915207101548E+01 
    2.0514215652850638E+01 
    1.9128069903933433E+01 
    1.9160764935450128E+01 
    1.4448482219115339E+01 
    1.4030944540921157E+01 
    1.2056289933394265E+01 
    9.3578265101552667E+00 
    1.9865772062061506E+01 
    1.3454348416556970E+01 
    9.0365985362882881E+00 
    1.9151241922420553E+01 
    2.0193668483704293E+01 
    1.4208602690432540E+01 
    1.3604054402438544E+01 
    2.3386341561756744E+01 
    1.4324884576065735E+01 
    1.9882634570209522E+01 
    1.1397438280129357E+01 
    2.3557170755122677E+01 
    8.7083168948409728E+00 
    1.2605704335696680E+01 
    9.8373463751807240E+00 
    1.4641542197219241E+01 
    1.1590293391448958E+01 
    2.3539024949367086E+01 
    1.4390588011204832E+01 
    1.8654508184442903E+01 
    8.9580017521575357E+00 
    1.3827547169401486E+01 
    1.9648141515459297E+01 
    1.1605910016753379E+01 
    9.8048556343816227E+00 
    1.5609729663015569E+01 
    1.9870493331344690E+01 
    9.7062211209533107E+00 
    1.3282200180953188E+01 
    1.3651210917342771E+01 
    1.9079991819080604E+01 
    1.3366083731933367E+01 
    1.9941441933580002E+01 
    2.0787204956499274E+01 
    1.2090122114225968E+01 
    1.1832793952412288E+01 
    1.0644022813049572E+01 
    1.9306172012845366E+01 
    1.4138172951827400E+01 
    2.3038018018142910E+01 
    1.7732495433459423E+01 
    1.9583629413144624E+01 
    2.2667945498996652E+01 
    2.1886364499238450E+01 
    1.3881486426692277E+01 
    1.3957568050630604E+01 
    1.8664289752532525E+01 
    1.9186433165315265E+01 
    2.0123562964925142E+01 
    1.9727154939418803E+01 
    2.3415141375065591E+01 
    1.4324222992022948E+01 
    1.2249143152490975E+01 
    1.4291881369241620E+01 
    2.0659604266748445E+01 
    1.3990106816536663E+01 
    7.7447198698557518E+00 
    1.3795678140172001E+01 
    2.1263853187614160E+01 
    1.4160084560658195E+01 
    1.2258678827820207E+01 
    1.3584814754316703E+01 
    2.1409215516009688E+01 
    1.9361259733988110E+01 
    1.1542459887248885E+01 
    2.1585220342396330E+01 
    1.3913847518261230E+01 
    2.0088832793240812E+01 
    2.1423156151525628E+01 
    1.4764043000611485E+01 
    7.0798685895655868E+00 
    1.5368695228821284E+01 
    7.3435382994996834E+00 
    1.4047380433971592E+01 
    1.3825730571298818E+01 
    1.6220317051952218E+01 
    7.8075624440780649E+00 
    1.7292516827153545E+01 
    1.3842672449760315E+01 
    1.9712036567841590E+01 
    1.4947653830293943E+01 
    1.1142203825838857E+01 
    1.3410582256258682E+01 
    1.4652867845920184E+01 
    1.4465907496352495E+01 
    2.0888477751051596E+01 
    1.1653406493023372E+01 
    1.1432968140035042E+01 
    8.2505890778201252E+00 
    2.0153713466088366E+01 
    1.3468087679282249E+01 
    1.9009454669188880E+01 
    1.3789759836832406E+01 
    9.0965784668355045E+00 
    1.9379703986275494E+01 
    1.3764471062841299E+01 
    1.0018479534033169E+01 
    1.0697606553532941E+01 
    1.1125287811409970E+01 
    1.9760120613433791E+01 
    1.3980843240479981E+01 
    2.0612968641839029E+01 
    1.3721475988442567E+01 
    1.3653714285789082E+01 
    1.3172617682782604E+01 
    1.9511150195960052E+01 
    1.3552840148309027E+01 
    1.1190899973444621E+01 
    2.1875927591293202E+01 
    1.9632708089290553E+01 
    9.1302189583934972E+00 
    3.3204061474630526E+00 
    1.3967051242471021E+01 
    1.2980995383131916E+01 
    1.1821984116033816E+01 
    1.2896380574502878E+01 
    1.9449585128170202E+01 
    1.3567399994644916E+01 
    1.2305247876759230E+01 
    1.9223326119443538E+01 
    9.0527671246538883E+00 
    1.8612836669005187E+01 
    1.2428159245092678E+01 
    1.1017754641100577E+01 
    1.1949101280168724E+01 
    2.0207433051983195E+01 
    1.3802989264342372E+01 
    1.3813028033504075E+01 
    7.9435914865741557E+00 
    8.6605214841042084E+00 
    1.7616432725232944E+01 
    1.3824456932790483E+01 
    1.4020030712278853E+01 
    2.1572451720093987E+01 
    1.1432676638670674E+01 
    1.3838575276219846E+01 
    9.3918871978527854E+00 
    9.7448288650008674E+00 
    1.9453950717234601E+01 
    1.3393567807799306E+01 
    9.6450227710122594E+00 
    1.4456447020857699E+01 
    1.3726698251908729E+01 
    1.9477867337379454E+01 
    2.1691472811477976E+01 
    1.2473130071537788E+00 
    1.3973604048595789E+01 
    1.4101645634992048E+01 
    1.9605193089662649E+01 
    1.3356607868224577E+01 
    1.3769997683199847E+01 
    2.0969912577568351E+01 
    1.1997371598380806E+01 
    9.7402657071673744E+00 
    1.6603256095126902E+01 
    1.9149623074383879E+01 
    2.0738976730885817E+01 
    2.1129834966564555E+01 
    1.3761895076959439E+01 
    1.3961864681696316E+01 
    1.5410801496317029E+01 
    8.6608458689480052E+00 
    1.9358434206368560E+01 
    1.0577638318638769E+01 
    9.0316288749130571E+00 
    1.7278618352153519E+01 
    1.6193883506676002E+01 
    8.8520728681431038E+00 
    1.9206303182976207E+01 
    2.0720735286037343E+01 
    1.4345809835335064E+01 
    2.1823321562764264E+01 
    1.9258261761797588E+01 
    1.3423025673037403E+01 
    2.0269960272407165E+01 
    9.7341938310994429E+00 
    1.9175615255468308E+01 
    1.3972027367085708E+01 
    1.3922504806216498E+01 
    2.1799603806079617E+01 
    1.3522790824335543E+01 
    1.6888010509776041E+01 
    1.1919111855419500E+01 
    2.0892025734760804E+01 
    1.9000680682196020E+01 
    1.2463630665393159E+01 
    1.9121420939352987E+01 
    1.2476137373212834E+01 
    1.3776505616903112E+01 
    2.0662088272561306E+01 
    1.9719652537752349E+01 
    2.0724618542729168E+01 
    1.9608514103477699E+01 
    1.2804376508728865E+01 
    1.3085047969385911E+01 
    2.0736483646457287E+01 
    1.3260754497004728E+01 
    1.8839083458396924E+01 
    1.3495788171798573E+01 
    5.1068939560209152E+00 
    9.1514347486700611E+00 
    8.4460806102878720E+00 
    2.0667680215149051E+01 
    2.1703058927715773E+01 
    1.9143195772554517E+01 
    1.5867543562403675E+01 
    1.9578080002721407E+01 
    1.9218576545240850E+01 
    2.0138154508456630E+01 
    7.6343349552283204E+00 
    4.7092651447202787E+00 
    1.5564070256426811E+01 
    1.3558343494669920E+01 
    1.9461493121077339E+01 
    1.9457298154822698E+01 
    1.4124606486942607E+01 
    1.9517008036406708E+01 
    1.3954184218124549E+01 
    1.3850336935519381E+01 
    6.8153109277343678E+00 
    4.6797520876722150E+00 
    2.1402941768722489E+01 
    1.0474879373503134E+01 
    1.2389412177616748E+01 
    1.4003903971222341E+01 
    2.3390988463886423E+01 
    1.4113410946776314E+01 
    1.4360633827870110E+01 
    5.4198131832099552E+00 
    1.4113236284040269E+01 
    1.4130252075760133E+01 
    1.9834363981524923E+01 
    1.1957300899480273E+01 
    1.3213473089600164E+01 
    2.1626082887747916E+01 
    1.3984699379150426E+01 
    1.9166245332826783E+01 
    1.9499399830044332E+01 
    1.6974764646761898E+01 
    1.1559936435784294E+01 
    1.9605347524671675E+01 
    1.3723306521343346E+01 
    1.9412840674730433E+01 
    1.9053693588313301E+01 
    2.0695655001035352E+01 
    1.9610238293803718E+01 
    1.7971051627042716E+01 
    1.3969396777588127E+01 
    8.7866044173965161E+00 
    2.3243822855354040E+01 
    1.0822313607071019E+01 
    2.0615609100030113E+01 
    1.3966025085695016E+01 
    1.1510568444333401E+01 
    6.4158691487636075E+00 
    1.4174699358288823E+01 
    1.9588220795239167E+01 
    1.9569831798828854E+01 
    1.3752743805925647E+01 
    1.3958462515610378E+01 
    2.1883974130788644E+01 
    2.1051520618382927E+01 
    1.4137795763815987E+01 
    4.3555000261172978E+00 
    1.7839051132134699E+01 
    2.3533905249609585E+01 
    1.3973701441738410E+01 
    1.6397788204683668E+01 
    1.3356376753754841E+01 
    2.3072627885660733E+01 
    2.1161238795678869E+01 
    2.0835670506420911E+01 
    1.4165199829316279E+01 
    5.9832760907418079E+00 
    1.3302633688841350E+01 
    1.3386013277813991E+01 
    1.3434924774040795E+01 
    4.8045476475650872E+00 