# vtk DataFile Version 2.0
Pressure Field Data 
ASCII 
DATASET UNSTRUCTURED_GRID 

POINTS 2860 double 

    0.0000000000000000E+00     0.0000000000000000E+00     0.0000000000000000E+00 
    1.0000000000000000E+00     0.0000000000000000E+00     0.0000000000000000E+00 
    1.0000000000000000E+00     1.0000000000000000E+00     0.0000000000000000E+00 
    0.0000000000000000E+00     1.0000000000000000E+00     0.0000000000000000E+00 
    2.5000000000000000E-01     2.5000000000000000E-01     0.0000000000000000E+00 
    7.5000000000000000E-01     2.5000000000000000E-01     0.0000000000000000E+00 
    7.5000000000000000E-01     7.5000000000000000E-01     0.0000000000000000E+00 
    2.5000000000000000E-01     7.5000000000000000E-01     0.0000000000000000E+00 
    3.1249999999942091E-02     0.0000000000000000E+00     0.0000000000000000E+00 
    6.2499999999873469E-02     0.0000000000000000E+00     0.0000000000000000E+00 
    9.3749999999826514E-02     0.0000000000000000E+00     0.0000000000000000E+00 
    1.2499999999977961E-01     0.0000000000000000E+00     0.0000000000000000E+00 
    1.5624999999968961E-01     0.0000000000000000E+00     0.0000000000000000E+00 
    1.8749999999959971E-01     0.0000000000000000E+00     0.0000000000000000E+00 
    2.1874999999950970E-01     0.0000000000000000E+00     0.0000000000000000E+00 
    2.4999999999941969E-01     0.0000000000000000E+00     0.0000000000000000E+00 
    2.8124999999932920E-01     0.0000000000000000E+00     0.0000000000000000E+00 
    3.1249999999923850E-01     0.0000000000000000E+00     0.0000000000000000E+00 
    3.4374999999914790E-01     0.0000000000000000E+00     0.0000000000000000E+00 
    3.7499999999905720E-01     0.0000000000000000E+00     0.0000000000000000E+00 
    4.0624999999896660E-01     0.0000000000000000E+00     0.0000000000000000E+00 
    4.3749999999887590E-01     0.0000000000000000E+00     0.0000000000000000E+00 
    4.6874999999878530E-01     0.0000000000000000E+00     0.0000000000000000E+00 
    4.9999999999869471E-01     0.0000000000000000E+00     0.0000000000000000E+00 
    5.3124999999877620E-01     0.0000000000000000E+00     0.0000000000000000E+00 
    5.6249999999885780E-01     0.0000000000000000E+00     0.0000000000000000E+00 
    5.9374999999893940E-01     0.0000000000000000E+00     0.0000000000000000E+00 
    6.2499999999902101E-01     0.0000000000000000E+00     0.0000000000000000E+00 
    6.5624999999910261E-01     0.0000000000000000E+00     0.0000000000000000E+00 
    6.8749999999918421E-01     0.0000000000000000E+00     0.0000000000000000E+00 
    7.1874999999926570E-01     0.0000000000000000E+00     0.0000000000000000E+00 
    7.4999999999934730E-01     0.0000000000000000E+00     0.0000000000000000E+00 
    7.8124999999942890E-01     0.0000000000000000E+00     0.0000000000000000E+00 
    8.1249999999951039E-01     0.0000000000000000E+00     0.0000000000000000E+00 
    8.4374999999959199E-01     0.0000000000000000E+00     0.0000000000000000E+00 
    8.7499999999967359E-01     0.0000000000000000E+00     0.0000000000000000E+00 
    9.0624999999975520E-01     0.0000000000000000E+00     0.0000000000000000E+00 
    9.3749999999983680E-01     0.0000000000000000E+00     0.0000000000000000E+00 
    9.6874999999991840E-01     0.0000000000000000E+00     0.0000000000000000E+00 
    1.0000000000000000E+00     3.1249999999942091E-02     0.0000000000000000E+00 
    1.0000000000000000E+00     6.2499999999873469E-02     0.0000000000000000E+00 
    1.0000000000000000E+00     9.3749999999826514E-02     0.0000000000000000E+00 
    1.0000000000000000E+00     1.2499999999977961E-01     0.0000000000000000E+00 
    1.0000000000000000E+00     1.5624999999968961E-01     0.0000000000000000E+00 
    1.0000000000000000E+00     1.8749999999959971E-01     0.0000000000000000E+00 
    1.0000000000000000E+00     2.1874999999950970E-01     0.0000000000000000E+00 
    1.0000000000000000E+00     2.4999999999941969E-01     0.0000000000000000E+00 
    1.0000000000000000E+00     2.8124999999932920E-01     0.0000000000000000E+00 
    1.0000000000000000E+00     3.1249999999923850E-01     0.0000000000000000E+00 
    1.0000000000000000E+00     3.4374999999914790E-01     0.0000000000000000E+00 
    1.0000000000000000E+00     3.7499999999905720E-01     0.0000000000000000E+00 
    1.0000000000000000E+00     4.0624999999896660E-01     0.0000000000000000E+00 
    1.0000000000000000E+00     4.3749999999887590E-01     0.0000000000000000E+00 
    1.0000000000000000E+00     4.6874999999878530E-01     0.0000000000000000E+00 
    1.0000000000000000E+00     4.9999999999869471E-01     0.0000000000000000E+00 
    1.0000000000000000E+00     5.3124999999877620E-01     0.0000000000000000E+00 
    1.0000000000000000E+00     5.6249999999885780E-01     0.0000000000000000E+00 
    1.0000000000000000E+00     5.9374999999893940E-01     0.0000000000000000E+00 
    1.0000000000000000E+00     6.2499999999902101E-01     0.0000000000000000E+00 
    1.0000000000000000E+00     6.5624999999910261E-01     0.0000000000000000E+00 
    1.0000000000000000E+00     6.8749999999918421E-01     0.0000000000000000E+00 
    1.0000000000000000E+00     7.1874999999926570E-01     0.0000000000000000E+00 
    1.0000000000000000E+00     7.4999999999934730E-01     0.0000000000000000E+00 
    1.0000000000000000E+00     7.8124999999942890E-01     0.0000000000000000E+00 
    1.0000000000000000E+00     8.1249999999951039E-01     0.0000000000000000E+00 
    1.0000000000000000E+00     8.4374999999959199E-01     0.0000000000000000E+00 
    1.0000000000000000E+00     8.7499999999967359E-01     0.0000000000000000E+00 
    1.0000000000000000E+00     9.0624999999975520E-01     0.0000000000000000E+00 
    1.0000000000000000E+00     9.3749999999983680E-01     0.0000000000000000E+00 
    1.0000000000000000E+00     9.6874999999991840E-01     0.0000000000000000E+00 
    9.6875000000003686E-01     1.0000000000000000E+00     0.0000000000000000E+00 
    9.3750000000011691E-01     1.0000000000000000E+00     0.0000000000000000E+00 
    9.0625000000015765E-01     1.0000000000000000E+00     0.0000000000000000E+00 
    8.7500000000017863E-01     1.0000000000000000E+00     0.0000000000000000E+00 
    8.4375000000028044E-01     1.0000000000000000E+00     0.0000000000000000E+00 
    8.1250000000040856E-01     1.0000000000000000E+00     0.0000000000000000E+00 
    7.8125000000054956E-01     1.0000000000000000E+00     0.0000000000000000E+00 
    7.5000000000066480E-01     1.0000000000000000E+00     0.0000000000000000E+00 
    7.1875000000086831E-01     1.0000000000000000E+00     0.0000000000000000E+00 
    6.8750000000102829E-01     1.0000000000000000E+00     0.0000000000000000E+00 
    6.5625000000114431E-01     1.0000000000000000E+00     0.0000000000000000E+00 
    6.2500000000129829E-01     1.0000000000000000E+00     0.0000000000000000E+00 
    5.9375000000147926E-01     1.0000000000000000E+00     0.0000000000000000E+00 
    5.6250000000168354E-01     1.0000000000000000E+00     0.0000000000000000E+00 
    5.3125000000188671E-01     1.0000000000000000E+00     0.0000000000000000E+00 
    5.0000000000205835E-01     1.0000000000000000E+00     0.0000000000000000E+00 
    4.6875000000192979E-01     1.0000000000000000E+00     0.0000000000000000E+00 
    4.3750000000180111E-01     1.0000000000000000E+00     0.0000000000000000E+00 
    4.0625000000167238E-01     1.0000000000000000E+00     0.0000000000000000E+00 
    3.7500000000154382E-01     1.0000000000000000E+00     0.0000000000000000E+00 
    3.4375000000141509E-01     1.0000000000000000E+00     0.0000000000000000E+00 
    3.1250000000128642E-01     1.0000000000000000E+00     0.0000000000000000E+00 
    2.8125000000115769E-01     1.0000000000000000E+00     0.0000000000000000E+00 
    2.5000000000102918E-01     1.0000000000000000E+00     0.0000000000000000E+00 
    2.1875000000090050E-01     1.0000000000000000E+00     0.0000000000000000E+00 
    1.8750000000077180E-01     1.0000000000000000E+00     0.0000000000000000E+00 
    1.5625000000064329E-01     1.0000000000000000E+00     0.0000000000000000E+00 
    1.2500000000051459E-01     1.0000000000000000E+00     0.0000000000000000E+00 
    9.3750000000385914E-02     1.0000000000000000E+00     0.0000000000000000E+00 
    6.2500000000257239E-02     1.0000000000000000E+00     0.0000000000000000E+00 
    3.1250000000128557E-02     1.0000000000000000E+00     0.0000000000000000E+00 
    0.0000000000000000E+00     9.6875000000003686E-01     0.0000000000000000E+00 
    0.0000000000000000E+00     9.3750000000011691E-01     0.0000000000000000E+00 
    0.0000000000000000E+00     9.0625000000015765E-01     0.0000000000000000E+00 
    0.0000000000000000E+00     8.7500000000017863E-01     0.0000000000000000E+00 
    0.0000000000000000E+00     8.4375000000028044E-01     0.0000000000000000E+00 
    0.0000000000000000E+00     8.1250000000040856E-01     0.0000000000000000E+00 
    0.0000000000000000E+00     7.8125000000054956E-01     0.0000000000000000E+00 
    0.0000000000000000E+00     7.5000000000066480E-01     0.0000000000000000E+00 
    0.0000000000000000E+00     7.1875000000086831E-01     0.0000000000000000E+00 
    0.0000000000000000E+00     6.8750000000102829E-01     0.0000000000000000E+00 
    0.0000000000000000E+00     6.5625000000114431E-01     0.0000000000000000E+00 
    0.0000000000000000E+00     6.2500000000129829E-01     0.0000000000000000E+00 
    0.0000000000000000E+00     5.9375000000147926E-01     0.0000000000000000E+00 
    0.0000000000000000E+00     5.6250000000168354E-01     0.0000000000000000E+00 
    0.0000000000000000E+00     5.3125000000188671E-01     0.0000000000000000E+00 
    0.0000000000000000E+00     5.0000000000205835E-01     0.0000000000000000E+00 
    0.0000000000000000E+00     4.6875000000192979E-01     0.0000000000000000E+00 
    0.0000000000000000E+00     4.3750000000180111E-01     0.0000000000000000E+00 
    0.0000000000000000E+00     4.0625000000167238E-01     0.0000000000000000E+00 
[...]
CELL_DATA 2795 
SCALARS Pressure double 1 
LOOKUP_TABLE default 

    5.3432189458739128E+00 
    1.2254354257637392E+01 
    8.7105102315871683E+00 
    8.3077132074031947E+00 
    6.5864813617437097E+00 
    1.2151829681712647E+01 
    1.2781380005496684E+01 
    4.7665278513080755E+00 
    9.2035021844363420E+00 
    7.0378353851043025E+00 
    6.0047429302563762E+00 
    1.1933940199371898E+01 
    1.2165839235895636E+01 
    1.2125198685411080E+01 
    8.0313179441693681E+00 
    4.6861925162178215E+00 
    7.6353190425292823E+00 
    6.3954552617216391E+00 
    1.1627998702608835E+01 
    8.7079723106898914E+00 
    8.5933172370249391E+00 
    1.2069610151880932E+01 
    8.0763337652330627E+00 
    3.1414210582097263E-01 
    1.1906162819657981E+01 
    1.2146388250365860E+01 
    1.2809668095518363E+01 
    5.7713672509513749E+00 
    1.1866472872517152E+01 
    1.2807909077927537E+01 
    8.7689293441379768E+00 
    8.9423357866620545E+00 
    6.2300464049204622E+00 
    8.6711686196129136E+00 
    2.7641081685337121E+00 
    7.6398856857311683E+00 
    8.6635603247556947E+00 
    1.2844199230477438E+01 
    1.2761892298444609E+01 
    1.1944848806629006E+01 
    6.5242679987234098E+00 
    1.1889524942758149E+01 
    6.5472056325768746E-01 
    8.5231129536818599E+00 
    1.2591618176614341E+01 
    1.2446723305248167E+01 
    1.1924889791394875E+01 
    9.5201207068133940E+00 
    1.1986011719330595E+01 
    7.8158140639264229E+00 
    7.4385622476662023E+00 
    8.9092634418589807E+00 
    8.4219448889698594E+00 
    7.6807895338117129E+00 
    8.8440783339919591E+00 
    1.1450944033393801E+01 
    1.0372882059979958E+01 
    6.6226003069661328E+00 
    1.2073042849353882E+01 
    1.2007802554096074E+01 
    8.3433410146649987E+00 
    8.3624839256469095E+00 
    8.2224698031311032E+00 
    1.2720784084092937E+01 
    1.2941577371868528E+01 
    7.6443341769510074E+00 
    8.9078149186763120E+00 
    1.1849370895507667E+01 
    1.0179414220342577E+01 
    8.4020120339541595E+00 
    1.2953748346598232E+01 
    1.2005601226441582E+01 
    7.5353735246343385E+00 
    1.2533195155053676E+01 
    9.0929294722653236E+00 
    1.1781141775646962E+01 
    1.2853291182530242E+01 
    8.9687361388974765E+00 
    5.4430440266981499E+00 
    8.9249577386031973E+00 
    1.2769105061378299E+01 
    1.2984196667677905E+01 
    7.6531691362713072E+00 
    8.8372320299648717E+00 
    1.3020666754130735E+01 
    8.6697879481582962E+00 
    8.1504650581844178E+00 
    1.0524886851072315E+01 
    5.1892949488399465E+00 
    7.4586135632383943E+00 
    8.8388653700106552E+00 
    9.3236820785681349E+00 
    1.4389537733590689E+01 
    6.3980198990558597E+00 
    8.9151826100064167E+00 
    1.1906315557342799E+01 
    1.2123062865259607E+01 
    5.6234246567701680E+00 
    8.5414621826639330E+00 
    8.8678674562924247E+00 
    1.2141315558840486E+01 
    8.8739674770126129E+00 
    1.2081317712220107E+01 
    3.4169675478325612E+00 
    5.8362710360236312E+00 
    9.1134108511234526E+00 
    1.2262482719675758E+01 
    7.6086402764170469E+00 
    8.1504103537086472E+00 
    8.8585364795994384E+00 
    8.1221764393988458E+00 
    1.0103568997103601E+01 
    7.9142073275815648E+00 
    7.5422371261919574E+00 
    5.9136628166767116E+00 
    1.0254254924090045E+01 
    8.9439157853456877E+00 
    1.2642939333299042E+01 
    7.6460343324769440E+00 
    8.2961820776130679E+00 
    1.1996892429445790E+01 
    6.8988908683060224E+00 
    1.2390475577882693E+01 
    8.7538016652298705E+00 
    8.2301095853939525E+00 
    1.2125231404658326E+01 
    8.9368165684457601E+00 
    1.2859816298476744E+01 
    1.0533860971299834E+01 
    1.1325306808926186E+01 
    1.2824654925168812E+01 
    6.4113668178317802E+00 
    9.1282401409382761E+00 
    1.2129862620995851E+01 
    2.5654508238756546E+00 
    8.8208398629981737E+00 
    1.2794879635357626E+01 
    8.2595376135854810E+00 
    9.5283422590645053E+00 
    5.5701678663214258E+00 
    1.1906004396439418E+01 
    1.4861240126047807E+01 
    1.0925559956021480E+01 
    8.2543427843197517E+00 
    7.3718230124371535E+00 
    9.4709709858449855E+00 
    8.7710403545946853E+00 
    6.0700308906385230E+00 
    1.2820903841670679E+01 
    1.2216411806175318E+01 
    1.1907827800738088E+01 
    9.3416509376237649E+00 
    7.5096963921743898E+00 
    8.5930157326880252E+00 
    1.2557335567097429E+01 
    7.7282433550996954E+00 
    8.6577039847779123E+00 
    7.8712759929227092E+00 
    1.0037483591907446E+01 
    1.4849928818674581E+01 
    1.1900412106983300E+01 
    7.4751694453457844E+00 
    1.2294300134005063E+01 
    1.2225933511396113E+01 
    1.2297201024903469E+01 
    1.3203441277735266E+01 
    1.3706802474511736E+01 
    1.2443156789671335E+01 
    8.9000947162034816E+00 
    9.4162756540351999E+00 
    1.2293245274278291E+01 
    1.2651281279362641E+01 
    6.3373608763156888E+00 
    1.1924459721190980E+01 
    1.2523941591569008E+01 
    6.1704867175762059E+00 
    1.3120738217665663E+01 
    1.3112480593042594E+01 
    1.1687224821390030E+01 
    9.1827010676777441E+00 
    2.2444812656753124E+00 
    1.2795140873197948E+01 
    9.0588309941876517E+00 
    1.2906336036880422E+01 
    8.1996235462183016E+00 
    1.2645884364615220E+01 
    7.9824456218518902E-01 
    1.1341922500197860E+01 
    8.3999867845800029E+00 
    7.4749875462242583E+00 
    7.2817738982135518E+00 
    8.7237879524864308E+00 
    9.7844003479811441E+00 
    8.9929089813050993E+00 
    6.0030532571903681E+00 
    1.2648132064199102E+01 
    1.2152618949172814E+01 
    1.0286202190787833E+01 
    9.1054691588487362E+00 
    1.3147191279064121E+00 
    6.7117813073846584E+00 
    4.6305372551810740E+00 
    1.2818829308628874E+01 
    9.8680204714520645E+00 
    1.2205596807126332E+01 
    1.2210425427188513E+01 
    7.7996744289591176E+00 
    1.0292700339895623E+01 
    1.1903682414674810E+01 
    1.3095619983920768E+01 
    5.5513232857236563E+00 
    1.0733955804240367E+01 
    9.0243472111243843E+00 
    4.9374518019313465E+00 
    7.7901734256291455E+00 
    1.0728689996182855E+01 
    1.2177198939561277E+01 
    8.7829637236892371E+00 
    1.2276418929371411E+01 
    1.2066732033878548E+01 
    1.2022703643689340E+01 
    8.6010517629052519E+00 
    7.4317197357561833E+00 
    1.1914864902651340E+01 
    7.5303804824766285E+00 
    8.8772170377625486E+00 
    7.3798146384503998E+00 
    8.6079280572474293E+00 
    1.2217701505232855E+01 
    5.4851557504893078E+00 
    7.7112961211259652E+00 
    1.2738668333105609E+01 
    8.6171483228898857E+00 
    9.7651320809089039E+00 
    5.6294301651439076E+00 
    7.5860524329384811E+00 
    1.2047326936675006E+01 
    1.2326382015008724E+01 
    4.5788029961615582E+00 
    8.6177088611088379E+00 
    7.4150897336095030E+00 
    1.3486452479079857E+01 
    1.2990771331766100E+01 
    1.3730985512882267E+01 
    8.6399042573525300E+00 
    1.2195093270891398E+01 
    1.1867445875698074E+01 
    8.5192299297340472E+00 
    1.1907973459841662E+01 
    9.1047561613874031E+00 
    5.0025201663634338E+00 
    8.8009011772490222E+00 
    1.2728597365298498E+01 
    1.1905211219428287E+01 
    5.9741525709776830E+00 
    1.1930427331079065E+01 
    9.7812083506302194E+00 
    8.8038989820396765E+00 
    8.3366388279338466E+00 
    1.1791876259830966E+01 
    9.3018033316237947E+00 
    1.1919197154922877E+01 
    8.4740606798860885E+00 
    5.1910548670452226E+00 
    8.9410913314535367E+00 
    7.2900325787936220E+00 
    1.0925975399847628E+01 
    1.2903135151607055E+01 
    1.1914112504804352E+01 
    1.2788742663664264E+01 
    8.5656814324536867E+00 
    5.8149579641636029E+00 
    5.8988127538343003E+00 
    8.9973568290512098E+00 
    8.8550921017553783E+00 
    1.2392551164862204E+00 
    1.1495138758190068E+01 
    1.3225875369665799E+01 
    8.2080345824851406E+00 
    5.2129420583761847E+00 
    9.9922895459766288E+00 
    1.1929148559536612E+01 
    6.1989482000835032E+00 
    4.1937325511706272E+00 
    8.8271866148409881E+00 
    1.2012994971342144E+01 
    1.2562780580153774E+01 
    1.2460411525028858E+01 
    1.2330682476006498E+01 
    6.0444774878269243E+00 
    8.7934414289280394E+00 
    1.1495458403889543E+01 
    6.9136143872201714E+00 
    1.2154459368801767E+01 
    1.0484917623233038E+01 
    5.9900527454402122E+00 
    1.2022526063785671E+01 
    1.2812598126668878E+01 
    1.2010816970818681E+01 
    5.9669461291847750E+00 
    8.9040469128686741E+00 
    6.5637870189543781E+00 
    8.3854240275755245E+00 
    1.1921894359980362E+01 
    1.1911835222440393E+01 
    6.0021719098304827E+00 
    1.2681359418498586E+01 
    9.3831934335638429E+00 
    1.1948661127121241E+01 
    1.2655873069715518E+01 
    1.1933179074499755E+01 
    1.1133868116488593E+01 
    1.3534253259253902E+01 
    8.1800194990428263E+00 
    1.2761909016507728E+01 
    1.1971641129199710E+01 
    1.2826376295210995E+01 
    1.2675505309782062E+01 
    8.2685685600650345E+00 
    8.7054906211879057E+00 
    8.1987583664525214E+00 
    1.0719273957588173E+01 
    3.4264481570165048E+00 
    8.9288924497333113E+00 
    1.3653933493124539E+01 
    9.1098706973881587E+00 
    9.2750098201688012E+00 
    1.2801979420499340E+01 
    1.3014219106604180E+01 
    8.1515062037719801E+00 
    1.1934097327645979E+01 
    1.1908890551589968E+01 
    9.2642016231514308E+00 
    1.2635786744068417E+01 
    6.2953080312541356E+00 
    3.9783412233442221E+00 
    9.5132789058326708E+00 
    9.1221311428854435E+00 
    1.1913624721060321E+01 
    5.6079878033813646E+00 
    1.2387655800853528E+01 
    4.0503679812068398E+00 
    9.0641324373567400E+00 
    8.3407276445395162E+00 
    8.8816023895338532E+00 
    1.4900467952687249E+01 
    3.3319002298927543E+00 
    8.8398056032437218E+00 
    1.0428562451505567E+01 
    8.4785162675224619E+00 
    6.6140988537310017E+00 
    1.2493001337959369E+01 
    1.4472922758780578E+01 
    1.2619280422388636E+01 
    8.7823001160306031E+00 
    4.9120799577936420E+00 
    1.4334690790284320E+01 
    1.2141191562896420E+01 
    6.3464099736210571E+00 
    8.3808056690015338E+00 
    1.3188973705732511E+01 
    2.8330819371559697E+00 
    9.1669518250575628E+00 
    1.2588111748578170E+01 
    8.8946285276456383E+00 
    7.7234555605725683E+00 
    8.8841152823477483E+00 
    1.1678801050204775E+01 
    8.8750216486805620E+00 
    4.3765129955449833E+00 
    7.6822703430203187E-01 
    6.5961634477017368E+00 
    1.3385259050960597E+01 
    8.1981001927833574E+00 
    1.0031747588988242E+01 
    9.6109546799218819E+00 
    1.0951238005911549E+01 
    8.9077371109589176E+00 
    1.2060157395309583E+01 
    1.4914369344673467E+01 
    1.0444361601438752E+01 
    1.2737681435293526E+01 
    4.6595951236115263E-01 
    1.1913503825641039E+01 
    4.8480221735112892E+00 
    1.3814288450894436E+01 
    8.8539662447558403E+00 
    7.8289559309723042E+00 
    6.6966296300126444E+00 
    4.5915818351667470E+00 
    9.8904604639924933E+00 
    6.9812085754007907E+00 
    1.0835197684940985E+01 
    1.8727918300149873E+00 
    9.8061748920883751E+00 
    1.1856216095983676E+01 
    5.3463357953948130E+00 
    1.2332340544857102E+01 
    1.3630505851625006E+01 
    1.2201842423368507E+01 
    8.7242530101609788E+00 
    8.8766426475960589E+00 
    8.8466072735658177E+00 
    4.9802012766011172E+00 
    7.9659955990542128E+00 
    7.8299972896030736E+00 
    8.8350790414767033E+00 
    8.1400354571506703E+00 
    5.8687047661947733E-01 
    5.5603263073541935E+00 
    8.4812897571667527E+00 
    8.8108865436290138E+00 
    1.1127909373720893E+01 
    1.8672538284717346E+00 
    9.2287062105802828E+00 
    9.1270315983244661E+00 
    3.2028022764685300E+00 
    1.2090382713757684E+01 
    7.5485266820183767E+00 
    9.0011047445536150E+00 
    1.2136501681870309E+01 
    4.6109921538006668E+00 
    1.2188023301317507E+01 
    7.6482633569323406E+00 
    8.6065305665023728E-01 
    8.2532305583031071E+00 
    1.2694203588693055E+01 
    1.1913686170512818E+01 
    1.1931237656714444E+01 
    9.2137549517405137E+00 
    9.0673671837643877E+00 
    7.5299571650303658E+00 
    6.0377006881569724E+00 
    1.2232193842728776E+01 
    8.3798183710000060E+00 
    5.9004055737895644E+00 
    1.1926085498113119E+01 
    1.2523455582755723E+01 
    9.0141457684361423E+00 
    8.6658957733271347E+00 
    1.4798331183284331E+01 
    9.2648849548503858E+00 
    1.2251506053663450E+01 
    7.1476647274095422E+00 
    1.4942829761412030E+01 
    5.8639823001169802E+00 
    7.9179541534010323E+00 
    6.5784059635527132E+00 
    9.4655730817071113E+00 
    7.5291358953628800E+00 
    1.4926674636710395E+01 
    9.3067109639366841E+00 
    1.1627618069400684E+01 
    6.0344007747495789E+00 
    8.9043790873733446E+00 
    1.2111871096976666E+01 
    7.5521626074289117E+00 
    6.2771921346315764E+00 
    9.6994912125743404E+00 
    1.2324642390353942E+01 
    6.4726086771384717E+00 
    8.3580609078204251E+00 
    8.6896202546795251E+00 
    1.1892459996073889E+01 
    8.5002782976886220E+00 
    1.2295939935306288E+01 
    1.2852637509971746E+01 
    7.5532915543871066E+00 
    7.3986785581637529E+00 
    7.0185759587087615E+00 
    1.2013318573065394E+01 
    9.1220039484879294E+00 
    1.4511235888227469E+01 
    1.1337088502029259E+01 
    1.2074573839346311E+01 
    1.4214161831536869E+01 
    1.3638400685627410E+01 
    8.9489546455987981E+00 
    8.8202849013488773E+00 
    1.1714991571930977E+01 
    1.1945869014390489E+01 
    1.2386317291596326E+01 
    1.2158745132265741E+01 
    1.4816619466001065E+01 
    9.2644937199872608E+00 
    7.6422296444254263E+00 
    9.2304652568597767E+00 
    1.2774629536832917E+01 
    9.0364335458536402E+00 
    5.2153810514121490E+00 
    8.7088615116632937E+00 
    1.3156921441185446E+01 
    9.1586887862439728E+00 
    7.6511450429942176E+00 
    8.6284818408977273E+00 
    1.3259491599958347E+01 
    1.1939460477775562E+01 
    7.2528380378512862E+00 
    1.3386254209840496E+01 
    8.9756476331903663E+00 
    1.2388185992189962E+01 
    1.3271617223436733E+01 
    9.3073925636918080E+00 
    4.6130307453961068E+00 
    9.6685938026222029E+00 
    4.7737471240776896E+00 
    9.0808864161052565E+00 
    8.8949965998628091E+00 
    1.0171595906209005E+01 
    5.0485796005317995E+00 
    1.0794858841091544E+01 
    8.9160927949363327E+00 
    1.2150380282793078E+01 
    9.2785289901027994E+00 
    7.0795116148165897E+00 
    8.5141279483974284E+00 
    9.3438621888125173E+00 
    9.3570917214096418E+00 
    1.2892732128762487E+01 
    7.2941264649756556E+00 
    7.1667514444612399E+00 
    5.3136740422950064E+00 
    1.2409602900214695E+01 
    8.5497562463538053E+00 
    1.1758099245309834E+01 
    8.8658832343168008E+00 
    5.8211579754822882E+00 
    1.1963147203982000E+01 
    8.8396985237861241E+00 
    6.3596526937791893E+00 
    6.7472397766329282E+00 
    6.9922018024439208E+00 
    1.2176363303323656E+01 
    8.8370714887963722E+00 
    1.2747248621307968E+01 
    8.7957973976818966E+00 
    8.7308892555836781E+00 
    8.2786409402722754E+00 
    1.2035272061629248E+01 
    8.6438577366938159E+00 
    7.0289027442637506E+00 
    1.3626292611071714E+01 
    1.2105282933360693E+01 
    6.1486337588521067E+00 
    2.3546951644773610E+00 
    8.8260230479850250E+00 
    8.2795178721500058E+00 
    7.3927039984741727E+00 
    8.0961839596182639E+00 
    1.2088165026564671E+01 
    8.5472470242167535E+00 
    7.6970692379220820E+00 
    1.1964535690537691E+01 
    6.0915225883676838E+00 
    1.1680573698761547E+01 
    7.9937641233999397E+00 
    6.9675930222982299E+00 
    7.4652619551794404E+00 
    1.2464497258365666E+01 
    8.8845549254418525E+00 
    8.8924661268730283E+00 
    5.1260891164240219E+00 
    5.5491436046121967E+00 
    1.1080294430104994E+01 
    8.9020589870522961E+00 
    8.8713029775231131E+00 
    1.3371820740275828E+01 
    7.1690345189858604E+00 
    8.9137096303007848E+00 
    6.3011799132921311E+00 
    6.4981865395095797E+00 
    1.2026967531103395E+01 
    8.5313290733055815E+00 
    6.1293550640712908E+00 
    9.3423088816655877E+00 
    8.7707199072580018E+00 
    1.2030591397325502E+01 
    1.3458972367543044E+01 
    9.0747758547446400E-01 
    8.8309934001533623E+00 
    9.1208094104315283E+00 
    1.2088193781628075E+01 
    8.3222267007339958E+00 
    8.8590187282789437E+00 
    1.2938207850978237E+01 
    7.4967503673966203E+00 
    6.1849570526867588E+00 
    1.0715573373367709E+01 
    1.1925377878933926E+01 
    1.2825808739061159E+01 
    1.3074971868562026E+01 
    8.6768136522361079E+00 
    8.8230856344287965E+00 
    9.9507714265039198E+00 
    5.8377314204778825E+00 
    1.2034976118770942E+01 
    6.6735907892734083E+00 
    6.0836463127209655E+00 
    1.1068562402785208E+01 
    1.0418183573836282E+01 
    5.9645712834065820E+00 
    1.1956046862351707E+01 
    1.2812772511864663E+01 
    9.2782641533271253E+00 
    1.3554001856028682E+01 
    1.1983930343092853E+01 
    8.4052288145191412E+00 
    1.2577016884611933E+01 
    6.5055687262215995E+00 
    1.1941077040026991E+01 
    8.8301033582867738E+00 
    8.7894100776781876E+00 
    1.3529291356870987E+01 
    8.5790033848906102E+00 
    1.0814366780376707E+01 
    7.4514295721123371E+00 
    1.2919880265441842E+01 
    1.1861320080927662E+01 
    7.7819970887709955E+00 
    1.1905373101331934E+01 
    8.0133113496103014E+00 
    8.8681383301572883E+00 
    1.2776568256665783E+01 
    1.2151329722217543E+01 
    1.2815789867827634E+01 
    1.2090827836667371E+01 
    7.9715910273929813E+00 
    8.1811707753766321E+00 
    1.2821728493372515E+01 
    8.2958694919623319E+00 
    1.1804157083755790E+01 
    8.5714400586049955E+00 
    3.4567599773894035E+00 
    6.1470364025908220E+00 
    5.6872120013416936E+00 
    1.2779570635035180E+01 
    1.3464246949295086E+01 
    1.1920860260644595E+01 
    1.0291854618543143E+01 
    1.2166686386650930E+01 
    1.1962378779807576E+01 
    1.2471456017284911E+01 
    4.9478721173403342E+00 
    3.2237387324364084E+00 
    1.0099760108803403E+01 
    8.4718742794352249E+00 
    1.2089602044540346E+01 
    1.2087421879572593E+01 
    9.1359360754006467E+00 
    1.2119538036154935E+01 
    8.8175870351583914E+00 
    8.6939588208441023E+00 
    4.4643196914232046E+00 
    3.2104400424242141E+00 
    1.3256991901376313E+01 
    6.9062952261582211E+00 
    7.7283110168923494E+00 
    9.0457777056269837E+00 
    1.4799166526326548E+01 
    9.1290339585289235E+00 
    9.0598408996021771E+00 
    3.6526093044944603E+00 
    9.1295493471369920E+00 
    9.1414856793431660E+00 
    1.2359982067374851E+01 
    7.4687295592794998E+00 
    8.4475206563299565E+00 
    1.3412815931353654E+01 
    8.8403695705408492E+00 
    1.1934334546970586E+01 
    1.2152684248414623E+01 
    1.0944546830390395E+01 
    7.4968489916953933E+00 
    1.2090084067351837E+01 
    8.6275539260307514E+00 
    1.2101739732588410E+01 
    1.1880700729431020E+01 
    1.2796769949443794E+01 
    1.2089782822777506E+01 
    1.1381233538961025E+01 
    8.8283242902344998E+00 
    5.9174072110834386E+00 
    1.4675733634528120E+01 
    6.8111549434954979E+00 
    1.2737108874378251E+01 
    8.8256636367029966E+00 
    7.2043026571932778E+00 
    4.3271799842779384E+00 
    9.1716349341841994E+00 
    1.2078979765176628E+01 
    1.2074695470895049E+01 
    8.8494829181433268E+00 
    8.8196931302393633E+00 
    1.3607415084685567E+01 
    1.3022211728478680E+01 
    9.1457553100970141E+00 
    3.0007524175812530E+00 
    1.1354946150115543E+01 
    1.4924908267642044E+01 
    8.8317649935415226E+00 
    1.0609978938807494E+01 
    8.3173525609216803E+00 
    1.4538138488147826E+01 
    1.3093999254604057E+01 
    1.2847317767163799E+01 
    9.1655257860431760E+00 
    4.0308879544457037E+00 
    8.2777081914699941E+00 
    8.3434849722685627E+00 
    8.3920013974780368E+00 
    3.2635313670549593E+00 