# vtk DataFile Version 2.0
Pressure Field Data 
ASCII 
DATASET UNSTRUCTURED_GRID 

POINTS 2860 double 

    0.0000000000000000E+00     0.0000000000000000E+00     0.0000000000000000E+00 
    1.0000000000000000E+00     0.0000000000000000E+00     0.0000000000000000E+00 
    1.0000000000000000E+00     1.0000000000000000E+00     0.0000000000000000E+00 
    0.0000000000000000E+00     1.0000000000000000E+00     0.0000000000000000E+00 
    2.5000000000000000E-01     2.5000000000000000E-01     0.0000000000000000E+00 
    7.5000000000000000E-01     2.5000000000000000E-01     0.0000000000000000E+00 
    7.5000000000000000E-01     7.5000000000000000E-01     0.0000000000000000E+00 
    2.5000000000000000E-01     7.5000000000000000E-01     0.0000000000000000E+00 
    3.1249999999942091E-02     0.0000000000000000E+00     0.0000000000000000E+00 
    6.2499999999873469E-02     0.0000000000000000E+00     0.0000000000000000E+00 
    9.3749999999826514E-02     0.0000000000000000E+00     0.0000000000000000E+00 
    1.2499999999977961E-01     0.0000000000000000E+00     0.0000000000000000E+00 
    1.5624999999968961E-01     0.0000000000000000E+00     0.0000000000000000E+00 
    1.8749999999959971E-01     0.0000000000000000E+00     0.0000000000000000E+00 
    2.1874999999950970E-01     0.0000000000000000E+00     0.0000000000000000E+00 
    2.4999999999941969E-01     0.0000000000000000E+00     0.0000000000000000E+00 
    2.8124999999932920E-01     0.0000000000000000E+00     0.0000000000000000E+00 
    3.1249999999923850E-01     0.0000000000000000E+00     0.0000000000000000E+00 
    3.4374999999914790E-01     0.0000000000000000E+00     0.0000000000000000E+00 
    3.7499999999905720E-01     0.0000000000000000E+00     0.0000000000000000E+00 
    4.0624999999896660E-01     0.0000000000000000E+00     0.0000000000000000E+00 
    4.3749999999887590E-01     0.0000000000000000E+00     0.0000000000000000E+00 
    4.6874999999878530E-01     0.0000000000000000E+00     0.0000000000000000E+00 
    4.9999999999869471E-01     0.0000000000000000E+00     0.0000000000000000E+00 
    5.3124999999877620E-01     0.0000000000000000E+00     0.0000000000000000E+00 
    5.6249999999885780E-01     0.0000000000000000E+00     0.0000000000000000E+00 
    5.9374999999893940E-01     0.0000000000000000E+00     0.0000000000000000E+00 
    6.2499999999902101E-01     0.0000000000000000E+00     0.0000000000000000E+00 
    6.5624999999910261E-01     0.0000000000000000E+00     0.0000000000000000E+00 
    6.8749999999918421E-01     0.0000000000000000E+00     0.0000000000000000E+00 
    7.1874999999926570E-01     0.0000000000000000E+00     0.0000000000000000E+00 
    7.4999999999934730E-01     0.0000000000000000E+00     0.0000000000000000E+00 
    7.8124999999942890E-01     0.0000000000000000E+00     0.0000000000000000E+00 
    8.1249999999951039E-01     0.0000000000000000E+00     0.0000000000000000E+00 
    8.4374999999959199E-01     0.0000000000000000E+00     0.0000000000000000E+00 
    8.7499999999967359E-01     0.0000000000000000E+00     0.0000000000000000E+00 
    9.0624999999975520E-01     0.0000000000000000E+00     0.0000000000000000E+00 
    9.3749999999983680E-01     0.0000000000000000E+00     0.0000000000000000E+00 
    9.6874999999991840E-01     0.0000000000000000E+00     0.0000000000000000E+00 
    1.0000000000000000E+00     3.1249999999942091E-02     0.0000000000000000E+00 
    1.0000000000000000E+00     6.2499999999873469E-02     0.0000000000000000E+00 
    1.0000000000000000E+00     9.3749999999826514E-02     0.0000000000000000E+00 
    1.0000000000000000E+00     1.2499999999977961E-01     0.0000000000000000E+00 
    1.0000000000000000E+00     1.5624999999968961E-01     0.0000000000000000E+00 
    1.0000000000000000E+00     1.8749999999959971E-01     0.0000000000000000E+00 
    1.0000000000000000E+00     2.1874999999950970E-01     0.0000000000000000E+00 
    1.0000000000000000E+00     2.4999999999941969E-01     0.0000000000000000E+00 
    1.0000000000000000E+00     2.8124999999932920E-01     0.0000000000000000E+00 
    1.0000000000000000E+00     3.1249999999923850E-01     0.0000000000000000E+00 
    1.0000000000000000E+00     3.4374999999914790E-01     0.0000000000000000E+00 
    1.0000000000000000E+00     3.7499999999905720E-01     0.0000000000000000E+00 
    1.0000000000000000E+00     4.0624999999896660E-01     0.0000000000000000E+00 
    1.0000000000000000E+00     4.3749999999887590E-01     0.0000000000000000E+00 
    1.0000000000000000E+00     4.6874999999878530E-01     0.0000000000000000E+00 
    1.0000000000000000E+00     4.9999999999869471E-01     0.0000000000000000E+00 
    1.0000000000000000E+00     5.3124999999877620E-01     0.0000000000000000E+00 
    1.0000000000000000E+00     5.6249999999885780E-01     0.0000000000000000E+00 
    1.0000000000000000E+00     5.9374999999893940E-01     0.0000000000000000E+00 
    1.0000000000000000E+00     6.2499999999902101E-01     0.0000000000000000E+00 
    1.0000000000000000E+00     6.5624999999910261E-01     0.0000000000000000E+00 
    1.0000000000000000E+00     6.8749999999918421E-01     0.0000000000000000E+00 
    1.0000000000000000E+00     7.1874999999926570E-01     0.0000000000000000E+00 
    1.0000000000000000E+00     7.4999999999934730E-01     0.0000000000000000E+00 
    1.0000000000000000E+00     7.8124999999942890E-01     0.0000000000000000E+00 
    1.0000000000000000E+00     8.1249999999951039E-01     0.0000000000000000E+00 
    1.0000000000000000E+00     8.4374999999959199E-01     0.0000000000000000E+00 
    1.0000000000000000E+00     8.7499999999967359E-01     0.0000000000000000E+00 
    1.0000000000000000E+00     9.0624999999975520E-01     0.0000000000000000E+00 
    1.0000000000000000E+00     9.3749999999983680E-01     0.0000000000000000E+00 
    1.0000000000000000E+00     9.6874999999991840E-01     0.0000000000000000E+00 
    9.6875000000003686E-01     1.0000000000000000E+00     0.0000000000000000E+00 
    9.3750000000011691E-01     1.0000000000000000E+00     0.0000000000000000E+00 
    9.0625000000015765E-01     1.0000000000000000E+00     0.0000000000000000E+00 
    8.7500000000017863E-01     1.0000000000000000E+00     0.0000000000000000E+00 
    8.4375000000028044E-01     1.0000000000000000E+00     0.0000000000000000E+00 
    8.1250000000040856E-01     1.0000000000000000E+00     0.0000000000000000E+00 
    7.8125000000054956E-01     1.0000000000000000E+00     0.0000000000000000E+00 
    7.5000000000066480E-01     1.0000000000000000E+00     0.0000000000000000E+00 
    7.1875000000086831E-01     1.0000000000000000E+00     0.0000000000000000E+00 
    6.8750000000102829E-01     1.0000000000000000E+00     0.0000000000000000E+00 
    6.5625000000114431E-01     1.0000000000000000E+00     0.0000000000000000E+00 
    6.2500000000129829E-01     1.0000000000000000E+00     0.0000000000000000E+00 
    5.9375000000147926E-01     1.0000000000000000E+00     0.0000000000000000E+00 
    5.6250000000168354E-01     1.0000000000000000E+00     0.0000000000000000E+00 
    5.3125000000188671E-01     1.0000000000000000E+00     0.0000000000000000E+00 
    5.0000000000205835E-01     1.0000000000000000E+00     0.0000000000000000E+00 
    4.6875000000192979E-01     1.0000000000000000E+00     0.0000000000000000E+00 
    4.3750000000180111E-01     1.0000000000000000E+00     0.0000000000000000E+00 
    4.0625000000167238E-01     1.0000000000000000E+00     0.0000000000000000E+00 
    3.7500000000154382E-01     1.0000000000000000E+00     0.0000000000000000E+00 
    3.4375000000141509E-01     1.0000000000000000E+00     0.0000000000000000E+00 
    3.1250000000128642E-01     1.0000000000000000E+00     0.0000000000000000E+00 
    2.8125000000115769E-01     1.0000000000000000E+00     0.0000000000000000E+00 
    2.5000000000102918E-01     1.0000000000000000E+00     0.0000000000000000E+00 
    2.1875000000090050E-01     1.0000000000000000E+00     0.0000000000000000E+00 
    1.8750000000077180E-01     1.0000000000000000E+00     0.0000000000000000E+00 
    1.5625000000064329E-01     1.0000000000000000E+00     0.0000000000000000E+00 
    1.2500000000051459E-01     1.0000000000000000E+00     0.0000000000000000E+00 
    9.3750000000385914E-02     1.0000000000000000E+00     0.0000000000000000E+00 
    6.2500000000257239E-02     1.0000000000000000E+00     0.0000000000000000E+00 
    3.1250000000128557E-02     1.0000000000000000E+00     0.0000000000000000E+00 
    0.0000000000000000E+00     9.6875000000003686E-01     0.0000000000000000E+00 
    0.0000000000000000E+00     9.3750000000011691E-01     0.0000000000000000E+00 
    0.0000000000000000E+00     9.0625000000015765E-01     0.0000000000000000E+00 
    0.0000000000000000E+00     8.7500000000017863E-01     0.0000000000000000E+00 
    0.0000000000000000E+00     8.4375000000028044E-01     0.0000000000000000E+00 
    0.0000000000000000E+00     8.1250000000040856E-01     0.0000000000000000E+00 
    0.0000000000000000E+00     7.8125000000054956E-01     0.0000000000000000E+00 
    0.0000000000000000E+00     7.5000000000066480E-01     0.0000000000000000E+00 
    0.0000000000000000E+00     7.1875000000086831E-01     0.0000000000000000E+00 
    0.0000000000000000E+00     6.8750000000102829E-01     0.0000000000000000E+00 
    0.0000000000000000E+00     6.5625000000114431E-01     0.0000000000000000E+00 
    0.0000000000000000E+00     6.2500000000129829E-01     0.0000000000000000E+00 
    0.0000000000000000E+00     5.9375000000147926E-01     0.0000000000000000E+00 
    0.0000000000000000E+00     5.6250000000168354E-01     0.0000000000000000E+00 
    0.0000000000000000E+00     5.3125000000188671E-01     0.0000000000000000E+00 
    0.0000000000000000E+00     5.0000000000205835E-01     0.0000000000000000E+00 
    0.0000000000000000E+00     4.6875000000192979E-01     0.0000000000000000E+00 
    0.0000000000000000E+00     4.3750000000180111E-01     0.0000000000000000E+00 
    0.0000000000000000E+00     4.0625000000167238E-01     0.0000000000000000E+00 
[...]
CELL_DATA 2795 
SCALARS Pressure double 1 
LOOKUP_TABLE default 

    6.0913899935998383E+00 
    1.3975762767695386E+01 
    9.8463291986210724E+00 
    9.4525304073341623E+00 
    7.4997339196603710E+00 
    1.3849794908605125E+01 
    1.4559342345059262E+01 
    5.4364407970702695E+00 
    1.0410873179499676E+01 
    7.9572666156312399E+00 
    6.7849700017630390E+00 
    1.3599592385160781E+01 
    1.3884679650045248E+01 
    1.3819587191131019E+01 
    9.0872897705413553E+00 
    5.3457098820369309E+00 
    8.6872431246708839E+00 
    7.2263141566424656E+00 
    1.3245815225097202E+01 
    9.8357001959052379E+00 
    9.7301422207909862E+00 
    1.3756013015416116E+01 
    9.1908525507685184E+00 
    3.5734660518390660E-01 
    1.3594766164093134E+01 
    1.3855803494967592E+01 
    1.4589945499479690E+01 
    6.5221396908860072E+00 
    1.3521920632516633E+01 
    1.4584550246818965E+01 
    9.8913838570679271E+00 
    1.0055624910814240E+01 
    7.0490561662646334E+00 
    9.8086735712757847E+00 
    3.1510488484497237E+00 
    8.6927488914403135E+00 
    9.7978954645973868E+00 
    1.4623596126653203E+01 
    1.4536979837867033E+01 
    1.3612177296801461E+01 
    7.4361313373622853E+00 
    1.3569061812773864E+01 
    7.4381047665525224E-01 
    9.6966419424726578E+00 
    1.4354562420141466E+01 
    1.4190954317830533E+01 
    1.3589131632916745E+01 
    1.0756517124313687E+01 
    1.3659026723750932E+01 
    8.8896424328090671E+00 
    8.4653308360260624E+00 
    1.0020624653583544E+01 
    9.5864554940304938E+00 
    8.7378576700111825E+00 
    9.9595833015493547E+00 
    1.3041123659222713E+01 
    1.1737293992861611E+01 
    7.5405817405282622E+00 
    1.3760087540368882E+01 
    1.3684883450957161E+01 
    9.4453558936153748E+00 
    9.4697316902755713E+00 
    9.3567510401108596E+00 
    1.4488843562169244E+01 
    1.4736066238332780E+01 
    8.6971974701877013E+00 
    1.0019828517403319E+01 
    1.3495392078236730E+01 
    1.1542456814629039E+01 
    9.5128125895084032E+00 
    1.4745942562212489E+01 
    1.3702692112265014E+01 
    8.5749824303601319E+00 
    1.4289318365286931E+01 
    1.0189323833708338E+01 
    1.3449959568193522E+01 
    1.4633791821980266E+01 
    1.0219253868077171E+01 
    6.2272525922171074E+00 
    1.0039087090938624E+01 
    1.4545687334597035E+01 
    1.4775638448592833E+01 
    8.7106814339568359E+00 
    9.9543917818436736E+00 
    1.4818759197053319E+01 
    9.8005950490698162E+00 
    9.2751036127333446E+00 
    1.1950681901010830E+01 
    5.9326058591425879E+00 
    8.4878540346025382E+00 
    9.9539228223069038E+00 
    1.0560946166099647E+01 
    1.6268320474801705E+01 
    7.2867509035654825E+00 
    1.0028309413358629E+01 
    1.3567505818596372E+01 
    1.3837163970479418E+01 
    6.4100299630362789E+00 
    9.6723906617010176E+00 
    9.9841159054624367E+00 
    1.3857122223574443E+01 
    9.9848733429018548E+00 
    1.3790490309628177E+01 
    3.8916972119067830E+00 
    6.5963573520227614E+00 
    1.0265679286903564E+01 
    1.3983901736917252E+01 
    8.6582534144405905E+00 
    9.2297277361827277E+00 
    9.9691838841990101E+00 
    9.2422655550354325E+00 
    1.1333279115583467E+01 
    8.9749027494908518E+00 
    8.5828317403205432E+00 
    6.7589730505446637E+00 
    1.1699015017298398E+01 
    1.0056111587834328E+01 
    1.4402577452576757E+01 
    8.6358551395770018E+00 
    9.4348013958166081E+00 
    1.3691164291881320E+01 
    7.8560453455156942E+00 
    1.4129523076185947E+01 
    9.8775030175206275E+00 
    9.3651772903051764E+00 
    1.3839153766923847E+01 
    1.0052450720757189E+01 
    1.4644252421646685E+01 
    1.1962647209162398E+01 
    1.2892492263914695E+01 
    1.4606351261735853E+01 
    7.3016108889092184E+00 
    1.0289535100694033E+01 
    1.3840146023652306E+01 
    2.9165868451603951E+00 
    9.9384700303265987E+00 
    1.4573480420687609E+01 
    9.3939132202194084E+00 
    1.0865829618635377E+01 
    6.3701009758042426E+00 
    1.3565673540564944E+01 
    1.6757036732609606E+01 
    1.2422572040058249E+01 
    9.3925486341562188E+00 
    8.3896597424643478E+00 
    1.0609910969196052E+01 
    9.8944250437073222E+00 
    6.8569727113770842E+00 
    1.4602253941467987E+01 
    1.3924787078709738E+01 
    1.3569150244611855E+01 
    1.0560001963247988E+01 
    8.5454908573859587E+00 
    9.7286670013699350E+00 
    1.4316402874173509E+01 
    8.7945419808468372E+00 
    9.8565396095469158E+00 
    8.9572051544012048E+00 
    1.1443455702984570E+01 
    1.6745289182241141E+01 
    1.3560944018378326E+01 
    8.5032199777621038E+00 
    1.4027937846502443E+01 
    1.3943878684351505E+01 
    1.4022396257140175E+01 
    1.5014696144047186E+01 
    1.5551355341257153E+01 
    1.4189150190888306E+01 
    1.0011352271157376E+01 
    1.0736766764578919E+01 
    1.4018532486453635E+01 
    1.4414032710947030E+01 
    7.1582851586198641E+00 
    1.3588782400626291E+01 
    1.4279082366603435E+01 
    6.9695110644000371E+00 
    1.4932845177977393E+01 
    1.4915642336484508E+01 
    1.3314046566666903E+01 
    1.0355918091474203E+01 
    2.5655537884320307E+00 
    1.4574136831484644E+01 
    1.0202325418240331E+01 
    1.4693077581991858E+01 
    9.3255980663124749E+00 
    1.4413296420562665E+01 
    9.1204695782404877E-01 
    1.2910271356158356E+01 
    9.5138657488693799E+00 
    8.5062186131342443E+00 
    8.2874803151271834E+00 
    9.8473925848777615E+00 
    1.0992606971816143E+01 
    1.0247027009223672E+01 
    6.8638951058674680E+00 
    1.4409011300694118E+01 
    1.3863958971041265E+01 
    1.1666757482393692E+01 
    1.0259994539798015E+01 
    1.4899689690692670E+00 
    7.6413628801053175E+00 
    5.2851398448151716E+00 
    1.4595257313632516E+01 
    1.1134584061407311E+01 
    1.3915963906829395E+01 
    1.3928881121148180E+01 
    8.8713114231740331E+00 
    1.1698137263317284E+01 
    1.3564861752501397E+01 
    1.4897958279860639E+01 
    6.3412506522165994E+00 
    1.2251316356226225E+01 
    1.0276734617658157E+01 
    5.6406951550959707E+00 
    8.8646152516126282E+00 
    1.2236801038228293E+01 
    1.3891502965556780E+01 
    9.9018053199989637E+00 
    1.4000350061965428E+01 
    1.3769571349626668E+01 
    1.3719678563278171E+01 
    9.7350166752495735E+00 
    8.4452731644069647E+00 
    1.3576845401551250E+01 
    8.5689395246446569E+00 
    9.9895696269281018E+00 
    8.3985119653752029E+00 
    9.8018111932001979E+00 
    1.3937492799571938E+01 
    6.2024040214677356E+00 
    8.7748252263163131E+00 
    1.4510384804411242E+01 
    9.7475760054775140E+00 
    1.1025427667907753E+01 
    6.3642181078900020E+00 
    8.6324915536471920E+00 
    1.3748034229834706E+01 
    1.4055213431400535E+01 
    5.1857141577770234E+00 
    9.7524289271502838E+00 
    8.4385418484960972E+00 
    1.5318450522196287E+01 
    1.4783289602071285E+01 
    1.5578233316063438E+01 
    9.7726387852644372E+00 
    1.3911579450805933E+01 
    1.3522836697261294E+01 
    9.6463577352961920E+00 
    1.3569541078444527E+01 
    1.0260925940226434E+01 
    5.7162547218217270E+00 
    1.0005586999971598E+01 
    1.4496801989409208E+01 
    1.3566417754237291E+01 
    6.7495386763676439E+00 
    1.3595610422634710E+01 
    1.0999072946133628E+01 
    9.9192011126662116E+00 
    9.4687596188181438E+00 
    1.3435821648542364E+01 
    1.0452865376880998E+01 
    1.3582192233361569E+01 
    9.6337143611388480E+00 
    5.9245545806402200E+00 
    1.0059036543968601E+01 
    8.2971156581596972E+00 
    1.2424730959269439E+01 
    1.4691940993974066E+01 
    1.3575210510948365E+01 
    1.4567118180179298E+01 
    9.6963489989004099E+00 
    6.5721814617629217E+00 
    6.6660671938321920E+00 
    1.0102244972222261E+01 
    9.9659393729475720E+00 
    1.4184440891808046E+00 
    1.3090162932220341E+01 
    1.5041684277681840E+01 
    9.3388720748560985E+00 
    5.9556553843076063E+00 
    1.1402382219818843E+01 
    1.3594238283273349E+01 
    7.0618235515435561E+00 
    4.7822563979576280E+00 
    9.9424814199217835E+00 
    1.3679246606088700E+01 
    1.4314642945025371E+01 
    1.4207112071899472E+01 
    1.4058938819821751E+01 
    6.8982048622849170E+00 
    9.9130467342293720E+00 
    1.3120328344550254E+01 
    7.8113841849097714E+00 
    1.3871932648434397E+01 
    1.1931980610807537E+01 
    6.7681600389292509E+00 
    1.3701485442942516E+01 
    1.4598649567649460E+01 
    1.3712666187829837E+01 
    6.7985417909541814E+00 
    1.0015997684035009E+01 
    7.4745117429433607E+00 
    9.4532762634790135E+00 
    1.3585755905405330E+01 
    1.3574078128645853E+01 
    6.8382429962971365E+00 
    1.4452218233906667E+01 
    1.0569031829226732E+01 
    1.3607293797203852E+01 
    1.4419790144724759E+01 
    1.3594039484401637E+01 
    1.2664700450424942E+01 
    1.5372191135964609E+01 
    9.2954677165243247E+00 
    1.4536959203749387E+01 
    1.3636822737839328E+01 
    1.4608451892065215E+01 
    1.4445426570528534E+01 
    9.3942930667241900E+00 
    9.8383692024526113E+00 
    9.3294365032970106E+00 
    1.2178064409163747E+01 
    3.9038211002514149E+00 
    1.0038606574835544E+01 
    1.5497707775450730E+01 
    1.0260946649578280E+01 
    1.0446741731721948E+01 
    1.4581867923204756E+01 
    1.4810699462381068E+01 
    9.2291594324561075E+00 
    1.3599906630903641E+01 
    1.3570234266375175E+01 
    1.0434501936882620E+01 
    1.4401046733428682E+01 
    7.1101845196522797E+00 
    4.5139732030774464E+00 
    1.0712195651768821E+01 
    1.0276194822532474E+01 
    1.3576349381858250E+01 
    6.3918523412701438E+00 
    1.4123282260128198E+01 
    4.5951159289964325E+00 
    1.0205981329676307E+01 
    9.4308102515168457E+00 
    9.9923206509789804E+00 
    1.6796632772730234E+01 
    3.7930665277390681E+00 
    9.9559034719714390E+00 
    1.1896578950145859E+01 
    9.5996035447005088E+00 
    7.5461841677777661E+00 
    1.4235072302881282E+01 
    1.6355159612263780E+01 
    1.4382039800501300E+01 
    9.8965031099163543E+00 
    5.6091492701688530E+00 
    1.6209382299357429E+01 
    1.3852988060028377E+01 
    7.2322561694197409E+00 
    9.5383789386203972E+00 
    1.4998722955861760E+01 
    3.2255978909575180E+00 
    1.0325429872254913E+01 
    1.4347998364055151E+01 
    1.0005601519680527E+01 
    8.7182645790733346E+00 
    9.9955948399183541E+00 
    1.3339313869936364E+01 
    9.9866169693621654E+00 
    4.9918605378538530E+00 
    8.8363906941756187E-01 
    7.4515369321992528E+00 
    1.5214543150464479E+01 
    9.3288984877700436E+00 
    1.1338804538302053E+01 
    1.0769905472681634E+01 
    1.2498803131547497E+01 
    1.0019174771519369E+01 
    1.3763007791621822E+01 
    1.6810911216974240E+01 
    1.1858787918293153E+01 
    1.4509932022456983E+01 
    5.3092500909803864E-01 
    1.3576086436860399E+01 
    5.5288259159040711E+00 
    1.5665889336203451E+01 
    9.9695263809364683E+00 
    8.8607502801382978E+00 
    7.6245723715700233E+00 
    5.2366711335639771E+00 
    1.1197635168809629E+01 
    7.8933511088077219E+00 
    1.2319939838099307E+01 
    2.1480400492533667E+00 
    1.1032934648406840E+01 
    1.3509990777905990E+01 
    6.0489823045065734E+00 
    1.4063114165070781E+01 
    1.5468326695711465E+01 
    1.3907302049964404E+01 
    9.8356529562988690E+00 
    9.9871586697547592E+00 
    9.9622341991297425E+00 
    5.6795657845831622E+00 
    9.0654066830923856E+00 
    8.9106158433247735E+00 
    9.9512849308299636E+00 
    9.2610406693548040E+00 
    6.7126833232387162E-01 
    6.3559608182997085E+00 
    9.6538678976613497E+00 
    9.9263753605630072E+00 
    1.2661077343906303E+01 
    2.1228646377336533E+00 
    1.0394725617203541E+01 
    1.0280552559843025E+01 
    3.6478191507226110E+00 
    1.3771424425380850E+01 
    8.5893313003059006E+00 
    1.0129499733080719E+01 
    1.3849428713258645E+01 
    5.2593292850742435E+00 
    1.3893082719307962E+01 
    8.7035862193156586E+00 
    9.7404215673335670E-01 
    9.3903822399860637E+00 
    1.4463594761901858E+01 
    1.3575931415982684E+01 
    1.3594315966298026E+01 
    1.0308620878091306E+01 
    1.0210952964689813E+01 
    8.5686679430553951E+00 
    6.9027804985672399E+00 
    1.3957745765559391E+01 
    9.5358585354913394E+00 
    6.7246014118203687E+00 
    1.3589966722211537E+01 
    1.4274832167295141E+01 
    1.0130108257634969E+01 
    9.7936613586887589E+00 
    1.6690412978779200E+01 
    1.0435355504779579E+01 
    1.3975453717389607E+01 
    8.1364479069504192E+00 
    1.6839538329851997E+01 
    6.6271202075775610E+00 
    8.9772636316338819E+00 
    7.4291062349698853E+00 
    1.0662301128962895E+01 
    8.5074888784841090E+00 
    1.6823039192584332E+01 
    1.0482566951239431E+01 
    1.3278112668406695E+01 
    6.8171945662510840E+00 
    1.0015417434515161E+01 
    1.3819746383097655E+01 
    8.5399545051564125E+00 
    7.1712893176726338E+00 
    1.1060177623477223E+01 
    1.4046004628147676E+01 
    7.3124005363310633E+00 
    9.4510832822972244E+00 
    9.8224568930854730E+00 
    1.3551757526161678E+01 
    9.6259625532517124E+00 
    1.4020453724097264E+01 
    1.4637061149096761E+01 
    8.5950624471823769E+00 
    8.4200521590528759E+00 
    7.9277625379355667E+00 
    1.3692124109143361E+01 
    1.0284694858566221E+01 
    1.6394596523772066E+01 
    1.2864312250988416E+01 
    1.3779121235867645E+01 
    1.6083189711801857E+01 
    1.5476020095260850E+01 
    1.0064586734924180E+01 
    9.9362227942090389E+00 
    1.3345563605099679E+01 
    1.3613519404923291E+01 
    1.4129277944457028E+01 
    1.3873071084490347E+01 
    1.6711006992162226E+01 
    1.0434900298122402E+01 
    8.6963718304691682E+00 
    1.0431981336341495E+01 
    1.4551430981754903E+01 
    1.0174998368637292E+01 
    5.9039115124259141E+00 
    9.8196615836064449E+00 
    1.4965431274199304E+01 
    1.0316187988442094E+01 
    8.7066604040184554E+00 
    9.7639398591163502E+00 
    1.5075727597991246E+01 
    1.3624923438025990E+01 
    8.2559182270432299E+00 
    1.5211625225035521E+01 
    1.0097916957264840E+01 
    1.4123203417897139E+01 
    1.5089040921051495E+01 
    1.0588872808350953E+01 
    5.2639050387851238E+00 
    1.1022238245458805E+01 
    5.4487267393901258E+00 
    1.0229400977472645E+01 
    1.0007126133706050E+01 
    1.1608678387201714E+01 
    5.7626858095222113E+00 
    1.2323428689676312E+01 
    1.0028014528507160E+01 
    1.3863438027195686E+01 
    1.0573399184627188E+01 
    8.0642533097916580E+00 
    9.6410872316545770E+00 
    1.0478435702749289E+01 
    1.0537645449797420E+01 
    1.4680795559212086E+01 
    8.3010370364893085E+00 
    8.1568974987394913E+00 
    6.0639573730124630E+00 
    1.4152735861593584E+01 
    9.6811589466067538E+00 
    1.3420741474659341E+01 
    9.9776959153492459E+00 
    6.6390195149616584E+00 
    1.3653354136951709E+01 
    9.9530405868033807E+00 
    7.2465908024914629E+00 
    7.6836454562930836E+00 
    7.9602844577808778E+00 
    1.3893236285187124E+01 
    9.9532615420360226E+00 
    1.4521320718752200E+01 
    9.9116668221065360E+00 
    9.8498792854435031E+00 
    9.3699579207631292E+00 
    1.3735018487472747E+01 
    9.7676170238855509E+00 
    8.0010853032650733E+00 
    1.5464005720557839E+01 
    1.3814488363094970E+01 
    6.9450117586689135E+00 
    2.6775640338086197E+00 
    9.9427846163459392E+00 
    9.3719214312064096E+00 
    8.4127385972733197E+00 
    9.1747975686380094E+00 
    1.3777387550104166E+01 
    9.6529221596212782E+00 
    8.7508886442656451E+00 
    1.3635109909583681E+01 
    6.8826939220114616E+00 
    1.3306006691191991E+01 
    9.0540961669113393E+00 
    7.9380451458198751E+00 
    8.4954729974473064E+00 
    1.4207227054134371E+01 
    9.9953307213451765E+00 
    1.0003356732998537E+01 
    5.8450847927428402E+00 
    6.3248720448635645E+00 
    1.2653809716001804E+01 
    1.0013214822465331E+01 
    9.9824994386173813E+00 
    1.5197027168515213E+01 
    8.1600034097945873E+00 
    1.0026013412605238E+01 
    7.1189070256596159E+00 
    7.3437260413262733E+00 
    1.3728553986017216E+01 
    9.6567815151682179E+00 
    6.9823326810654045E+00 
    1.0569538568241628E+01 
    9.8974708440161177E+00 
    1.3731444816500087E+01 
    1.5289798368206878E+01 
    1.0253038151163569E+00 
    9.9476511632210780E+00 
    1.0274282152199898E+01 
    1.3794688451519479E+01 
    9.4630421090380406E+00 
    9.9693245045915759E+00 
    1.4732813015173674E+01 
    8.5312946887672680E+00 
    7.0455115347150352E+00 
    1.2117705866634465E+01 
    1.3589556680368668E+01 
    1.4607172247515289E+01 
    1.4874604965820392E+01 
    9.7910369234196910E+00 
    9.9392556913202306E+00 
    1.1265361641555797E+01 
    6.5968186016177182E+00 
    1.3716259291459865E+01 
    7.5981423033338169E+00 
    6.8722623542760504E+00 
    1.2563958222689443E+01 
    1.1818798545859849E+01 
    6.7387591257730071E+00 
    1.3625035548227272E+01 
    1.4593251989404518E+01 
    1.0450427282029105E+01 
    1.5391190538090127E+01 
    1.3657670264113177E+01 
    9.5279000254597559E+00 
    1.4334384531783519E+01 
    7.3483387095788393E+00 
    1.3608001539911186E+01 
    9.9466045438419251E+00 
    9.9083077285788264E+00 
    1.5366638829537655E+01 
    9.7145252587297577E+00 
    1.2284677474270593E+01 
    8.4797551892280580E+00 
    1.4710217765830723E+01 
    1.3515960434216966E+01 
    8.8519592008020354E+00 
    1.3565358664372951E+01 
    9.0715181026527603E+00 
    9.9787026583280447E+00 
    1.4553238044021823E+01 
    1.3868012372692531E+01 
    1.4596416500029431E+01 
    1.3797885690459722E+01 
    9.0710799887053906E+00 
    9.2867437680813278E+00 
    1.4603245415072326E+01 
    9.4112064702837390E+00 
    1.3448817917996898E+01 
    9.7041838587871254E+00 
    3.9354019931493993E+00 
    6.9448799367477472E+00 
    6.4290652611804431E+00 
    1.4556770969882209E+01 
    1.5296123473126880E+01 
    1.3583310379141864E+01 
    1.1568939783371212E+01 
    1.3868397149660060E+01 
    1.3632614614967114E+01 
    1.4210748311558813E+01 
    5.6440620978780247E+00 
    3.6684287405387344E+00 
    1.1363407161093429E+01 
    9.6222296105625862E+00 
    1.3778911676098060E+01 
    1.3776426435408087E+01 
    1.0296952609130070E+01 
    1.3813214452165688E+01 
    9.9336362258858610E+00 
    9.8630670674635255E+00 
    5.0913751487605765E+00 
    3.6546151594136647E+00 
    1.5072629660333979E+01 
    7.8021207007186089E+00 
    8.7946784661080777E+00 
    1.0183838449242794E+01 
    1.6692074156628898E+01 
    1.0283845905220454E+01 
    1.0277593078203392E+01 
    4.1593197790495875E+00 
    1.0285178513414801E+01 
    1.0299378094254999E+01 
    1.4094751551066000E+01 
    8.5008549895257683E+00 
    9.5612062737644870E+00 
    1.5240324729927817E+01 
    9.9558996027347888E+00 
    1.3599145459477803E+01 
    1.3856292456535678E+01 
    1.2333948974169392E+01 
    8.4768201302166766E+00 
    1.3797408294477542E+01 
    9.7533942708161163E+00 
    1.3790240670396051E+01 
    1.3538290800936457E+01 
    1.4575744562036853E+01 
    1.3795872152010073E+01 
    1.2953234357976822E+01 
    9.9447085863740927E+00 
    6.6870376637904227E+00 
    1.6564728447231087E+01 
    7.7542669952092460E+00 
    1.4506121644352330E+01 
    9.9421516699216639E+00 
    8.2025095635008043E+00 
    4.9108178569179524E+00 
    1.0335528949782082E+01 
    1.3784462720046161E+01 
    1.3780719698696236E+01 
    9.9595932826879121E+00 
    9.9363993733929199E+00 
    1.5446881693605148E+01 
    1.4817903009284436E+01 
    1.0302128983328879E+01 
    3.4132703245719203E+00 
    1.2909027251785123E+01 
    1.6820610708887678E+01 
    9.9479814046934987E+00 
    1.1946556261471242E+01 
    9.4610789065703962E+00 
    1.6421180619677592E+01 
    1.4896931976346911E+01 
    1.4634455009533823E+01 
    1.0323375534385349E+01 
    4.5803305493527304E+00 
    9.4185775130343217E+00 
    9.4860739570279407E+00 
    9.5273744997578813E+00 
    3.7164449665158101E+00 