# vtk DataFile Version 2.0
Pressure Field Data 
ASCII 
DATASET UNSTRUCTURED_GRID 

POINTS 2860 double 

    0.0000000000000000E+00     0.0000000000000000E+00     0.0000000000000000E+00 
    1.0000000000000000E+00     0.0000000000000000E+00     0.0000000000000000E+00 
    1.0000000000000000E+00     1.0000000000000000E+00     0.0000000000000000E+00 
    0.0000000000000000E+00     1.0000000000000000E+00     0.0000000000000000E+00 
    2.5000000000000000E-01     2.5000000000000000E-01     0.0000000000000000E+00 
    7.5000000000000000E-01     2.5000000000000000E-01     0.0000000000000000E+00 
    7.5000000000000000E-01     7.5000000000000000E-01     0.0000000000000000E+00 
    2.5000000000000000E-01     7.5000000000000000E-01     0.0000000000000000E+00 
    3.1249999999942091E-02     0.0000000000000000E+00     0.0000000000000000E+00 
    6.2499999999873469E-02     0.0000000000000000E+00     0.0000000000000000E+00 
    9.3749999999826514E-02     0.0000000000000000E+00     0.0000000000000000E+00 
    1.2499999999977961E-01     0.0000000000000000E+00     0.0000000000000000E+00 
    1.5624999999968961E-01     0.0000000000000000E+00     0.0000000000000000E+00 
    1.8749999999959971E-01     0.0000000000000000E+00     0.0000000000000000E+00 
    2.1874999999950970E-01     0.0000000000000000E+00     0.0000000000000000E+00 
    2.4999999999941969E-01     0.0000000000000000E+00     0.0000000000000000E+00 
    2.8124999999932920E-01     0.0000000000000000E+00     0.0000000000000000E+00 
    3.1249999999923850E-01     0.0000000000000000E+00     0.0000000000000000E+00 
    3.4374999999914790E-01     0.0000000000000000E+00     0.0000000000000000E+00 
    3.7499999999905720E-01     0.0000000000000000E+00     0.0000000000000000E+00 
    4.0624999999896660E-01     0.0000000000000000E+00     0.0000000000000000E+00 
    4.3749999999887590E-01     0.0000000000000000E+00     0.0000000000000000E+00 
    4.6874999999878530E-01     0.0000000000000000E+00     0.0000000000000000E+00 
    4.9999999999869471E-01     0.0000000000000000E+00     0.0000000000000000E+00 
    5.3124999999877620E-01     0.0000000000000000E+00     0.0000000000000000E+00 
    5.6249999999885780E-01     0.0000000000000000E+00     0.0000000000000000E+00 
    5.9374999999893940E-01     0.0000000000000000E+00     0.0000000000000000E+00 
    6.2499999999902101E-01     0.0000000000000000E+00     0.0000000000000000E+00 
    6.5624999999910261E-01     0.0000000000000000E+00     0.0000000000000000E+00 
    6.8749999999918421E-01     0.0000000000000000E+00     0.0000000000000000E+00 
    7.1874999999926570E-01     0.0000000000000000E+00     0.0000000000000000E+00 
    7.4999999999934730E-01     0.0000000000000000E+00     0.0000000000000000E+00 
    7.8124999999942890E-01     0.0000000000000000E+00     0.0000000000000000E+00 
    8.1249999999951039E-01     0.0000000000000000E+00     0.0000000000000000E+00 
    8.4374999999959199E-01     0.0000000000000000E+00     0.0000000000000000E+00 
    8.7499999999967359E-01     0.0000000000000000E+00     0.0000000000000000E+00 
    9.0624999999975520E-01     0.0000000000000000E+00     0.0000000000000000E+00 
    9.3749999999983680E-01     0.0000000000000000E+00     0.0000000000000000E+00 
    9.6874999999991840E-01     0.0000000000000000E+00     0.0000000000000000E+00 
    1.0000000000000000E+00     3.1249999999942091E-02     0.0000000000000000E+00 
    1.0000000000000000E+00     6.2499999999873469E-02     0.0000000000000000E+00 
    1.0000000000000000E+00     9.3749999999826514E-02     0.0000000000000000E+00 
    1.0000000000000000E+00     1.2499999999977961E-01     0.0000000000000000E+00 
    1.0000000000000000E+00     1.5624999999968961E-01     0.0000000000000000E+00 
    1.0000000000000000E+00     1.8749999999959971E-01     0.0000000000000000E+00 
    1.0000000000000000E+00     2.1874999999950970E-01     0.0000000000000000E+00 
    1.0000000000000000E+00     2.4999999999941969E-01     0.0000000000000000E+00 
    1.0000000000000000E+00     2.8124999999932920E-01     0.0000000000000000E+00 
    1.0000000000000000E+00     3.1249999999923850E-01     0.0000000000000000E+00 
    1.0000000000000000E+00     3.4374999999914790E-01     0.0000000000000000E+00 
    1.0000000000000000E+00     3.7499999999905720E-01     0.0000000000000000E+00 
    1.0000000000000000E+00     4.0624999999896660E-01     0.0000000000000000E+00 
    1.0000000000000000E+00     4.3749999999887590E-01     0.0000000000000000E+00 
    1.0000000000000000E+00     4.6874999999878530E-01     0.0000000000000000E+00 
    1.0000000000000000E+00     4.9999999999869471E-01     0.0000000000000000E+00 
    1.0000000000000000E+00     5.3124999999877620E-01     0.0000000000000000E+00 
    1.0000000000000000E+00     5.6249999999885780E-01     0.0000000000000000E+00 
    1.0000000000000000E+00     5.9374999999893940E-01     0.0000000000000000E+00 
    1.0000000000000000E+00     6.2499999999902101E-01     0.0000000000000000E+00 
    1.0000000000000000E+00     6.5624999999910261E-01     0.0000000000000000E+00 
    1.0000000000000000E+00     6.8749999999918421E-01     0.0000000000000000E+00 
    1.0000000000000000E+00     7.1874999999926570E-01     0.0000000000000000E+00 
    1.0000000000000000E+00     7.4999999999934730E-01     0.0000000000000000E+00 
    1.0000000000000000E+00     7.8124999999942890E-01     0.0000000000000000E+00 
    1.0000000000000000E+00     8.1249999999951039E-01     0.0000000000000000E+00 
    1.0000000000000000E+00     8.4374999999959199E-01     0.0000000000000000E+00 
    1.0000000000000000E+00     8.7499999999967359E-01     0.0000000000000000E+00 
    1.0000000000000000E+00     9.0624999999975520E-01     0.0000000000000000E+00 
    1.0000000000000000E+00     9.3749999999983680E-01     0.0000000000000000E+00 
    1.0000000000000000E+00     9.6874999999991840E-01     0.0000000000000000E+00 
    9.6875000000003686E-01     1.0000000000000000E+00     0.0000000000000000E+00 
    9.3750000000011691E-01     1.0000000000000000E+00     0.0000000000000000E+00 
    9.0625000000015765E-01     1.0000000000000000E+00     0.0000000000000000E+00 
    8.7500000000017863E-01     1.0000000000000000E+00     0.0000000000000000E+00 
    8.4375000000028044E-01     1.0000000000000000E+00     0.0000000000000000E+00 
    8.1250000000040856E-01     1.0000000000000000E+00     0.0000000000000000E+00 
    7.8125000000054956E-01     1.0000000000000000E+00     0.0000000000000000E+00 
    7.5000000000066480E-01     1.0000000000000000E+00     0.0000000000000000E+00 
    7.1875000000086831E-01     1.0000000000000000E+00     0.0000000000000000E+00 
    6.8750000000102829E-01     1.0000000000000000E+00     0.0000000000000000E+00 
    6.5625000000114431E-01     1.0000000000000000E+00     0.0000000000000000E+00 
    6.2500000000129829E-01     1.0000000000000000E+00     0.0000000000000000E+00 
    5.9375000000147926E-01     1.0000000000000000E+00     0.0000000000000000E+00 
    5.6250000000168354E-01     1.0000000000000000E+00     0.0000000000000000E+00 
    5.3125000000188671E-01     1.0000000000000000E+00     0.0000000000000000E+00 
    5.0000000000205835E-01     1.0000000000000000E+00     0.0000000000000000E+00 
    4.6875000000192979E-01     1.0000000000000000E+00     0.0000000000000000E+00 
    4.3750000000180111E-01     1.0000000000000000E+00     0.0000000000000000E+00 
    4.0625000000167238E-01     1.0000000000000000E+00     0.0000000000000000E+00 
    3.7500000000154382E-01     1.0000000000000000E+00     0.0000000000000000E+00 
    3.4375000000141509E-01     1.0000000000000000E+00     0.0000000000000000E+00 
    3.1250000000128642E-01     1.0000000000000000E+00     0.0000000000000000E+00 
    2.8125000000115769E-01     1.0000000000000000E+00     0.0000000000000000E+00 
    2.5000000000102918E-01     1.0000000000000000E+00     0.0000000000000000E+00 
    2.1875000000090050E-01     1.0000000000000000E+00     0.0000000000000000E+00 
    1.8750000000077180E-01     1.0000000000000000E+00     0.0000000000000000E+00 
    1.5625000000064329E-01     1.0000000000000000E+00     0.0000000000000000E+00 
    1.2500000000051459E-01     1.0000000000000000E+00     0.0000000000000000E+00 
    9.3750000000385914E-02     1.0000000000000000E+00     0.0000000000000000E+00 
    6.2500000000257239E-02     1.0000000000000000E+00     0.0000000000000000E+00 
    3.1250000000128557E-02     1.0000000000000000E+00     0.0000000000000000E+00 
    0.0000000000000000E+00     9.6875000000003686E-01     0.0000000000000000E+00 
    0.0000000000000000E+00     9.3750000000011691E-01     0.0000000000000000E+00 
    0.0000000000000000E+00     9.0625000000015765E-01     0.0000000000000000E+00 
    0.0000000000000000E+00     8.7500000000017863E-01     0.0000000000000000E+00 
    0.0000000000000000E+00     8.4375000000028044E-01     0.0000000000000000E+00 
    0.0000000000000000E+00     8.1250000000040856E-01     0.0000000000000000E+00 
    0.0000000000000000E+00     7.8125000000054956E-01     0.0000000000000000E+00 
    0.0000000000000000E+00     7.5000000000066480E-01     0.0000000000000000E+00 
    0.0000000000000000E+00     7.1875000000086831E-01     0.0000000000000000E+00 
    0.0000000000000000E+00     6.8750000000102829E-01     0.0000000000000000E+00 
    0.0000000000000000E+00     6.5625000000114431E-01     0.0000000000000000E+00 
    0.0000000000000000E+00     6.2500000000129829E-01     0.0000000000000000E+00 
    0.0000000000000000E+00     5.9375000000147926E-01     0.0000000000000000E+00 
    0.0000000000000000E+00     5.6250000000168354E-01     0.0000000000000000E+00 
    0.0000000000000000E+00     5.3125000000188671E-01     0.0000000000000000E+00 
    0.0000000000000000E+00     5.0000000000205835E-01     0.0000000000000000E+00 
    0.0000000000000000E+00     4.6875000000192979E-01     0.0000000000000000E+00 
    0.0000000000000000E+00     4.3750000000180111E-01     0.0000000000000000E+00 
    0.0000000000000000E+00     4.0625000000167238E-01     0.0000000000000000E+00 
[...]
CELL_DATA 2795 
SCALARS Pressure double 1 
LOOKUP_TABLE default 

    8.1020665803260012E+00 
    1.8324333161896242E+01 
    1.2768700373742981E+01 
    1.2461310098267338E+01 
    9.9437138443445754E+00 
    1.8142764856599189E+01 
    1.9037582065475579E+01 
    7.2379926791332245E+00 
    1.3325568598911438E+01 
    1.0301821394621692E+01 
    8.8022518073870835E+00 
    1.7820364671890136E+01 
    1.8222430283839277E+01 
    1.8103468026146150E+01 
    1.1796707168054256E+01 
    7.1160893931891174E+00 
    1.1484676983378163E+01 
    9.3663693459845003E+00 
    1.7337847100578170E+01 
    1.2748650080124360E+01 
    1.2643080164000381E+01 
    1.8018690201907678E+01 
    1.2130552458408168E+01 
    4.7828885322584419E-01 
    1.7757163172879579E+01 
    1.8175471973884164E+01 
    1.9074889042021766E+01 
    8.4818231419151555E+00 
    1.7717274882640336E+01 
    1.9062797641116472E+01 
    1.2969496612218405E+01 
    1.2955051140207660E+01 
    9.1849056968567293E+00 
    1.2731304964322979E+01 
    4.1927205028600882E+00 
    1.1489039419789790E+01 
    1.2716058777811714E+01 
    1.9108849724845534E+01 
    1.9009836267269208E+01 
    1.7836216464064581E+01 
    9.8831666801354050E+00 
    1.7812961356211158E+01 
    9.9241736461528940E-01 
    1.2745344098264439E+01 
    1.8803231852312400E+01 
    1.8506317928911241E+01 
    1.7807060917423712E+01 
    1.3729245057059524E+01 
    1.7853290474488755E+01 
    1.1751875013532665E+01 
    1.1197395004336750E+01 
    1.2918233185736092E+01 
    1.2631719560759654E+01 
    1.1561328676893613E+01 
    1.3048991045568128E+01 
    1.7055660851914190E+01 
    1.4916870653168132E+01 
    9.9962836718741528E+00 
    1.8027735168552002E+01 
    1.7924096904593604E+01 
    1.2423249558949005E+01 
    1.2293246726735907E+01 
    1.2342134972972126E+01 
    1.8946327109901379E+01 
    1.9260155020118969E+01 
    1.1503171813663162E+01 
    1.2916559340146501E+01 
    1.7506853006627676E+01 
    1.4749052062595045E+01 
    1.2357795477479854E+01 
    1.9259610555822565E+01 
    1.7975291011451311E+01 
    1.1340133824154309E+01 
    1.8637305967648992E+01 
    1.3321293104399064E+01 
    1.7599060053369318E+01 
    1.9123252454613592E+01 
    1.3410039007299423E+01 
    8.2072411571087738E+00 
    1.2935459827621878E+01 
    1.9020803136684926E+01 
    1.9290847240326322E+01 
    1.1517565713155950E+01 
    1.2860624535760300E+01 
    1.9347946856776833E+01 
    1.2714266765648558E+01 
    1.2238102142285411E+01 
    1.5324586872295919E+01 
    7.8770368666355832E+00 
    1.1228226503917075E+01 
    1.2857556752484626E+01 
    1.3484043886714129E+01 
    2.0994653497381773E+01 
    9.6666567085352817E+00 
    1.2924717565131616E+01 
    1.7779679178363754E+01 
    1.8156356968050769E+01 
    8.5212022524723992E+00 
    1.2569130030836840E+01 
    1.2892044441517628E+01 
    1.8186275390738885E+01 
    1.2881665918005492E+01 
    1.8087725466224949E+01 
    5.1689131578775882E+00 
    8.5492828614646665E+00 
    1.3151406402845643E+01 
    1.8332951859303645E+01 
    1.1446762520887171E+01 
    1.2147921790042998E+01 
    1.2857999440376483E+01 
    1.2195841518180409E+01 
    1.4496910294647153E+01 
    1.1828783744864710E+01 
    1.1349256640787726E+01 
    8.9068414375609546E+00 
    1.5372299217686232E+01 
    1.2960187898942637E+01 
    1.8841689620156082E+01 
    1.1164514287174310E+01 
    1.2436868740833107E+01 
    1.7971309100485783E+01 
    1.0429709969411032E+01 
    1.8520723557425345E+01 
    1.2788213089829346E+01 
    1.2353125394748085E+01 
    1.8161441573981897E+01 
    1.2948301400186876E+01 
    1.9140067642851950E+01 
    1.5380027690048808E+01 
    1.6820263338620467E+01 
    1.9094699967913215E+01 
    9.6849056041252197E+00 
    1.3172462425341964E+01 
    1.8160142074854519E+01 
    3.8571128036066389E+00 
    1.3024108776564329E+01 
    1.9054590094078034E+01 
    1.2386103124170502E+01 
    1.4263507791687619E+01 
    8.4123522000810453E+00 
    1.7776230337206890E+01 
    2.1527027274382547E+01 
    1.6030118454046519E+01 
    1.2387668343589443E+01 
    1.1099072226391041E+01 
    1.3792950622004982E+01 
    1.2805534135902608E+01 
    8.9045949525298038E+00 
    1.9090287872236722E+01 
    1.8164306966461279E+01 
    1.7781807591406466E+01 
    1.3481785721990414E+01 
    1.1308616430126868E+01 
    1.2638866196588925E+01 
    1.8680656316640430E+01 
    1.1623851689726905E+01 
    1.2943627970678619E+01 
    1.1830735492677375E+01 
    1.5054327230067178E+01 
    2.1514238276576833E+01 
    1.7770566018701718E+01 
    1.1282338479049351E+01 
    1.8402897756189002E+01 
    1.8284254108432609E+01 
    1.8380452732721015E+01 
    1.9577866836255048E+01 
    2.0195451002372522E+01 
    1.8488365527905930E+01 
    1.2907941388834120E+01 
    1.4028385602381242E+01 
    1.8288247203522040E+01 
    1.8852131050439549E+01 
    9.3005346225678132E+00 
    1.7805818819602948E+01 
    1.8634467092934290E+01 
    9.0481693480358931E+00 
    1.9499279599977417E+01 
    1.9459236387683514E+01 
    1.7423677263160549E+01 
    1.3247647800279918E+01 
    3.4243681925250620E+00 
    1.9056281122447007E+01 
    1.3087170865843051E+01 
    1.9197810097794921E+01 
    1.2300021569555280E+01 
    1.8827459007988342E+01 
    1.2334045513921377E+00 
    1.6772800506894843E+01 
    1.2345076401643469E+01 
    1.1251622925651180E+01 
    1.0967730612980445E+01 
    1.2755277632855169E+01 
    1.4042426997774133E+01 
    1.3480501388909898E+01 
    9.0114519030225324E+00 
    1.8847729057657482E+01 
    1.8187503039099344E+01 
    1.4890688509156959E+01 
    1.3141946084529415E+01 
    1.9576664637344385E+00 
    1.0128022054097535E+01 
    7.0406563250366450E+00 
    1.9074477577312756E+01 
    1.4341280924391832E+01 
    1.8188045725425354E+01 
    1.8269486895924238E+01 
    1.1718735164614218E+01 
    1.4967838805940829E+01 
    1.7772821791450053E+01 
    1.9439751834810647E+01 
    8.4058907855770837E+00 
    1.6073599170355834E+01 
    1.3429256317908171E+01 
    7.4937279137598356E+00 
    1.1711459685042266E+01 
    1.5643975083837933E+01 
    1.8222095523420627E+01 
    1.2807438863129279E+01 
    1.8354984863930401E+01 
    1.8071778088246436E+01 
    1.8008453415382967E+01 
    1.2643116089724758E+01 
    1.1157840930830108E+01 
    1.7791360276570835E+01 
    1.1332787912975597E+01 
    1.2890612133214699E+01 
    1.1112546682066242E+01 
    1.2897318587100914E+01 
    1.8281229702147257E+01 
    8.0570135329960948E+00 
    1.1596303023788002E+01 
    1.8975685731397888E+01 
    1.2651166760929252E+01 
    1.4223420219992390E+01 
    8.2698451485181508E+00 
    1.1413717566659709E+01 
    1.8044848357972334E+01 
    1.8421790680799713E+01 
    6.7313502302284061E+00 
    1.2665005569599131E+01 
    1.1189275221392693E+01 
    1.9931719670551551E+01 
    1.9301366715928189E+01 
    2.0229180819859955E+01 
    1.2685463833140608E+01 
    1.8247418975213755E+01 
    1.7707121801452772E+01 
    1.2533726278630034E+01 
    1.7782092910083414E+01 
    1.3142518722246246E+01 
    7.5683469337241673E+00 
    1.3092046679093187E+01 
    1.8956523888307714E+01 
    1.7777930191675402E+01 
    8.7683576538071843E+00 
    1.7815238386065385E+01 
    1.4075668921325736E+01 
    1.2999792709409515E+01 
    1.2472571124796275E+01 
    1.7601259478828872E+01 
    1.3608011251670817E+01 
    1.7798127867440108E+01 
    1.2670022433980035E+01 
    7.7921457116753965E+00 
    1.2970283291667723E+01 
    1.0980667155111426E+01 
    1.6115000086656394E+01 
    1.9197893295307825E+01 
    1.7788918904135357E+01 
    1.9047198367604810E+01 
    1.2588886466195223E+01 
    8.5382580168439937E+00 
    8.6546391201100157E+00 
    1.3218463235903133E+01 
    1.2861246192658431E+01 
    1.9085747081916817E+00 
    1.7085568980715689E+01 
    1.9616204009309200E+01 
    1.2319006665505331E+01 
    7.9177862042751599E+00 
    1.4924820831106537E+01 
    1.7811921193854172E+01 
    9.3731784577669348E+00 
    6.3713685219661196E+00 
    1.2845735604461844E+01 
    1.7900281630208493E+01 
    1.8735549588956928E+01 
    1.8551506808395875E+01 
    1.8424475356215861E+01 
    9.1433796515715393E+00 
    1.2994354586430621E+01 
    1.7229188290865391E+01 
    1.0113125517330223E+01 
    1.8205772706838285E+01 
    1.5237007954613992E+01 
    8.7747587004421845E+00 
    1.7912048297412234E+01 
    1.9101906848695155E+01 
    1.7956367133291543E+01 
    9.0282925737250928E+00 
    1.2912476684916783E+01 
    9.9126608312765256E+00 
    1.2203257652653063E+01 
    1.7802487166009069E+01 
    1.7787703904378077E+01 
    9.0790101232184632E+00 
    1.8886230017003616E+01 
    1.3531700622727607E+01 
    1.7824342962284028E+01 
    1.8870262076049418E+01 
    1.7810867350743418E+01 
    1.6332915910617103E+01 
    2.0000196378814245E+01 
    1.2255883323716681E+01 
    1.9009751921326139E+01 
    1.7856523462286876E+01 
    1.9097759150254518E+01 
    1.8880774299013623E+01 
    1.2380154713520463E+01 
    1.2757173952665642E+01 
    1.2307801574497402E+01 
    1.5599607539824431E+01 
    5.1921501178016882E+00 
    1.3142512501986277E+01 
    2.0140100254548276E+01 
    1.3147949117314209E+01 
    1.3377606182831556E+01 
    1.9065630070731050E+01 
    1.9334738382736525E+01 
    1.2145849704429576E+01 
    1.7820412911337939E+01 
    1.7783170404114504E+01 
    1.3362090362208868E+01 
    1.8827212860541035E+01 
    9.2270383665998441E+00 
    5.8804151526540727E+00 
    1.3711584097819339E+01 
    1.3161967973881548E+01 
    1.7786420550499972E+01 
    8.4948125991827705E+00 
    1.8460559003480792E+01 
    6.0145509088638418E+00 
    1.3093777939772346E+01 
    1.2396510468376698E+01 
    1.2888558160849081E+01 
    2.1567958801410683E+01 
    5.0342613467600543E+00 
    1.3044512932456424E+01 
    1.5651164266976744E+01 
    1.2472805928354836E+01 
    9.9587306233650814E+00 
    1.8631113510974096E+01 
    2.1089865637260459E+01 
    1.8791794299517235E+01 
    1.2971814681220598E+01 
    7.4596325241734629E+00 
    2.0928086824510597E+01 
    1.8176567993955693E+01 
    9.4213298375271677E+00 
    1.2568555923673548E+01 
    1.9558155349661888E+01 
    4.2840297882321234E+00 
    1.3225840155678094E+01 
    1.8789391223585625E+01 
    1.2904596180060306E+01 
    1.1268250632301184E+01 
    1.3091808758089902E+01 
    1.7312570344648840E+01 
    1.2886406623688716E+01 
    6.6444693046945895E+00 
    1.2194809982247272E+00 
    9.6696339338581829E+00 
    1.9821610607709054E+01 
    1.2306958652834526E+01 
    1.4559939488890233E+01 
    1.3966531949764658E+01 
    1.5971548025896764E+01 
    1.2918547814061808E+01 
    1.8063700733404662E+01 
    2.1583163001813634E+01 
    1.5248420093352582E+01 
    1.8976209289449610E+01 
    7.1415564618389193E-01 
    1.7789873849695994E+01 
    7.3141721336371592E+00 
    2.0327601051285871E+01 
    1.3060704632272682E+01 
    1.1503688033150205E+01 
    1.0108231216408020E+01 
    6.9759151618983992E+00 
    1.4281185552376117E+01 
    1.0253349351208206E+01 
    1.5976772945980475E+01 
    2.9170242269813134E+00 
    1.4122230617651395E+01 
    1.7694700505080998E+01 
    7.8403737486217517E+00 
    1.8321257750465776E+01 
    2.0092796443433290E+01 
    1.8161292078276382E+01 
    1.2896894408745466E+01 
    1.2882129468540899E+01 
    1.3052094186945626E+01 
    7.5583321620804202E+00 
    1.1970382264239099E+01 
    1.1772550018671986E+01 
    1.3038990012298260E+01 
    1.2220995546304186E+01 
    9.1270537787576045E-01 
    8.3367471712193328E+00 
    1.2705574028865424E+01 
    1.3008543550608263E+01 
    1.6451244983231835E+01 
    2.8102946491445575E+00 
    1.3312323548798680E+01 
    1.3170647111215951E+01 
    4.8480643261280605E+00 
    1.7997247277015038E+01 
    1.1356300889341783E+01 
    1.3021288758897379E+01 
    1.8175148701850027E+01 
    7.0031203978653433E+00 
    1.8122629245538150E+01 
    1.1506297486202888E+01 
    1.2767342058394187E+00 
    1.2384194385775569E+01 
    1.8913865622580072E+01 
    1.7790345345873277E+01 
    1.7813029161166391E+01 
    1.3459686419709719E+01 
    1.3096772453842670E+01 
    1.1331778355623225E+01 
    9.0381919819316110E+00 
    1.8314885815104052E+01 
    1.2561832549695593E+01 
    8.7667404310523906E+00 
    1.7807659086428888E+01 
    1.8637192250729250E+01 
    1.3247343667854821E+01 
    1.2701568314184767E+01 
    2.1451986659551874E+01 
    1.3363288674271011E+01 
    1.8329467460343523E+01 
    1.0779348356538323E+01 
    2.1612377722191546E+01 
    8.6019560821563221E+00 
    1.1830361135804388E+01 
    9.6427069504115170E+00 
    1.3650743678643964E+01 
    1.1033115234842725E+01 
    2.1595031311204995E+01 
    1.3422925597311265E+01 
    1.7281322687208799E+01 
    8.8502794517213133E+00 
    1.2912847178108057E+01 
    1.8134199352431597E+01 
    1.1085517980470950E+01 
    9.4193318983297480E+00 
    1.4552517404610832E+01 
    1.8391173959387686E+01 
    9.4744194508271740E+00 
    1.2423058999897135E+01 
    1.2740489847286618E+01 
    1.7758954638321345E+01 
    1.2498661636587693E+01 
    1.8377168117349672E+01 
    1.9132099461210494E+01 
    1.1364603692045185E+01 
    1.1143292246164869E+01 
    1.0260485268282144E+01 
    1.7932894125745825E+01 
    1.3192942153507515E+01 
    2.1132387777925192E+01 
    1.6466509475025749E+01 
    1.8084412512678668E+01 
    2.0787762858263193E+01 
    2.0100272504970100E+01 
    1.2961276890658153E+01 
    1.3020664887662775E+01 
    1.7436895661310814E+01 
    1.7837920006234711E+01 
    1.8528999699465068E+01 
    1.8202747586118551E+01 
    2.1477479746254819E+01 
    1.3362687467227341E+01 
    1.1496353492222630E+01 
    1.3334290697910085E+01 
    1.9027906012543411E+01 
    1.3059819478286471E+01 
    7.7013601734104542E+00 
    1.2877301814863044E+01 
    1.9522181786489146E+01 
    1.3213738666109728E+01 
    1.1509289647073469E+01 
    1.2679557404385962E+01 
    1.9650960864508015E+01 
    1.7886998721328368E+01 
    1.0972665508209467E+01 
    1.9808460745756339E+01 
    1.2990728852780569E+01 
    1.8504637563897361E+01 
    1.9666253399839480E+01 
    1.3773773214352081E+01 
    7.0126162204764961E+00 
    1.4331343140336289E+01 
    7.2489045758236470E+00 
    1.3111644977551714E+01 
    1.2909220056208847E+01 
    1.5126909753761160E+01 
    7.6644001921208744E+00 
    1.6112586278219613E+01 
    1.2926098592458198E+01 
    1.8190040347765262E+01 
    1.3926672010352130E+01 
    1.0631589690182503E+01 
    1.2527995564665826E+01 
    1.3644582716092593E+01 
    1.3491228169512491E+01 
    1.9189240973253618E+01 
    1.0986788361260798E+01 
    1.0798998555417660E+01 
    8.0566903002041172E+00 
    1.8553844758957968E+01 
    1.2578487026337232E+01 
    1.7610271893051035E+01 
    1.2877154823465176E+01 
    8.8188424249854762E+00 
    1.7919387460023881E+01 
    1.2853394499614572E+01 
    9.6268429627402199E+00 
    1.0191946985279261E+01 
    1.0544620621116016E+01 
    1.8229295890435665E+01 
    1.3041380643570601E+01 
    1.8990808968679975E+01 
    1.2813170624460145E+01 
    1.2750948084213404E+01 
    1.2324901755326925E+01 
    1.8026987185262367E+01 
    1.2661669019338024E+01 
    1.0594531108973078E+01 
    2.0088480763455696E+01 
    1.8130096636956512E+01 
    9.0136582447281874E+00 
    3.5440114770680977E+00 
    1.3028969983473218E+01 
    1.2171411855793938E+01 
    1.1130923806124338E+01 
    1.2081957763451463E+01 
    1.8046357949599734E+01 
    1.2674006498826822E+01 
    1.1558030157929393E+01 
    1.7865695937958389E+01 
    8.9327194552227454E+00 
    1.7394216168557691E+01 
    1.1742432930811223E+01 
    1.0546273273291305E+01 
    1.1238259381558638E+01 
    1.8606965377284883E+01 
    1.2891118725882729E+01 
    1.2899939565311922E+01 
    7.7765578662892363E+00 
    8.4062627367609775E+00 
    1.6338534576682942E+01 
    1.2910194347662085E+01 
    1.3076612230669637E+01 
    1.9793986406980078E+01 
    1.0801158499276482E+01 
    1.2922926932061650E+01 
    9.2390762338613399E+00 
    9.5337380503718165E+00 
    1.7996510879164322E+01 
    1.2526916313462635E+01 
    9.2670292137890744E+00 
    1.3485326923613354E+01 
    1.2812261820228423E+01 
    1.8010405346375961E+01 
    1.9900396039144706E+01 
    1.3429185255323579E+00 
    1.3034848305075981E+01 
    1.3160702976411581E+01 
    1.8104189271052288E+01 
    1.2470772813925018E+01 
    1.2862269047864642E+01 
    1.9257032794140905E+01 
    1.1283417117910794E+01 
    9.3500367464161478E+00 
    1.5429563300235573E+01 
    1.7807523695140031E+01 
    1.9094894653846261E+01 
    1.9409511367034817E+01 
    1.2845425563447522E+01 
    1.3024446263166864E+01 
    1.4344341849110393E+01 
    8.5731815156832152E+00 
    1.7971117311126910E+01 
    1.0072182525955222E+01 
    8.9197549816790325E+00 
    1.6049359821943337E+01 
    1.5057850706511966E+01 
    8.7509451254100110E+00 
    1.7851808405089074E+01 
    1.9078736131661270E+01 
    1.3382280133143396E+01 
    2.0017392648240595E+01 
    1.7893467179938490E+01 
    1.2536627069175964E+01 
    1.8749082241108855E+01 
    9.5334567099177789E+00 
    1.7830337053678718E+01 
    1.3033467080714411E+01 
    1.2988519202610611E+01 
    1.9993186995109227E+01 
    1.2623421808833722E+01 
    1.5699470990847955E+01 
    1.1215992264897428E+01 
    1.9219651044918876E+01 
    1.7706917313150036E+01 
    1.1698722418183415E+01 
    1.7776306757833932E+01 
    1.1787567694410720E+01 
    1.2869323045980041E+01 
    1.9029818420052219E+01 
    1.8200964762918762E+01 
    1.9082317968799799E+01 
    1.8108336744157953E+01 
    1.1977049228911003E+01 
    1.2237487347179997E+01 
    1.9091128871451478E+01 
    1.2392588602143954E+01 
    1.7584587639191039E+01 
    1.2604674252355263E+01 
    5.2303536648193250E+00 
    9.0035078464445419E+00 
    8.3372856510451534E+00 
    1.9034392802230954E+01 
    1.9909331510184458E+01 
    1.7799232312294265E+01 
    1.4762744412694804E+01 
    1.8154912832825644E+01 
    1.7862657674067201E+01 
    1.8600301231367489E+01 
    7.5098753154283546E+00 
    4.8658261168762476E+00 
    1.4486536281937136E+01 
    1.2658512162425362E+01 
    1.8051904828315337E+01 
    1.8048858430286842E+01 
    1.3181498707078305E+01 
    1.8095850810205970E+01 
    1.3017607349713364E+01 
    1.2925869229392950E+01 
    6.7803939952086223E+00 
    4.8487067022009152E+00 
    1.9646341109057222E+01 
    1.0121106552657912E+01 
    1.1622938968503641E+01 
    1.3072339758418023E+01 
    2.1455389566999283E+01 
    1.3171351842025807E+01 
    1.3395926151675953E+01 
    5.5358296775737728E+00 
    1.3171151293472086E+01 
    1.3186505273476513E+01 
    1.8372486903864079E+01 
    1.1246718485962045E+01 
    1.2386728266179141E+01 
    1.9842785402493327E+01 
    1.3044828857387126E+01 
    1.7819201726219404E+01 
    1.8087727616195846E+01 
    1.5772997023451778E+01 
    1.1004023945395581E+01 
    1.8107734765963375E+01 
    1.2807098372916165E+01 
    1.8012262571297160E+01 
    1.7740855797931157E+01 
    1.9057603220046435E+01 
    1.8105324026112882E+01 
    1.6773100703986902E+01 
    1.3031131235090937E+01 
    8.6745115379104085E+00 
    2.1318080727788153E+01 
    1.0277857033023988E+01 
    1.8966345488774923E+01 
    1.3028094981672036E+01 
    1.0866149775261952E+01 
    6.4744508892692663E+00 
    1.3226583210285924E+01 
    1.8090991484877115E+01 
    1.8084163364124073E+01 
    1.2848470691427673E+01 
    1.3021271590658335E+01 
    2.0077416239993781E+01 
    1.9342605817290984E+01 
    1.3193444585668040E+01 
    4.5248687253836390E+00 
    1.6587767388088725E+01 
    2.1591115626811472E+01 
    1.3035004843714878E+01 
    1.5245376000749937E+01 
    1.2470246343484789E+01 
    2.1160128329593501E+01 
    1.9438732268737450E+01 
    1.9140605360389316E+01 
    1.3218238077220164E+01 
    6.0382122560945213E+00 
    1.2420005750834063E+01 
    1.2497998926923428E+01 
    1.2543574901618035E+01 
    4.9429113846847859E+00 