# vtk DataFile Version 2.0
Pressure Field Data 
ASCII 
DATASET UNSTRUCTURED_GRID 

POINTS 2860 double 

    0.0000000000000000E+00     0.0000000000000000E+00     0.0000000000000000E+00 
    1.0000000000000000E+00     0.0000000000000000E+00     0.0000000000000000E+00 
    1.0000000000000000E+00     1.0000000000000000E+00     0.0000000000000000E+00 
    0.0000000000000000E+00     1.0000000000000000E+00     0.0000000000000000E+00 
    2.5000000000000000E-01     2.5000000000000000E-01     0.0000000000000000E+00 
    7.5000000000000000E-01     2.5000000000000000E-01     0.0000000000000000E+00 
    7.5000000000000000E-01     7.5000000000000000E-01     0.0000000000000000E+00 
    2.5000000000000000E-01     7.5000000000000000E-01     0.0000000000000000E+00 
    3.1249999999942091E-02     0.0000000000000000E+00     0.0000000000000000E+00 
    6.2499999999873469E-02     0.0000000000000000E+00     0.0000000000000000E+00 
    9.3749999999826514E-02     0.0000000000000000E+00     0.0000000000000000E+00 
    1.2499999999977961E-01     0.0000000000000000E+00     0.0000000000000000E+00 
    1.5624999999968961E-01     0.0000000000000000E+00     0.0000000000000000E+00 
    1.8749999999959971E-01     0.0000000000000000E+00     0.0000000000000000E+00 
    2.1874999999950970E-01     0.0000000000000000E+00     0.0000000000000000E+00 
    2.4999999999941969E-01     0.0000000000000000E+00     0.0000000000000000E+00 
    2.8124999999932920E-01     0.0000000000000000E+00     0.0000000000000000E+00 
    3.1249999999923850E-01     0.0000000000000000E+00     0.0000000000000000E+00 
    3.4374999999914790E-01     0.0000000000000000E+00     0.0000000000000000E+00 
    3.7499999999905720E-01     0.0000000000000000E+00     0.0000000000000000E+00 
    4.0624999999896660E-01     0.0000000000000000E+00     0.0000000000000000E+00 
    4.3749999999887590E-01     0.0000000000000000E+00     0.0000000000000000E+00 
    4.6874999999878530E-01     0.0000000000000000E+00     0.0000000000000000E+00 
    4.9999999999869471E-01     0.0000000000000000E+00     0.0000000000000000E+00 
    5.3124999999877620E-01     0.0000000000000000E+00     0.0000000000000000E+00 
    5.6249999999885780E-01     0.0000000000000000E+00     0.0000000000000000E+00 
    5.9374999999893940E-01     0.0000000000000000E+00     0.0000000000000000E+00 
    6.2499999999902101E-01     0.0000000000000000E+00     0.0000000000000000E+00 
    6.5624999999910261E-01     0.0000000000000000E+00     0.0000000000000000E+00 
    6.8749999999918421E-01     0.0000000000000000E+00     0.0000000000000000E+00 
    7.1874999999926570E-01     0.0000000000000000E+00     0.0000000000000000E+00 
    7.4999999999934730E-01     0.0000000000000000E+00     0.0000000000000000E+00 
    7.8124999999942890E-01     0.0000000000000000E+00     0.0000000000000000E+00 
    8.1249999999951039E-01     0.0000000000000000E+00     0.0000000000000000E+00 
    8.4374999999959199E-01     0.0000000000000000E+00     0.0000000000000000E+00 
    8.7499999999967359E-01     0.0000000000000000E+00     0.0000000000000000E+00 
    9.0624999999975520E-01     0.0000000000000000E+00     0.0000000000000000E+00 
    9.3749999999983680E-01     0.0000000000000000E+00     0.0000000000000000E+00 
    9.6874999999991840E-01     0.0000000000000000E+00     0.0000000000000000E+00 
    1.0000000000000000E+00     3.1249999999942091E-02     0.0000000000000000E+00 
    1.0000000000000000E+00     6.2499999999873469E-02     0.0000000000000000E+00 
    1.0000000000000000E+00     9.3749999999826514E-02     0.0000000000000000E+00 
    1.0000000000000000E+00     1.2499999999977961E-01     0.0000000000000000E+00 
    1.0000000000000000E+00     1.5624999999968961E-01     0.0000000000000000E+00 
    1.0000000000000000E+00     1.8749999999959971E-01     0.0000000000000000E+00 
    1.0000000000000000E+00     2.1874999999950970E-01     0.0000000000000000E+00 
    1.0000000000000000E+00     2.4999999999941969E-01     0.0000000000000000E+00 
    1.0000000000000000E+00     2.8124999999932920E-01     0.0000000000000000E+00 
    1.0000000000000000E+00     3.1249999999923850E-01     0.0000000000000000E+00 
    1.0000000000000000E+00     3.4374999999914790E-01     0.0000000000000000E+00 
    1.0000000000000000E+00     3.7499999999905720E-01     0.0000000000000000E+00 
    1.0000000000000000E+00     4.0624999999896660E-01     0.0000000000000000E+00 
    1.0000000000000000E+00     4.3749999999887590E-01     0.0000000000000000E+00 
    1.0000000000000000E+00     4.6874999999878530E-01     0.0000000000000000E+00 
    1.0000000000000000E+00     4.9999999999869471E-01     0.0000000000000000E+00 
    1.0000000000000000E+00     5.3124999999877620E-01     0.0000000000000000E+00 
    1.0000000000000000E+00     5.6249999999885780E-01     0.0000000000000000E+00 
    1.0000000000000000E+00     5.9374999999893940E-01     0.0000000000000000E+00 
    1.0000000000000000E+00     6.2499999999902101E-01     0.0000000000000000E+00 
    1.0000000000000000E+00     6.5624999999910261E-01     0.0000000000000000E+00 
    1.0000000000000000E+00     6.8749999999918421E-01     0.0000000000000000E+00 
    1.0000000000000000E+00     7.1874999999926570E-01     0.0000000000000000E+00 
    1.0000000000000000E+00     7.4999999999934730E-01     0.0000000000000000E+00 
    1.0000000000000000E+00     7.8124999999942890E-01     0.0000000000000000E+00 
    1.0000000000000000E+00     8.1249999999951039E-01     0.0000000000000000E+00 
    1.0000000000000000E+00     8.4374999999959199E-01     0.0000000000000000E+00 
    1.0000000000000000E+00     8.7499999999967359E-01     0.0000000000000000E+00 
    1.0000000000000000E+00     9.0624999999975520E-01     0.0000000000000000E+00 
    1.0000000000000000E+00     9.3749999999983680E-01     0.0000000000000000E+00 
    1.0000000000000000E+00     9.6874999999991840E-01     0.0000000000000000E+00 
    9.6875000000003686E-01     1.0000000000000000E+00     0.0000000000000000E+00 
    9.3750000000011691E-01     1.0000000000000000E+00     0.0000000000000000E+00 
    9.0625000000015765E-01     1.0000000000000000E+00     0.0000000000000000E+00 
    8.7500000000017863E-01     1.0000000000000000E+00     0.0000000000000000E+00 
    8.4375000000028044E-01     1.0000000000000000E+00     0.0000000000000000E+00 
    8.1250000000040856E-01     1.0000000000000000E+00     0.0000000000000000E+00 
    7.8125000000054956E-01     1.0000000000000000E+00     0.0000000000000000E+00 
    7.5000000000066480E-01     1.0000000000000000E+00     0.0000000000000000E+00 
    7.1875000000086831E-01     1.0000000000000000E+00     0.0000000000000000E+00 
    6.8750000000102829E-01     1.0000000000000000E+00     0.0000000000000000E+00 
    6.5625000000114431E-01     1.0000000000000000E+00     0.0000000000000000E+00 
    6.2500000000129829E-01     1.0000000000000000E+00     0.0000000000000000E+00 
    5.9375000000147926E-01     1.0000000000000000E+00     0.0000000000000000E+00 
    5.6250000000168354E-01     1.0000000000000000E+00     0.0000000000000000E+00 
    5.3125000000188671E-01     1.0000000000000000E+00     0.0000000000000000E+00 
    5.0000000000205835E-01     1.0000000000000000E+00     0.0000000000000000E+00 
    4.6875000000192979E-01     1.0000000000000000E+00     0.0000000000000000E+00 
    4.3750000000180111E-01     1.0000000000000000E+00     0.0000000000000000E+00 
    4.0625000000167238E-01     1.0000000000000000E+00     0.0000000000000000E+00 
    3.7500000000154382E-01     1.0000000000000000E+00     0.0000000000000000E+00 
    3.4375000000141509E-01     1.0000000000000000E+00     0.0000000000000000E+00 
    3.1250000000128642E-01     1.0000000000000000E+00     0.0000000000000000E+00 
    2.8125000000115769E-01     1.0000000000000000E+00     0.0000000000000000E+00 
    2.5000000000102918E-01     1.0000000000000000E+00     0.0000000000000000E+00 
    2.1875000000090050E-01     1.0000000000000000E+00     0.0000000000000000E+00 
    1.8750000000077180E-01     1.0000000000000000E+00     0.0000000000000000E+00 
    1.5625000000064329E-01     1.0000000000000000E+00     0.0000000000000000E+00 
    1.2500000000051459E-01     1.0000000000000000E+00     0.0000000000000000E+00 
    9.3750000000385914E-02     1.0000000000000000E+00     0.0000000000000000E+00 
    6.2500000000257239E-02     1.0000000000000000E+00     0.0000000000000000E+00 
    3.1250000000128557E-02     1.0000000000000000E+00     0.0000000000000000E+00 
    0.0000000000000000E+00     9.6875000000003686E-01     0.0000000000000000E+00 
    0.0000000000000000E+00     9.3750000000011691E-01     0.0000000000000000E+00 
    0.0000000000000000E+00     9.0625000000015765E-01     0.0000000000000000E+00 
    0.0000000000000000E+00     8.7500000000017863E-01     0.0000000000000000E+00 
    0.0000000000000000E+00     8.4375000000028044E-01     0.0000000000000000E+00 
    0.0000000000000000E+00     8.1250000000040856E-01     0.0000000000000000E+00 
    0.0000000000000000E+00     7.8125000000054956E-01     0.0000000000000000E+00 
    0.0000000000000000E+00     7.5000000000066480E-01     0.0000000000000000E+00 
    0.0000000000000000E+00     7.1875000000086831E-01     0.0000000000000000E+00 
    0.0000000000000000E+00     6.8750000000102829E-01     0.0000000000000000E+00 
    0.0000000000000000E+00     6.5625000000114431E-01     0.0000000000000000E+00 
    0.0000000000000000E+00     6.2500000000129829E-01     0.0000000000000000E+00 
    0.0000000000000000E+00     5.9375000000147926E-01     0.0000000000000000E+00 
    0.0000000000000000E+00     5.6250000000168354E-01     0.0000000000000000E+00 
    0.0000000000000000E+00     5.3125000000188671E-01     0.0000000000000000E+00 
    0.0000000000000000E+00     5.0000000000205835E-01     0.0000000000000000E+00 
    0.0000000000000000E+00     4.6875000000192979E-01     0.0000000000000000E+00 
    0.0000000000000000E+00     4.3750000000180111E-01     0.0000000000000000E+00 
    0.0000000000000000E+00     4.0625000000167238E-01     0.0000000000000000E+00 
[...]
CELL_DATA 2795 
SCALARS Pressure double 1 
LOOKUP_TABLE default 

    5.5229934316813498E+00 
    1.2690076000543623E+01 
    8.9946967274432819E+00 
    8.5905454266810679E+00 
    6.8088991834941526E+00 
    1.2582549352859285E+01 
    1.3232535281433480E+01 
    4.9260731134748106E+00 
    9.5166160429698614E+00 
    7.2705850658774045E+00 
    6.1877541023356599E+00 
    1.2356347434613994E+01 
    1.2600769448759648E+01 
    1.2554993250603559E+01 
    8.2918407084002919E+00 
    4.8429825746630621E+00 
    7.8939222033404643E+00 
    6.5956306161724347E+00 
    1.2038603762497491E+01 
    8.9913486287522169E+00 
    8.8753700431877594E+00 
    1.2497435525025400E+01 
    8.3511873281792024E+00 
    3.2409373684517145E-01 
    1.2333625555957974E+01 
    1.2578909797740566E+01 
    1.3261421940638009E+01 
    5.9472063466904821E+00 
    1.2286267126031758E+01 
    1.3258279462871723E+01 
    9.0408691061465927E+00 
    9.2357508703180091E+00 
    6.4256336565969612E+00 
    8.9534237210316494E+00 
    2.8536781036961600E+00 
    7.8987197368575224E+00 
    8.9447559776155767E+00 
    1.3295255540799356E+01 
    1.3212326394550017E+01 
    1.2367728689292010E+01 
    6.7435187119348301E+00 
    1.2314097050840529E+01 
    6.7524142082233840E-01 
    8.8145217793508781E+00 
    1.3038136147758959E+01 
    1.2889481831258335E+01 
    1.2346905755968487E+01 
    9.8409125009101164E+00 
    1.2410977253576691E+01 
    8.0802268418865744E+00 
    7.6905199111399654E+00 
    9.2013668073838364E+00 
    8.7100691876942449E+00 
    7.9407260626383813E+00 
    9.1124503331322035E+00 
    1.1854660532664576E+01 
    1.0728184586836901E+01 
    6.8462374346569588E+00 
    1.2500956946597450E+01 
    1.2433271687291693E+01 
    8.6119590543587368E+00 
    8.6409286470017435E+00 
    8.5025097983218831E+00 
    1.3168916628283235E+01 
    1.3396405205608353E+01 
    7.9031802169543566E+00 
    9.1996886852832258E+00 
    1.2269093363208551E+01 
    1.0529829478525006E+01 
    8.6777042444769403E+00 
    1.3408563043757567E+01 
    1.2434859137084333E+01 
    7.7906621412178350E+00 
    1.2978864226221029E+01 
    9.3670461150620365E+00 
    1.2203122890618220E+01 
    1.3304567131400416E+01 
    9.2802290157786214E+00 
    5.6242327152047231E+00 
    9.2175835377355018E+00 
    1.3219913446809210E+01 
    1.3438345335284366E+01 
    7.9129290801283814E+00 
    9.1244722310653064E+00 
    1.3476745107384330E+01 
    8.9505625989913025E+00 
    8.4279741301037827E+00 
    1.0890251176778222E+01 
    5.3635905091126697E+00 
    7.7112083910150711E+00 
    9.1270386107965518E+00 
    9.6426062108019206E+00 
    1.4866438061867093E+01 
    6.6140908244109866E+00 
    9.2073143644039455E+00 
    1.2327481560816931E+01 
    1.2556792059067588E+01 
    5.8126028447150633E+00 
    8.8226427470065527E+00 
    9.1548034700467404E+00 
    1.2575457578137138E+01 
    9.1642813354136408E+00 
    1.2513784440127285E+01 
    3.5287899609272833E+00 
    6.0144356332880387E+00 
    9.4149678228456732E+00 
    1.2698218022735043E+01 
    7.8665680741911910E+00 
    8.4132811647314050E+00 
    9.1490439449918295E+00 
    8.3984926174238730E+00 
    1.0418775429494087E+01 
    8.1730209301899297E+00 
    7.7978107280011972E+00 
    6.1106221816281767E+00 
    1.0616693074239766E+01 
    9.2365451333854516E+00 
    1.3088788321465406E+01 
    7.9024654597601796E+00 
    8.5771008215753763E+00 
    1.2425362435272159E+01 
    7.1318761208512038E+00 
    1.2830797071116464E+01 
    9.0391217898074938E+00 
    8.5103430775359570E+00 
    1.2558889388876699E+01 
    9.2301836898783787E+00 
    1.3312441871792878E+01 
    1.0899678945306263E+01 
    1.1723934084209882E+01 
    1.3276767081127380E+01 
    6.6278179675192241E+00 
    9.4315871954890120E+00 
    1.2562588097887733E+01 
    2.6477379553514400E+00 
    9.0905781999284372E+00 
    1.3246212892335990E+01 
    8.5393032691281245E+00 
    9.8625466334411449E+00 
    5.7562397288008889E+00 
    1.2326586619440416E+01 
    1.5342427306186451E+01 
    1.1307855608114139E+01 
    8.5353848879897782E+00 
    7.6214572137732119E+00 
    9.7839769316413641E+00 
    9.0566798261844852E+00 
    6.2541813151495820E+00 
    1.3272811359189998E+01 
    1.2652430440683354E+01 
    1.2329028262267332E+01 
    9.6568532992202378E+00 
    7.7640097161599222E+00 
    8.8744904371181033E+00 
    1.3003833330279639E+01 
    7.9905122875525336E+00 
    8.9557624630478152E+00 
    8.1386359368615029E+00 
    1.0389517994290573E+01 
    1.5331002079964719E+01 
    1.2321438010166567E+01 
    7.7242367234445384E+00 
    1.2733099205379638E+01 
    1.2660736391466015E+01 
    1.2733941241353927E+01 
    1.3662737714689023E+01 
    1.4174737199193036E+01 
    1.2886663506185275E+01 
    9.1915824722796202E+00 
    9.7471083131723795E+00 
    1.2731321530826946E+01 
    1.3098112200911832E+01 
    6.5310679233845512E+00 
    1.2346510288882323E+01 
    1.2969479614559360E+01 
    6.3575731822962114E+00 
    1.3580138792695159E+01 
    1.3569674222058326E+01 
    1.2100183009069612E+01 
    9.4885902607181745E+00 
    2.3180252573069846E+00 
    1.3246440621992051E+01 
    9.3595201970352608E+00 
    1.3359221625283302E+01 
    8.4771331856702528E+00 
    1.3094216749917566E+01 
    8.2442152381517175E-01 
    1.1741244686470607E+01 
    8.6829956534221395E+00 
    7.7280978719963347E+00 
    7.5282456035867176E+00 
    9.0066898011881058E+00 
    1.0102921246612766E+01 
    9.3048281772366455E+00 
    6.2016008357218322E+00 
    1.3094405330473689E+01 
    1.2585642569984813E+01 
    1.0641204114622445E+01 
    9.4074531320727690E+00 
    1.3553317359377495E+00 
    6.9384412690186457E+00 
    4.7844659527144184E+00 
    1.3269062393071980E+01 
    1.0211614432034633E+01 
    1.2639560278544057E+01 
    1.2645336012906267E+01 
    8.0626682477084177E+00 
    1.0660017025774165E+01 
    1.2324964199637101E+01 
    1.3552589769824973E+01 
    5.7374431262252337E+00 
    1.1115778729482784E+01 
    9.3382033698752931E+00 
    5.1029239708495098E+00 
    8.0545307565125768E+00 
    1.1115373453648237E+01 
    1.2611011102257097E+01 
    9.0696531164267977E+00 
    1.2712809613803103E+01 
    1.2497473755894173E+01 
    1.2451886310304609E+01 
    8.8811894737570967E+00 
    7.6793288779745872E+00 
    1.2336285329809035E+01 
    7.7854457777027957E+00 
    9.1668481792683281E+00 
    7.6296659134282834E+00 
    8.9040064107694654E+00 
    1.2652956040894050E+01 
    5.6524964229167507E+00 
    7.9728090245046985E+00 
    1.3187883237913162E+01 
    8.8956725505073226E+00 
    1.0104504940155483E+01 
    5.8008425654039870E+00 
    7.8431178411513471E+00 
    1.2477499932717782E+01 
    1.2764078571097215E+01 
    4.7200695853524461E+00 
    8.8974335666677575E+00 
    7.6658706577487177E+00 
    1.3951144489921781E+01 
    1.3445189175478099E+01 
    1.4199605459879239E+01 
    8.9188641064420331E+00 
    1.2629484338094590E+01 
    1.2287437017832710E+01 
    8.7992857517168055E+00 
    1.2329254724481515E+01 
    9.4073605978021657E+00 
    5.1687960605905943E+00 
    9.1029125652321881E+00 
    1.3176677343622925E+01 
    1.2326402996571661E+01 
    6.1555973646483739E+00 
    1.2352692579095644E+01 
    1.0091867273161926E+01 
    9.0729680432333630E+00 
    8.6151377208377102E+00 
    1.2208805562013120E+01 
    9.6096225851929571E+00 
    1.2340900204737723E+01 
    8.7616598527851917E+00 
    5.3608707990221749E+00 
    9.2327533971470874E+00 
    7.5368459372481400E+00 
    1.1308311730407770E+01 
    1.3356958328249874E+01 
    1.2335270035154595E+01 
    1.3240008560044869E+01 
    8.8472604064503884E+00 
    5.9917064343525146E+00 
    6.0781142490904729E+00 
    9.2743969292505710E+00 
    9.1439523585524380E+00 
    1.2804994343052383E+00 
    1.1900613970898837E+01 
    1.3686329751366410E+01 
    8.4871116673649638E+00 
    5.3881308032538255E+00 
    1.0346057455297498E+01 
    1.2351422732446094E+01 
    6.4080607807191852E+00 
    4.3333918741268391E+00 
    9.1154991693194027E+00 
    1.2439465431871783E+01 
    1.3006581948871265E+01 
    1.2903700627455741E+01 
    1.2768243093358665E+01 
    6.2468976322613736E+00 
    9.0641965478444906E+00 
    1.1905575838700958E+01 
    7.1376348539833137E+00 
    1.2589034809204485E+01 
    1.0861147424264413E+01 
    6.1729489830315520E+00 
    1.2448932262646990E+01 
    1.3265141140044451E+01 
    1.2441596728769568E+01 
    6.1682589342114182E+00 
    9.1957367400620633E+00 
    6.7855429329195323E+00 
    8.6654693212877962E+00 
    1.2343808149226520E+01 
    1.2333308430491099E+01 
    6.2045988468454407E+00 
    1.3130693352628105E+01 
    9.6929979321075272E+00 
    1.2370664185387893E+01 
    1.3102773173172441E+01 
    1.2354902762156417E+01 
    1.1524642209449484E+01 
    1.4000464086301690E+01 
    8.4542714837723931E+00 
    1.3212334315766647E+01 
    1.2396126190349380E+01 
    1.3278555480719154E+01 
    1.3124652628197717E+01 
    8.5454760520060891E+00 
    8.9889890139902100E+00 
    8.4778519621978017E+00 
    1.1092867508512533E+01 
    3.5389395187705794E+00 
    9.1951274159213146E+00 
    1.4121655694702032E+01 
    9.4112162033925522E+00 
    9.5811465944906793E+00 
    1.3253589346585288E+01 
    1.3470156472028176E+01 
    8.4138328400208575E+00 
    1.2356534159738874E+01 
    1.2330095909088540E+01 
    9.5699770492004319E+00 
    1.3083730936618252E+01 
    6.4861995786620010E+00 
    4.1025366260495568E+00 
    9.8250666041755448E+00 
    9.4240794893867275E+00 
    1.2335335429983202E+01 
    5.7967096213234290E+00 
    1.2827950962164888E+01 
    4.1765394772808015E+00 
    9.3634513939927491E+00 
    8.6055026402608696E+00 
    9.1722190999929971E+00 
    1.5381731265245236E+01 
    3.4404552549573952E+00 
    9.1087702711903269E+00 
    1.0797012906043934E+01 
    8.7565101668675016E+00 
    6.8333290197460013E+00 
    1.2934991951003793E+01 
    1.4950733551819800E+01 
    1.3066268187425464E+01 
    9.0511929928441592E+00 
    5.0770052261345775E+00 
    1.4810395066303986E+01 
    1.2574316757436010E+01 
    6.5517163444007993E+00 
    8.6671132234294603E+00 
    1.3647883901714676E+01 
    2.9251711144713743E+00 
    9.4699788757241148E+00 
    1.3033899631594078E+01 
    9.1855895887177113E+00 
    7.9804728714070512E+00 
    9.1505810386201478E+00 
    1.2099771846940138E+01 
    9.1650932194732668E+00 
    4.5223623376939841E+00 
    7.9455305419735966E-01 
    6.7959136152724477E+00 
    1.3849194888560236E+01 
    8.4772247417270172E+00 
    1.0383933166383832E+01 
    9.9317223061755229E+00 
    1.1347051123074134E+01 
    9.1990760917093475E+00 
    1.2490899420669175E+01 
    1.5395730045511815E+01 
    1.0806513391358498E+01 
    1.3187390918972989E+01 
    4.8091377364037902E-01 
    1.2335082626168607E+01 
    5.0060035824514371E+00 
    1.4284031081484894E+01 
    9.1225534577501399E+00 
    8.0870604469407112E+00 
    6.9228551603834374E+00 
    4.7451550939383482E+00 
    1.0227954228180334E+01 
    7.2006976377806158E+00 
    1.1213920999965511E+01 
    1.9353515754515747E+00 
    1.0118157061885716E+01 
    1.2275729975102292E+01 
    5.5104154788717610E+00 
    1.2772592710122993E+01 
    1.4097037358710766E+01 
    1.2636134285004424E+01 
    8.9927285004883846E+00 
    9.1668157658471205E+00 
    9.1151456455014941E+00 
    5.1471768138305274E+00 
    8.2368941202023755E+00 
    8.0959891884964286E+00 
    9.1041385383908437E+00 
    8.4165386096947987E+00 
    6.0625041680833858E-01 
    5.7433416591367141E+00 
    8.7718152979311874E+00 
    9.0799489575954997E+00 
    1.1518578295521088E+01 
    1.9267951071911658E+00 
    9.5334871415599896E+00 
    9.4289205802181435E+00 
    3.3074724306181280E+00 
    1.2521153537071305E+01 
    7.8038283244547362E+00 
    9.2970858247095194E+00 
    1.2569896755606447E+01 
    4.7650879121377088E+00 
    1.2623123654152785E+01 
    7.9076524268479611E+00 
    8.8663014660410844E-01 
    8.5339286378789705E+00 
    1.3142879330287313E+01 
    1.2335153910900761E+01 
    1.2353265583601811E+01 
    9.4909895618209177E+00 
    9.3670514790322486E+00 
    7.7850126639823749E+00 
    6.2362243967777431E+00 
    1.2668881155930110E+01 
    8.6658028577975248E+00 
    6.0915255629758525E+00 
    1.2348093127112202E+01 
    1.2967655912280140E+01 
    9.2973223701064143E+00 
    8.9441215785279429E+00 
    1.5278528236549105E+01 
    9.5707182619742746E+00 
    1.2687848814747790E+01 
    7.3895590959543052E+00 
    1.5424227115495473E+01 
    6.0424081216602374E+00 
    8.1762937530042361E+00 
    6.7800064101176387E+00 
    9.7776985679971453E+00 
    7.7663994838368833E+00 
    1.5407983152092164E+01 
    9.6138513223745647E+00 
    1.2045255909460487E+01 
    6.2173291710144678E+00 
    9.1962003233770595E+00 
    1.2543958203669185E+01 
    7.7932711355501096E+00 
    6.4847902302383780E+00 
    1.0039549803630210E+01 
    1.2761307466154586E+01 
    6.6761093704039149E+00 
    8.6236436923911892E+00 
    8.9720469932082345E+00 
    1.2313145506888540E+01 
    8.7826648206684652E+00 
    1.2732506226198971E+01 
    1.3305411083139450E+01 
    7.8091923419792977E+00 
    7.6492166500624972E+00 
    7.2463320825479860E+00 
    1.2439224648448143E+01 
    9.4307690983964498E+00 
    1.4989316137429512E+01 
    1.1732903332928114E+01 
    1.2505765683165734E+01 
    1.4688409274652329E+01 
    1.4104854394885647E+01 
    9.2432063270468809E+00 
    9.0894132542383623E+00 
    1.2129179876142713E+01 
    1.2368790410737661E+01 
    1.2827565217762240E+01 
    1.2592530681009833E+01 
    1.5297445081006861E+01 
    9.5703083752476701E+00 
    7.9012897633841463E+00 
    9.5449594018375912E+00 
    1.3225496807135624E+01 
    9.3354009611608610E+00 
    5.3756318891456374E+00 
    8.9772751364327359E+00 
    1.3615491675660836E+01 
    9.4614734402954692E+00 
    7.9105701376260251E+00 
    8.9081969650223627E+00 
    1.3720081329012832E+01 
    1.2365587356013272E+01 
    7.4969897937621388E+00 
    1.3849248960970785E+01 
    9.2715581624894501E+00 
    1.2827522968452827E+01 
    1.3732577042891865E+01 
    9.6320559647372885E+00 
    4.7675206177648999E+00 
    1.0009997064969046E+01 
    4.9338548960721242E+00 
    9.3816126012575953E+00 
    9.1846242839821510E+00 
    1.0533385805146084E+01 
    5.2180817010487157E+00 
    1.1180147976333476E+01 
    9.2084353409604951E+00 
    1.2583836595339346E+01 
    9.6010937490073900E+00 
    7.3127362303895360E+00 
    8.7942362296056356E+00 
    9.6511973797528903E+00 
    9.6652155771904731E+00 
    1.3345925105470444E+01 
    7.5409081938512257E+00 
    7.4091657268592330E+00 
    5.4920020118864041E+00 
    1.2850954180700352E+01 
    8.8311478505093177E+00 
    1.2178261327501275E+01 
    9.1558449536567306E+00 
    6.0166263438913994E+00 
    1.2390556806314791E+01 
    9.1286838916624831E+00 
    6.5739370081943811E+00 
    6.9752434846521592E+00 
    7.2287571665009098E+00 
    1.2610809851769996E+01 
    9.1060891673412314E+00 
    1.3197415981580241E+01 
    9.0818953050550579E+00 
    9.0098393095706051E+00 
    8.5443282920131285E+00 
    1.2465195098263699E+01 
    8.9206298085867495E+00 
    7.2666270219872970E+00 
    1.4092755089960090E+01 
    1.2537698974598229E+01 
    6.3348145998687855E+00 
    2.4302374542718828E+00 
    9.0954217626789386E+00 
    8.5489248248386858E+00 
    7.6428991881298423E+00 
    8.3592678255515978E+00 
    1.2516715945697488E+01 
    8.8153607847488900E+00 
    7.9553485347912707E+00 
    1.2388239731679976E+01 
    6.2768891258021684E+00 
    1.2093378256310325E+01 
    8.2668566045233334E+00 
    7.2002267839985503E+00 
    7.7180942855221666E+00 
    1.2905872088811153E+01 
    9.1752342710620116E+00 
    9.1835990653170061E+00 
    5.2981572842051907E+00 
    5.7358793871727141E+00 
    1.1479006106457138E+01 
    9.1937069052220490E+00 
    9.1381884877278932E+00 
    1.3834739733433963E+01 
    7.4116550209268262E+00 
    9.2059532404952016E+00 
    6.4926314293860159E+00 
    6.6982474945881840E+00 
    1.2457464635871567E+01 
    8.8148036225960009E+00 
    6.3361057231485196E+00 
    9.6592377848410553E+00 
    9.0558659559095798E+00 
    1.2460852382385342E+01 
    1.3923351161843096E+01 
    9.3473494707903149E-01 
    9.1002086199691217E+00 
    9.4226837549571378E+00 
    1.2519900766618703E+01 
    8.6037542268100289E+00 
    9.1480112713801010E+00 
    1.3393047096801279E+01 
    7.7507313528390709E+00 
    6.3936059526500930E+00 
    1.1081215343206749E+01 
    1.2347398033927126E+01 
    1.3277854310588099E+01 
    1.3531254938920123E+01 
    8.9466469075071409E+00 
    9.0922726535305731E+00 
    1.0290885101885706E+01 
    6.0149959984174926E+00 
    1.2461416843273625E+01 
    6.8989481493251930E+00 
    6.2679429626669041E+00 
    1.1453750957059265E+01 
    1.0778673880710240E+01 
    6.1454482664060919E+00 
    1.2379431126795218E+01 
    1.3264582412573132E+01 
    9.5845062972094475E+00 
    1.4020024382345811E+01 
    1.2408478902279418E+01 
    8.6800842549348456E+00 
    1.3022881344351514E+01 
    6.7032217631981004E+00 
    1.2363817507161679E+01 
    9.0993478086975035E+00 
    9.0599503642138295E+00 
    1.3995352064530408E+01 
    8.8611018280087013E+00 
    1.1191421372828621E+01 
    7.7038080297249589E+00 
    1.3374140549059177E+01 
    1.2280978285924109E+01 
    8.0453919142148358E+00 
    1.2326114872449088E+01 
    8.2743492966198566E+00 
    9.1587954317801366E+00 
    1.3227407830018144E+01 
    1.2585694433347660E+01 
    1.3267641513836137E+01 
    1.2522681635847844E+01 
    8.2424961958237510E+00 
    8.4522291538022145E+00 
    1.3273787941575238E+01 
    8.5691933726499006E+00 
    1.2221784643810185E+01 
    8.8527937395027934E+00 
    3.5693643261011729E+00 
    6.3361214114494775E+00 
    5.8606675323829327E+00 
    1.3230541427449442E+01 
    1.3928894117519464E+01 
    1.2342490794844709E+01 
    1.0628824817097508E+01 
    1.2598331719571476E+01 
    1.2385972516596874E+01 
    1.2912740222116197E+01 
    5.1137343575702747E+00 
    3.3282816318950812E+00 
    1.0435845948882079E+01 
    8.7562255583327495E+00 
    1.2518108180893091E+01 
    1.2515843255573749E+01 
    9.4392488976235587E+00 
    1.2549173882067233E+01 
    9.0867884587852803E+00 
    8.9862795141013478E+00 
    4.6132795300672944E+00 
    3.3149116953660895E+00 
    1.3717430645995591E+01 
    7.1177948537509481E+00 
    7.9905688625035314E+00 
    9.3444051398473906E+00 
    1.5279587183949934E+01 
    9.4312398442231764E+00 
    9.3692938854393724E+00 
    3.7710764316916494E+00 
    9.4318421520490645E+00 
    9.4442909679932541E+00 
    1.2800787410542691E+01 
    7.7219871775353868E+00 
    8.7332832430085592E+00 
    1.3876338252687860E+01 
    9.1086846354354716E+00 
    1.2356701911130028E+01 
    1.2585778947045529E+01 
    1.1313655153478113E+01 
    7.7306240718156243E+00 
    1.2522005550376754E+01 
    8.9017425569955861E+00 
    1.2533136832810396E+01 
    1.2300966394924009E+01 
    1.3248193675090892E+01 
    1.2521386605193763E+01 
    1.1781949913672277E+01 
    9.0975375648306400E+00 
    6.0976423597848388E+00 
    1.5155155622141587E+01 
    7.0413078164272598E+00 
    1.3185454789067377E+01 
    9.0949501012728238E+00 
    7.4485890417962395E+00 
    4.4637058418485465E+00 
    9.4757914059155954E+00 
    1.2510418357520214E+01 
    1.2506280685267631E+01 
    9.1382001203410788E+00 
    9.0891281019990160E+00 
    1.4074104091277110E+01 
    1.3477506197232385E+01 
    9.4481100570086749E+00 
    3.0975811908878015E+00 
    1.1753253208632335E+01 
    1.5406040782810436E+01 
    9.1008678590693144E+00 
    1.0962714281930173E+01 
    8.5998234711985884E+00 
    1.5016012079515910E+01 
    1.3551218436308591E+01 
    1.3300172740158837E+01 
    9.4679467197331757E+00 
    4.1584941508540112E+00 
    8.5594478350352663E+00 
    8.6254700305647329E+00 
    8.6712033644315998E+00 
    3.3696271894729142E+00 