# vtk DataFile Version 2.0
Pressure Field Data 
ASCII 
DATASET UNSTRUCTURED_GRID 

POINTS 2860 double 

    0.0000000000000000E+00     0.0000000000000000E+00     0.0000000000000000E+00 
    1.0000000000000000E+00     0.0000000000000000E+00     0.0000000000000000E+00 
    1.0000000000000000E+00     1.0000000000000000E+00     0.0000000000000000E+00 
    0.0000000000000000E+00     1.0000000000000000E+00     0.0000000000000000E+00 
    2.5000000000000000E-01     2.5000000000000000E-01     0.0000000000000000E+00 
    7.5000000000000000E-01     2.5000000000000000E-01     0.0000000000000000E+00 
    7.5000000000000000E-01     7.5000000000000000E-01     0.0000000000000000E+00 
    2.5000000000000000E-01     7.5000000000000000E-01     0.0000000000000000E+00 
    3.1249999999942091E-02     0.0000000000000000E+00     0.0000000000000000E+00 
    6.2499999999873469E-02     0.0000000000000000E+00     0.0000000000000000E+00 
    9.3749999999826514E-02     0.0000000000000000E+00     0.0000000000000000E+00 
    1.2499999999977961E-01     0.0000000000000000E+00     0.0000000000000000E+00 
    1.5624999999968961E-01     0.0000000000000000E+00     0.0000000000000000E+00 
    1.8749999999959971E-01     0.0000000000000000E+00     0.0000000000000000E+00 
    2.1874999999950970E-01     0.0000000000000000E+00     0.0000000000000000E+00 
    2.4999999999941969E-01     0.0000000000000000E+00     0.0000000000000000E+00 
    2.8124999999932920E-01     0.0000000000000000E+00     0.0000000000000000E+00 
    3.1249999999923850E-01     0.0000000000000000E+00     0.0000000000000000E+00 
    3.4374999999914790E-01     0.0000000000000000E+00     0.0000000000000000E+00 
    3.7499999999905720E-01     0.0000000000000000E+00     0.0000000000000000E+00 
    4.0624999999896660E-01     0.0000000000000000E+00     0.0000000000000000E+00 
    4.3749999999887590E-01     0.0000000000000000E+00     0.0000000000000000E+00 
    4.6874999999878530E-01     0.0000000000000000E+00     0.0000000000000000E+00 
    4.9999999999869471E-01     0.0000000000000000E+00     0.0000000000000000E+00 
    5.3124999999877620E-01     0.0000000000000000E+00     0.0000000000000000E+00 
    5.6249999999885780E-01     0.0000000000000000E+00     0.0000000000000000E+00 
    5.9374999999893940E-01     0.0000000000000000E+00     0.0000000000000000E+00 
    6.2499999999902101E-01     0.0000000000000000E+00     0.0000000000000000E+00 
    6.5624999999910261E-01     0.0000000000000000E+00     0.0000000000000000E+00 
    6.8749999999918421E-01     0.0000000000000000E+00     0.0000000000000000E+00 
    7.1874999999926570E-01     0.0000000000000000E+00     0.0000000000000000E+00 
    7.4999999999934730E-01     0.0000000000000000E+00     0.0000000000000000E+00 
    7.8124999999942890E-01     0.0000000000000000E+00     0.0000000000000000E+00 
    8.1249999999951039E-01     0.0000000000000000E+00     0.0000000000000000E+00 
    8.4374999999959199E-01     0.0000000000000000E+00     0.0000000000000000E+00 
    8.7499999999967359E-01     0.0000000000000000E+00     0.0000000000000000E+00 
    9.0624999999975520E-01     0.0000000000000000E+00     0.0000000000000000E+00 
    9.3749999999983680E-01     0.0000000000000000E+00     0.0000000000000000E+00 
    9.6874999999991840E-01     0.0000000000000000E+00     0.0000000000000000E+00 
    1.0000000000000000E+00     3.1249999999942091E-02     0.0000000000000000E+00 
    1.0000000000000000E+00     6.2499999999873469E-02     0.0000000000000000E+00 
    1.0000000000000000E+00     9.3749999999826514E-02     0.0000000000000000E+00 
    1.0000000000000000E+00     1.2499999999977961E-01     0.0000000000000000E+00 
    1.0000000000000000E+00     1.5624999999968961E-01     0.0000000000000000E+00 
    1.0000000000000000E+00     1.8749999999959971E-01     0.0000000000000000E+00 
    1.0000000000000000E+00     2.1874999999950970E-01     0.0000000000000000E+00 
    1.0000000000000000E+00     2.4999999999941969E-01     0.0000000000000000E+00 
    1.0000000000000000E+00     2.8124999999932920E-01     0.0000000000000000E+00 
    1.0000000000000000E+00     3.1249999999923850E-01     0.0000000000000000E+00 
    1.0000000000000000E+00     3.4374999999914790E-01     0.0000000000000000E+00 
    1.0000000000000000E+00     3.7499999999905720E-01     0.0000000000000000E+00 
    1.0000000000000000E+00     4.0624999999896660E-01     0.0000000000000000E+00 
    1.0000000000000000E+00     4.3749999999887590E-01     0.0000000000000000E+00 
    1.0000000000000000E+00     4.6874999999878530E-01     0.0000000000000000E+00 
    1.0000000000000000E+00     4.9999999999869471E-01     0.0000000000000000E+00 
    1.0000000000000000E+00     5.3124999999877620E-01     0.0000000000000000E+00 
    1.0000000000000000E+00     5.6249999999885780E-01     0.0000000000000000E+00 
    1.0000000000000000E+00     5.9374999999893940E-01     0.0000000000000000E+00 
    1.0000000000000000E+00     6.2499999999902101E-01     0.0000000000000000E+00 
    1.0000000000000000E+00     6.5624999999910261E-01     0.0000000000000000E+00 
    1.0000000000000000E+00     6.8749999999918421E-01     0.0000000000000000E+00 
    1.0000000000000000E+00     7.1874999999926570E-01     0.0000000000000000E+00 
    1.0000000000000000E+00     7.4999999999934730E-01     0.0000000000000000E+00 
    1.0000000000000000E+00     7.8124999999942890E-01     0.0000000000000000E+00 
    1.0000000000000000E+00     8.1249999999951039E-01     0.0000000000000000E+00 
    1.0000000000000000E+00     8.4374999999959199E-01     0.0000000000000000E+00 
    1.0000000000000000E+00     8.7499999999967359E-01     0.0000000000000000E+00 
    1.0000000000000000E+00     9.0624999999975520E-01     0.0000000000000000E+00 
    1.0000000000000000E+00     9.3749999999983680E-01     0.0000000000000000E+00 
    1.0000000000000000E+00     9.6874999999991840E-01     0.0000000000000000E+00 
    9.6875000000003686E-01     1.0000000000000000E+00     0.0000000000000000E+00 
    9.3750000000011691E-01     1.0000000000000000E+00     0.0000000000000000E+00 
    9.0625000000015765E-01     1.0000000000000000E+00     0.0000000000000000E+00 
    8.7500000000017863E-01     1.0000000000000000E+00     0.0000000000000000E+00 
    8.4375000000028044E-01     1.0000000000000000E+00     0.0000000000000000E+00 
    8.1250000000040856E-01     1.0000000000000000E+00     0.0000000000000000E+00 
    7.8125000000054956E-01     1.0000000000000000E+00     0.0000000000000000E+00 
    7.5000000000066480E-01     1.0000000000000000E+00     0.0000000000000000E+00 
    7.1875000000086831E-01     1.0000000000000000E+00     0.0000000000000000E+00 
    6.8750000000102829E-01     1.0000000000000000E+00     0.0000000000000000E+00 
    6.5625000000114431E-01     1.0000000000000000E+00     0.0000000000000000E+00 
    6.2500000000129829E-01     1.0000000000000000E+00     0.0000000000000000E+00 
    5.9375000000147926E-01     1.0000000000000000E+00     0.0000000000000000E+00 
    5.6250000000168354E-01     1.0000000000000000E+00     0.0000000000000000E+00 
    5.3125000000188671E-01     1.0000000000000000E+00     0.0000000000000000E+00 
    5.0000000000205835E-01     1.0000000000000000E+00     0.0000000000000000E+00 
    4.6875000000192979E-01     1.0000000000000000E+00     0.0000000000000000E+00 
    4.3750000000180111E-01     1.0000000000000000E+00     0.0000000000000000E+00 
    4.0625000000167238E-01     1.0000000000000000E+00     0.0000000000000000E+00 
    3.7500000000154382E-01     1.0000000000000000E+00     0.0000000000000000E+00 
    3.4375000000141509E-01     1.0000000000000000E+00     0.0000000000000000E+00 
    3.1250000000128642E-01     1.0000000000000000E+00     0.0000000000000000E+00 
    2.8125000000115769E-01     1.0000000000000000E+00     0.0000000000000000E+00 
    2.5000000000102918E-01     1.0000000000000000E+00     0.0000000000000000E+00 
    2.1875000000090050E-01     1.0000000000000000E+00     0.0000000000000000E+00 
    1.8750000000077180E-01     1.0000000000000000E+00     0.0000000000000000E+00 
    1.5625000000064329E-01     1.0000000000000000E+00     0.0000000000000000E+00 
    1.2500000000051459E-01     1.0000000000000000E+00     0.0000000000000000E+00 
    9.3750000000385914E-02     1.0000000000000000E+00     0.0000000000000000E+00 
    6.2500000000257239E-02     1.0000000000000000E+00     0.0000000000000000E+00 
    3.1250000000128557E-02     1.0000000000000000E+00     0.0000000000000000E+00 
    0.0000000000000000E+00     9.6875000000003686E-01     0.0000000000000000E+00 
    0.0000000000000000E+00     9.3750000000011691E-01     0.0000000000000000E+00 
    0.0000000000000000E+00     9.0625000000015765E-01     0.0000000000000000E+00 
    0.0000000000000000E+00     8.7500000000017863E-01     0.0000000000000000E+00 
    0.0000000000000000E+00     8.4375000000028044E-01     0.0000000000000000E+00 
    0.0000000000000000E+00     8.1250000000040856E-01     0.0000000000000000E+00 
    0.0000000000000000E+00     7.8125000000054956E-01     0.0000000000000000E+00 
    0.0000000000000000E+00     7.5000000000066480E-01     0.0000000000000000E+00 
    0.0000000000000000E+00     7.1875000000086831E-01     0.0000000000000000E+00 
    0.0000000000000000E+00     6.8750000000102829E-01     0.0000000000000000E+00 
    0.0000000000000000E+00     6.5625000000114431E-01     0.0000000000000000E+00 
    0.0000000000000000E+00     6.2500000000129829E-01     0.0000000000000000E+00 
    0.0000000000000000E+00     5.9375000000147926E-01     0.0000000000000000E+00 
    0.0000000000000000E+00     5.6250000000168354E-01     0.0000000000000000E+00 
    0.0000000000000000E+00     5.3125000000188671E-01     0.0000000000000000E+00 
    0.0000000000000000E+00     5.0000000000205835E-01     0.0000000000000000E+00 
    0.0000000000000000E+00     4.6875000000192979E-01     0.0000000000000000E+00 
    0.0000000000000000E+00     4.3750000000180111E-01     0.0000000000000000E+00 
    0.0000000000000000E+00     4.0625000000167238E-01     0.0000000000000000E+00 
[...]
CELL_DATA 2795 
SCALARS Pressure double 1 
LOOKUP_TABLE default 

    5.4199383677802988E+00 
    1.2441757885992823E+01 
    8.8348277289859158E+00 
    8.4292803919591801E+00 
    6.6817824701679198E+00 
    1.2337383449994249E+01 
    1.2975522541837403E+01 
    4.8344364246328144E+00 
    9.3398182107116465E+00 
    7.1361508244983503E+00 
    6.0778105926252541E+00 
    1.2115994833270221E+01 
    1.2352848780632023E+01 
    1.2310361164047322E+01 
    8.1431141291395548E+00 
    4.7528887482930768E+00 
    7.7464090396245977E+00 
    6.4770527882401359E+00 
    1.1805101489603906E+01 
    8.8321686873341179E+00 
    8.7148302382996725E+00 
    1.2253950214714346E+01 
    8.1944415512256210E+00 
    3.1831072471259247E-01 
    1.2089924557580261E+01 
    1.2332404241238125E+01 
    1.3004065270925693E+01 
    5.8418878925939426E+00 
    1.2047427234152538E+01 
    1.3001622626967661E+01 
    8.8858497993338581E+00 
    9.0711217889844651E+00 
    6.3108670138283269E+00 
    8.7947205056256035E+00 
    2.8007741402868480E+00 
    7.7510698363703501E+00 
    8.7869337330721606E+00 
    1.3038197879045521E+01 
    1.2955736445915061E+01 
    1.2127103534994985E+01 
    6.6181595591631721E+00 
    1.2072086190081217E+01 
    6.6330523980896217E-01 
    8.6484083559746487E+00 
    1.2783607362958689E+01 
    1.2637249924277310E+01 
    1.2106778657059465E+01 
    9.6598063529177320E+00 
    1.2169177802244368E+01 
    7.9294701840996504E+00 
    7.5467383198770115E+00 
    9.0371019102772969E+00 
    8.5457860267491341E+00 
    7.7924809384815452E+00 
    8.9593376924340475E+00 
    1.1625147658500381E+01 
    1.0527116879865906E+01 
    6.7184332891011742E+00 
    1.2257414451907501E+01 
    1.2191152893259178E+01 
    8.4587632638060626E+00 
    8.4824599581226554E+00 
    8.3428257615181156E+00 
    1.2913545638570445E+01 
    1.3137135421586544E+01 
    7.7555372705280856E+00 
    9.0355523225228271E+00 
    1.2030406701615426E+01 
    1.0331431122552775E+01 
    8.5206349003767272E+00 
    1.3149437725773920E+01 
    1.2190172153343893E+01 
    7.6449963455438157E+00 
    1.2724964780358460E+01 
    9.2134045366770962E+00 
    1.1962552598940480E+01 
    1.3047367390606588E+01 
    9.1025996326211036E+00 
    5.5197492443336866E+00 
    9.0529947035308727E+00 
    1.2963103395911931E+01 
    1.3179502234798079E+01 
    7.7647172071801229E+00 
    8.9627092263120343E+00 
    1.3216834296372594E+01 
    8.7931628633992904E+00 
    8.2697241268987600E+00 
    1.0683141597369282E+01 
    5.2632554736855468E+00 
    7.5670656577544069E+00 
    8.9648962596242754E+00 
    9.4623300178644758E+00 
    1.4594534810311735E+01 
    6.4905529650847837E+00 
    9.0430172720243700E+00 
    1.2087843946912132E+01 
    1.2309553513747474E+01 
    5.7042228137905973E+00 
    8.6626030471054225E+00 
    8.9936319217404463E+00 
    1.2327987021822741E+01 
    9.0010238179930049E+00 
    1.2267261144086392E+01 
    3.4642937453129163E+00 
    5.9074057431818447E+00 
    9.2451171040008457E+00 
    1.2449897757470785E+01 
    7.7194168003664085E+00 
    8.2633308513620385E+00 
    8.9853500501754322E+00 
    8.2409234727447256E+00 
    1.0241264910860895E+01 
    8.0253567850755427E+00 
    7.6519896072273195E+00 
    5.9975033612936928E+00 
    1.0410040414143330E+01 
    9.0727030686987185E+00 
    1.2834707392694368E+01 
    7.7564046284598902E+00 
    8.4169245753701212E+00 
    1.2181135208807371E+01 
    6.9988085443090400E+00 
    1.2579837802737558E+01 
    8.8787091395946245E+00 
    8.3505498403262362E+00 
    1.2311693877014459E+01 
    9.0651551345033496E+00 
    1.3054537714004288E+01 
    1.0692288336096865E+01 
    1.1497416762964630E+01 
    1.3019201835869914E+01 
    6.5040666796100748E+00 
    9.2606469680850321E+00 
    1.2315950200812814E+01 
    2.6002292575290937E+00 
    8.9367504716264783E+00 
    1.2989102079352211E+01 
    8.3797752986237448E+00 
    9.6719643889981768E+00 
    5.6491666947458299E+00 
    1.2087285095287649E+01 
    1.5068039370658347E+01 
    1.1090878299472575E+01 
    8.3751316180999442E+00 
    7.4789886967262413E+00 
    9.6072513022338679E+00 
    8.8959029670045471E+00 
    6.1436204693114416E+00 
    1.3015339078226269E+01 
    1.2404152809232677E+01 
    1.2089371442526282E+01 
    9.4788961811750667E+00 
    7.6189140903124288E+00 
    8.7139971285662927E+00 
    1.2749473010311057E+01 
    7.8409016360180877E+00 
    8.7858233620749111E+00 
    7.9861340436431787E+00 
    1.0188833258326646E+01 
    1.5056679520888794E+01 
    1.2081882033040710E+01 
    7.5822471927531865E+00 
    1.2482966343964085E+01 
    1.2412941195313120E+01 
    1.2485050574072313E+01 
    1.3400935248601257E+01 
    1.3907969685153553E+01 
    1.2634018822421270E+01 
    9.0276794111218663E+00 
    9.5584250753995885E+00 
    1.2481848484145726E+01 
    1.2843507486035133E+01 
    6.4158977306298306E+00 
    1.2106363702367203E+01 
    1.2715685613661757E+01 
    6.2453169028746460E+00 
    1.3318239861359764E+01 
    1.3309080626160430E+01 
    1.1865324947177196E+01 
    9.3161601387022426E+00 
    2.2742199615164904E+00 
    1.2989319396588112E+01 
    9.1901700193877396E+00 
    1.3101092187197729E+01 
    8.3188825207842356E+00 
    1.2838787102907508E+01 
    8.0913920696823038E-01 
    1.1514348892553713E+01 
    8.5224114177863246E+00 
    7.5836642872980384E+00 
    7.3875598561642386E+00 
    8.8481146410052656E+00 
    9.9234731884833209E+00 
    9.1269662803837921E+00 
    6.0873972159857139E+00 
    1.2840105478088375E+01 
    1.2338845642736020E+01 
    1.0440156506349176E+01 
    9.2373230450629631E+00 
    1.3318544065244025E+00 
    6.8089327484069626E+00 
    4.6957094444186973E+00 
    1.3012466560666725E+01 
    1.0016364766073583E+01 
    1.2392483273249523E+01 
    1.2397465546881630E+01 
    7.9126125420396880E+00 
    1.0450733351248235E+01 
    1.2085264726057474E+01 
    1.3292121708788020E+01 
    5.6305558995319815E+00 
    1.0898069930744859E+01 
    9.1592612506733815E+00 
    5.0076587441345604E+00 
    7.9037309142725345E+00 
    1.0894863556367742E+01 
    1.2363766349146141E+01 
    8.9084665326274930E+00 
    1.2464111046998605E+01 
    1.2251960195148358E+01 
    1.2207259442853037E+01 
    8.7216243208989059E+00 
    7.5379873795417822E+00 
    1.2096508881032952E+01 
    7.6399208230073246E+00 
    9.0040079417257939E+00 
    7.4870723272579029E+00 
    8.7351809794640438E+00 
    1.2404886040754901E+01 
    5.5518697491385423E+00 
    7.8236223011818380E+00 
    1.2931919944101757E+01 
    8.7372947622025823E+00 
    9.9114806479993334E+00 
    5.6977476549915043E+00 
    7.6964473195225303E+00 
    1.2232307161986624E+01 
    1.2514640597593708E+01 
    4.6352531299430568E+00 
    8.7394809820679313E+00 
    7.5227854192256434E+00 
    1.3686243005461199E+01 
    1.3186188504862464E+01 
    1.3932441486665653E+01 
    8.7623236701121829E+00 
    1.2381910347792932E+01 
    1.2048494757397725E+01 
    8.6393410940944548E+00 
    1.2089550819580943E+01 
    9.2368537694330488E+00 
    5.0728551763807177E+00 
    8.9308393368657502E+00 
    1.2921314954479978E+01 
    1.2086750812717900E+01 
    6.0466990925231388E+00 
    1.2112421315039859E+01 
    9.9157557722637506E+00 
    8.9195379200787581E+00 
    8.4563392736423779E+00 
    1.1971626111641042E+01 
    9.4351536060876775E+00 
    1.2100956858140039E+01 
    8.5977496969248968E+00 
    5.2627068196166178E+00 
    9.0694804703300367E+00 
    7.3959709253727164E+00 
    1.1091286739710350E+01 
    1.3098378565263733E+01 
    1.2095660436333626E+01 
    1.2982933823151454E+01 
    8.6852726011559209E+00 
    5.8854041557185193E+00 
    5.9702522918381637E+00 
    9.1181020946983189E+00 
    8.9816470903699344E+00 
    1.2562312236466604E+00 
    1.1670121551496093E+01 
    1.3423852842985800E+01 
    8.3279788707382281E+00 
    5.2874048367176290E+00 
    1.0144299389875698E+01 
    1.2111148034236349E+01 
    6.2884442555966817E+00 
    4.2530685743717713E+00 
    8.9533171200584416E+00 
    1.2196988977289417E+01 
    1.2753670897104124E+01 
    1.2651214505951863E+01 
    1.2518889616184490E+01 
    6.1309138236523246E+00 
    8.9098262817021983E+00 
    1.1671783189975340E+01 
    7.0074192104691306E+00 
    1.2341316698858998E+01 
    1.0646751549101319E+01 
    6.0631924301023163E+00 
    1.2206294025016140E+01 
    1.3007154194998655E+01 
    1.2196019914500164E+01 
    6.0530478228575832E+00 
    9.0317035486512030E+00 
    6.6587972542508513E+00 
    8.5074884018968078E+00 
    1.2103739894075042E+01 
    1.2093494138359366E+01 
    6.0887590232289304E+00 
    1.2874708452805203E+01 
    9.5183190738006864E+00 
    1.2130829544060663E+01 
    1.2848068808263298E+01 
    1.2115090802474485E+01 
    1.1302747151084189E+01 
    1.3734683644832948E+01 
    8.2978656092560801E+00 
    1.2955749663760759E+01 
    1.2154683333737998E+01 
    1.3020944623030504E+01 
    1.2868786449016296E+01 
    8.3875717979416837E+00 
    8.8298401994253819E+00 
    8.3187099700938685E+00 
    1.0880980957242169E+01 
    3.4740922013019762E+00 
    9.0436820942821186E+00 
    1.3855007807276227E+01 
    9.2414825757929489E+00 
    9.4086091880116243E+00 
    1.2996305958802969E+01 
    1.3210387687640255E+01 
    8.2641909987132447E+00 
    1.2116164042530750E+01 
    1.2090437524731191E+01 
    9.3976489607942053E+00 
    1.2828565170459740E+01 
    6.3717431990160565E+00 
    4.0280477602323934E+00 
    9.6488342949617874E+00 
    9.2539899505148284E+00 
    1.2095389320835968E+01 
    5.6885955752357651E+00 
    1.2577206364569623E+01 
    4.1008392276749923E+00 
    9.1949031859254831E+00 
    8.4544838047708666E+00 
    9.0087748248876700E+00 
    1.5107296726308869E+01 
    3.3778038198534799E+00 
    8.9553842383763094E+00 
    1.0586957427727516E+01 
    8.5976771597813606E+00 
    6.7078762502407203E+00 
    1.2683295193587684E+01 
    1.4678310394120953E+01 
    1.2811591588296979E+01 
    8.8978614641468763E+00 
    4.9821681818821979E+00 
    1.4539155856827028E+01 
    1.2327450759242488E+01 
    6.4336646480844744E+00 
    8.5038681064596382E+00 
    1.3386304809840025E+01 
    2.8720356091814119E+00 
    9.2992602355780623E+00 
    1.2779814065226978E+01 
    9.0220374561401453E+00 
    7.8340256058770867E+00 
    8.9988703833207939E+00 
    1.1859733835453429E+01 
    9.0019869374738573E+00 
    4.4384815810994045E+00 
    7.7913035013566712E-01 
    6.6748621873123231E+00 
    1.3584711158152665E+01 
    8.3180623610390629E+00 
    1.0183757144725092E+01 
    9.7506479872188905E+00 
    1.1121333206062712E+01 
    9.0354287579146213E+00 
    1.2245379726203238E+01 
    1.5121239481489585E+01 
    1.0601240557194446E+01 
    1.2931221156258241E+01 
    4.7221546958961946E-01 
    1.2095207988312401E+01 
    4.9146099995053785E+00 
    1.4016221000265608E+01 
    8.9693532409046490E+00 
    7.9387912425812468E+00 
    6.7935894305764748E+00 
    4.6569214850694083E+00 
    1.0037109539829132E+01 
    7.0709168817217023E+00 
    1.0998980458237881E+01 
    1.8981224658775282E+00 
    9.9410001009137243E+00 
    1.2037060587600605E+01 
    5.4118342200569725E+00 
    1.2521842055352240E+01 
    1.3831146408627394E+01 
    1.2388840204255574E+01 
    8.8396318405470584E+00 
    9.0036080527541973E+00 
    8.9619578657694099E+00 
    5.0513356555365849E+00 
    8.0823892012328962E+00 
    7.9442656710277095E+00 
    8.9507046066098219E+00 
    8.2588706501284026E+00 
    5.9495463091477063E-01 
    5.6377147577929092E+00 
    8.6061677130469789E+00 
    8.9265209015710560E+00 
    1.1296707622876935E+01 
    1.8924082738187706E+00 
    9.3617406153260063E+00 
    9.2588719288438330E+00 
    3.2471029585635756E+00 
    1.2276031696286783E+01 
    7.6581407894573630E+00 
    9.1304963469015270E+00 
    1.2322864848034278E+01 
    4.6765350911469419E+00 
    1.2375403541190929E+01 
    7.7596679353989764E+00 
    8.7159570480099180E-01 
    8.3738701454978894E+00 
    1.2887239803080751E+01 
    1.2095343901837861E+01 
    1.2113186725013628E+01 
    9.3359666527310292E+00 
    9.1982880169449448E+00 
    7.6394804167738206E+00 
    6.1219366779560342E+00 
    1.2419962515331436E+01 
    8.5027486180749410E+00 
    5.9812501277734684E+00 
    1.2107978669275424E+01 
    1.2714578595605243E+01 
    9.1371673419539903E+00 
    8.7882420950438771E+00 
    1.5004705340725364E+01 
    9.3983576126924344E+00 
    1.2439156398394429E+01 
    7.2514614452140682E+00 
    1.5149714641609645E+01 
    5.9351013188140493E+00 
    8.0288985099208698E+00 
    6.6608250735283399E+00 
    9.6016790731742052E+00 
    7.6294200652176913E+00 
    1.5133521774071735E+01 
    9.4407321176218115E+00 
    1.1807128198696525E+01 
    6.1072717632387921E+00 
    9.0320932090105615E+00 
    1.2297684271153551E+01 
    7.6546326783466849E+00 
    6.3656687646926633E+00 
    9.8456579941328464E+00 
    1.2512691924260215E+01 
    6.5559731149259219E+00 
    8.4721684150189169E+00 
    8.8135559709482489E+00 
    1.2073785074142988E+01 
    8.6212918057674859E+00 
    1.2483717939232916E+01 
    1.3047454737534579E+01 
    7.6631915753921609E+00 
    7.5062451141623212E+00 
    7.1142829553043176E+00 
    1.2196839192815922E+01 
    9.2568100945760321E+00 
    1.4716734406350868E+01 
    1.1508362327008390E+01 
    1.2259991735962704E+01 
    1.4418008871250555E+01 
    1.3839003672166271E+01 
    9.0778536077781329E+00 
    8.9359480927723833E+00 
    1.1893625277111617E+01 
    1.2128140114898832E+01 
    1.2576038738413599E+01 
    1.2345285483135571E+01 
    1.5023265512384581E+01 
    9.3979583146840078E+00 
    7.7534930105579596E+00 
    9.3673798236144830E+00 
    1.2968654180746864E+01 
    9.1670734935000251E+00 
    5.2796090531104953E+00 
    8.8242136162580227E+00 
    1.3354102254199876E+01 
    9.2908929533960194E+00 
    7.7625627180083736E+00 
    8.7508421980637241E+00 
    1.3457535126007365E+01 
    1.2122699256881836E+01 
    7.3576706665409004E+00 
    1.3585327341742152E+01 
    9.1051040404481558E+00 
    1.2577152847437377E+01 
    1.3469830819882077E+01 
    9.4470206269264310E+00 
    4.6786627116313433E+00 
    9.8152927533773600E+00 
    4.8418038455507135E+00 
    9.2122299397035938E+00 
    9.0220364226383367E+00 
    1.0327035099641558E+01 
    5.1207069313987983E+00 
    1.0960437304025419E+01 
    9.0441048733400855E+00 
    1.2336781018589484E+01 
    9.4171873566340789E+00 
    7.1795609440929642E+00 
    8.6348739436929876E+00 
    9.4773550737009700E+00 
    9.4915113150420591E+00 
    1.3087607461963135E+01 
    7.4000480020416424E+00 
    7.2707690640334128E+00 
    5.3896503541291860E+00 
    1.2599391267669192E+01 
    8.6702796300263216E+00 
    1.1938748091931407E+01 
    8.9927781620751386E+00 
    5.9046407535170546E+00 
    1.2146928295639857E+01 
    8.9661937958958351E+00 
    6.4513921082694674E+00 
    6.8449766166445070E+00 
    7.0936663329405061E+00 
    1.2363184711950003E+01 
    8.9526723367039267E+00 
    1.2940978384691682E+01 
    8.9214539910040269E+00 
    8.8539706526520323E+00 
    8.3927892905602679E+00 
    1.2220139395977798E+01 
    8.7630474777707672E+00 
    7.1308756555064470E+00 
    1.3826895428424844E+01 
    1.2291223335667137E+01 
    6.2228225920256355E+00 
    2.3866255305559343E+00 
    8.9418135599458761E+00 
    8.3942164639616728E+00 
    7.5001126696269358E+00 
    8.2091933092569978E+00 
    1.2272810654404942E+01 
    8.6624630967744576E+00 
    7.8079731360475177E+00 
    1.2147136073696569E+01 
    6.1654093713521592E+00 
    1.1858620841158233E+01 
    8.1122215098464032E+00 
    7.0673748501684299E+00 
    7.5738174121618540E+00 
    1.2654340617713501E+01 
    9.0117549745098842E+00 
    9.0198853968769956E+00 
    5.1994439583618339E+00 
    5.6288900923724601E+00 
    1.1251602726973054E+01 
    9.0297032685015832E+00 
    8.9864722768708809E+00 
    1.3570854717607521E+01 
    7.2731427310813768E+00 
    9.0415951654883884E+00 
    6.3771770508572203E+00 
    6.5785864661721334E+00 
    1.2212062826953924E+01 
    8.6516217632148198E+00 
    6.2178256826955378E+00 
    9.4802101802206060E+00 
    8.8950947594359508E+00 
    1.2215592749976766E+01 
    1.3658627931961181E+01 
    9.1894023875900221E-01 
    8.9466545387269782E+00 
    9.2526508970414891E+00 
    1.2273832311764549E+01 
    8.4432392461199690E+00 
    8.9854743162804240E+00 
    1.3133764150614242E+01 
    7.6058066219865639E+00 
    6.2742536389535868E+00 
    1.0874254128658752E+01 
    1.2107269970946218E+01 
    1.3020332363965185E+01 
    1.3271186268944458E+01 
    8.7927868500778246E+00 
    8.9387760471410935E+00 
    1.0098558006533228E+01 
    5.9084806558757572E+00 
    1.2218728965335501E+01 
    6.7701741831877742E+00 
    6.1570095476404747E+00 
    1.1235260872441625E+01 
    1.0574454297719186E+01 
    6.0366700675674840E+00 
    1.2138515128741442E+01 
    1.3007194415790682E+01 
    9.4119079184423882E+00 
    1.3754355097892372E+01 
    1.2166884878253290E+01 
    8.5233586525952880E+00 
    1.2768923475334818E+01 
    6.5847803513559571E+00 
    1.2123272416382481E+01 
    8.9458199554234401E+00 
    8.9057228713388703E+00 
    1.3729658864732365E+01 
    8.7003346357737978E+00 
    1.0977551880045198E+01 
    7.5597944769189782E+00 
    1.3115317937072204E+01 
    1.2042221097379002E+01 
    7.8951978176200059E+00 
    1.2086724474736313E+01 
    8.1252419260800455E+00 
    8.9951555777064645E+00 
    1.2970583125164239E+01 
    1.2338098438874409E+01 
    1.3010230459871247E+01 
    1.2276527933868733E+01 
    8.0879908863884893E+00 
    8.2976354553991669E+00 
    1.3016251590687066E+01 
    8.4133250655638392E+00 
    1.1984230736630149E+01 
    8.6911680623727641E+00 
    3.5043160857528219E+00 
    6.2231428669031006E+00 
    5.7563961064488858E+00 
    1.2973639360237392E+01 
    1.3664015428288264E+01 
    1.2102606124843996E+01 
    1.0438888671377031E+01 
    1.2352616854056082E+01 
    1.2144933068069632E+01 
    1.2661453238209495E+01 
    5.0184996604798835E+00 
    3.2678966973863712E+00 
    1.0246276821630483E+01 
    8.5941796689997414E+00 
    1.2274224709282441E+01 
    1.2272008143263998E+01 
    9.2683402284537841E+00 
    1.2304636948270492E+01 
    8.9332851263093769E+00 
    8.8198705696433954E+00 
    4.5276543950852073E+00 
    3.2546263208834865E+00 
    1.3454972607369486E+01 
    6.9917175268450258E+00 
    7.8409575793836312E+00 
    9.1762644116303047E+00 
    1.5005637020944246E+01 
    9.2609954071770062E+00 
    9.1931614957100294E+00 
    3.7021480429395286E+00 
    9.2615448460713026E+00 
    9.2736948045878531E+00 
    1.2549728704031867E+01 
    7.5774619700830614E+00 
    8.5672972705656498E+00 
    1.3612108149255267E+01 
    8.9556382125697542E+00 
    1.2116388157659920E+01 
    1.2339200628836720E+01 
    1.1105266652858347E+01 
    7.5917725658812314E+00 
    1.2275810784800612E+01 
    8.7454299745997552E+00 
    1.2287614143592334E+01 
    1.2061849469186269E+01 
    1.2991028995984356E+01 
    1.2275381172152038E+01 
    1.1554269941652002E+01 
    8.9440266461057369E+00 
    5.9893065318002554E+00 
    1.4881781428284603E+01 
    6.9098255118580623E+00 
    1.2929953192162589E+01 
    8.9414013703304356E+00 
    7.3091111624879828E+00 
    4.3833341944800139E+00 
    9.3044078470325733E+00 
    1.2264501131218129E+01 
    1.2260272722089923E+01 
    8.9754619226725509E+00 
    8.9355010258477172E+00 
    1.3808065852896489E+01 
    1.3218012815067521E+01 
    9.2777494711613233E+00 
    3.0415883962878758E+00 
    1.1527074797019184E+01 
    1.5131679984044760E+01 
    8.9474126678019008E+00 
    1.0763562652802392E+01 
    8.4387690745692332E+00 
    1.4743526939344086E+01 
    1.3290627279187515E+01 
    1.3042016192291948E+01 
    9.2975468695007404E+00 
    4.0828706701701396E+00 
    8.3987992561414710E+00 
    8.4647018429194638E+00 
    8.5120157083865262E+00 
    3.3080504599939857E+00 