# vtk DataFile Version 2.0
Pressure Field Data 
ASCII 
DATASET UNSTRUCTURED_GRID 

POINTS 2860 double 

    0.0000000000000000E+00     0.0000000000000000E+00     0.0000000000000000E+00 
    1.0000000000000000E+00     0.0000000000000000E+00     0.0000000000000000E+00 
    1.0000000000000000E+00     1.0000000000000000E+00     0.0000000000000000E+00 
    0.0000000000000000E+00     1.0000000000000000E+00     0.0000000000000000E+00 
    2.5000000000000000E-01     2.5000000000000000E-01     0.0000000000000000E+00 
    7.5000000000000000E-01     2.5000000000000000E-01     0.0000000000000000E+00 
    7.5000000000000000E-01     7.5000000000000000E-01     0.0000000000000000E+00 
    2.5000000000000000E-01     7.5000000000000000E-01     0.0000000000000000E+00 
    3.1249999999942091E-02     0.0000000000000000E+00     0.0000000000000000E+00 
    6.2499999999873469E-02     0.0000000000000000E+00     0.0000000000000000E+00 
    9.3749999999826514E-02     0.0000000000000000E+00     0.0000000000000000E+00 
    1.2499999999977961E-01     0.0000000000000000E+00     0.0000000000000000E+00 
    1.5624999999968961E-01     0.0000000000000000E+00     0.0000000000000000E+00 
    1.8749999999959971E-01     0.0000000000000000E+00     0.0000000000000000E+00 
    2.1874999999950970E-01     0.0000000000000000E+00     0.0000000000000000E+00 
    2.4999999999941969E-01     0.0000000000000000E+00     0.0000000000000000E+00 
    2.8124999999932920E-01     0.0000000000000000E+00     0.0000000000000000E+00 
    3.1249999999923850E-01     0.0000000000000000E+00     0.0000000000000000E+00 
    3.4374999999914790E-01     0.0000000000000000E+00     0.0000000000000000E+00 
    3.7499999999905720E-01     0.0000000000000000E+00     0.0000000000000000E+00 
    4.0624999999896660E-01     0.0000000000000000E+00     0.0000000000000000E+00 
    4.3749999999887590E-01     0.0000000000000000E+00     0.0000000000000000E+00 
    4.6874999999878530E-01     0.0000000000000000E+00     0.0000000000000000E+00 
    4.9999999999869471E-01     0.0000000000000000E+00     0.0000000000000000E+00 
    5.3124999999877620E-01     0.0000000000000000E+00     0.0000000000000000E+00 
    5.6249999999885780E-01     0.0000000000000000E+00     0.0000000000000000E+00 
    5.9374999999893940E-01     0.0000000000000000E+00     0.0000000000000000E+00 
    6.2499999999902101E-01     0.0000000000000000E+00     0.0000000000000000E+00 
    6.5624999999910261E-01     0.0000000000000000E+00     0.0000000000000000E+00 
    6.8749999999918421E-01     0.0000000000000000E+00     0.0000000000000000E+00 
    7.1874999999926570E-01     0.0000000000000000E+00     0.0000000000000000E+00 
    7.4999999999934730E-01     0.0000000000000000E+00     0.0000000000000000E+00 
    7.8124999999942890E-01     0.0000000000000000E+00     0.0000000000000000E+00 
    8.1249999999951039E-01     0.0000000000000000E+00     0.0000000000000000E+00 
    8.4374999999959199E-01     0.0000000000000000E+00     0.0000000000000000E+00 
    8.7499999999967359E-01     0.0000000000000000E+00     0.0000000000000000E+00 
    9.0624999999975520E-01     0.0000000000000000E+00     0.0000000000000000E+00 
    9.3749999999983680E-01     0.0000000000000000E+00     0.0000000000000000E+00 
    9.6874999999991840E-01     0.0000000000000000E+00     0.0000000000000000E+00 
    1.0000000000000000E+00     3.1249999999942091E-02     0.0000000000000000E+00 
    1.0000000000000000E+00     6.2499999999873469E-02     0.0000000000000000E+00 
    1.0000000000000000E+00     9.3749999999826514E-02     0.0000000000000000E+00 
    1.0000000000000000E+00     1.2499999999977961E-01     0.0000000000000000E+00 
    1.0000000000000000E+00     1.5624999999968961E-01     0.0000000000000000E+00 
    1.0000000000000000E+00     1.8749999999959971E-01     0.0000000000000000E+00 
    1.0000000000000000E+00     2.1874999999950970E-01     0.0000000000000000E+00 
    1.0000000000000000E+00     2.4999999999941969E-01     0.0000000000000000E+00 
    1.0000000000000000E+00     2.8124999999932920E-01     0.0000000000000000E+00 
    1.0000000000000000E+00     3.1249999999923850E-01     0.0000000000000000E+00 
    1.0000000000000000E+00     3.4374999999914790E-01     0.0000000000000000E+00 
    1.0000000000000000E+00     3.7499999999905720E-01     0.0000000000000000E+00 
    1.0000000000000000E+00     4.0624999999896660E-01     0.0000000000000000E+00 
    1.0000000000000000E+00     4.3749999999887590E-01     0.0000000000000000E+00 
    1.0000000000000000E+00     4.6874999999878530E-01     0.0000000000000000E+00 
    1.0000000000000000E+00     4.9999999999869471E-01     0.0000000000000000E+00 
    1.0000000000000000E+00     5.3124999999877620E-01     0.0000000000000000E+00 
    1.0000000000000000E+00     5.6249999999885780E-01     0.0000000000000000E+00 
    1.0000000000000000E+00     5.9374999999893940E-01     0.0000000000000000E+00 
    1.0000000000000000E+00     6.2499999999902101E-01     0.0000000000000000E+00 
    1.0000000000000000E+00     6.5624999999910261E-01     0.0000000000000000E+00 
    1.0000000000000000E+00     6.8749999999918421E-01     0.0000000000000000E+00 
    1.0000000000000000E+00     7.1874999999926570E-01     0.0000000000000000E+00 
    1.0000000000000000E+00     7.4999999999934730E-01     0.0000000000000000E+00 
    1.0000000000000000E+00     7.8124999999942890E-01     0.0000000000000000E+00 
    1.0000000000000000E+00     8.1249999999951039E-01     0.0000000000000000E+00 
    1.0000000000000000E+00     8.4374999999959199E-01     0.0000000000000000E+00 
    1.0000000000000000E+00     8.7499999999967359E-01     0.0000000000000000E+00 
    1.0000000000000000E+00     9.0624999999975520E-01     0.0000000000000000E+00 
    1.0000000000000000E+00     9.3749999999983680E-01     0.0000000000000000E+00 
    1.0000000000000000E+00     9.6874999999991840E-01     0.0000000000000000E+00 
    9.6875000000003686E-01     1.0000000000000000E+00     0.0000000000000000E+00 
    9.3750000000011691E-01     1.0000000000000000E+00     0.0000000000000000E+00 
    9.0625000000015765E-01     1.0000000000000000E+00     0.0000000000000000E+00 
    8.7500000000017863E-01     1.0000000000000000E+00     0.0000000000000000E+00 
    8.4375000000028044E-01     1.0000000000000000E+00     0.0000000000000000E+00 
    8.1250000000040856E-01     1.0000000000000000E+00     0.0000000000000000E+00 
    7.8125000000054956E-01     1.0000000000000000E+00     0.0000000000000000E+00 
    7.5000000000066480E-01     1.0000000000000000E+00     0.0000000000000000E+00 
    7.1875000000086831E-01     1.0000000000000000E+00     0.0000000000000000E+00 
    6.8750000000102829E-01     1.0000000000000000E+00     0.0000000000000000E+00 
    6.5625000000114431E-01     1.0000000000000000E+00     0.0000000000000000E+00 
    6.2500000000129829E-01     1.0000000000000000E+00     0.0000000000000000E+00 
    5.9375000000147926E-01     1.0000000000000000E+00     0.0000000000000000E+00 
    5.6250000000168354E-01     1.0000000000000000E+00     0.0000000000000000E+00 
    5.3125000000188671E-01     1.0000000000000000E+00     0.0000000000000000E+00 
    5.0000000000205835E-01     1.0000000000000000E+00     0.0000000000000000E+00 
    4.6875000000192979E-01     1.0000000000000000E+00     0.0000000000000000E+00 
    4.3750000000180111E-01     1.0000000000000000E+00     0.0000000000000000E+00 
    4.0625000000167238E-01     1.0000000000000000E+00     0.0000000000000000E+00 
    3.7500000000154382E-01     1.0000000000000000E+00     0.0000000000000000E+00 
    3.4375000000141509E-01     1.0000000000000000E+00     0.0000000000000000E+00 
    3.1250000000128642E-01     1.0000000000000000E+00     0.0000000000000000E+00 
    2.8125000000115769E-01     1.0000000000000000E+00     0.0000000000000000E+00 
    2.5000000000102918E-01     1.0000000000000000E+00     0.0000000000000000E+00 
    2.1875000000090050E-01     1.0000000000000000E+00     0.0000000000000000E+00 
    1.8750000000077180E-01     1.0000000000000000E+00     0.0000000000000000E+00 
    1.5625000000064329E-01     1.0000000000000000E+00     0.0000000000000000E+00 
    1.2500000000051459E-01     1.0000000000000000E+00     0.0000000000000000E+00 
    9.3750000000385914E-02     1.0000000000000000E+00     0.0000000000000000E+00 
    6.2500000000257239E-02     1.0000000000000000E+00     0.0000000000000000E+00 
    3.1250000000128557E-02     1.0000000000000000E+00     0.0000000000000000E+00 
    0.0000000000000000E+00     9.6875000000003686E-01     0.0000000000000000E+00 
    0.0000000000000000E+00     9.3750000000011691E-01     0.0000000000000000E+00 
    0.0000000000000000E+00     9.0625000000015765E-01     0.0000000000000000E+00 
    0.0000000000000000E+00     8.7500000000017863E-01     0.0000000000000000E+00 
    0.0000000000000000E+00     8.4375000000028044E-01     0.0000000000000000E+00 
    0.0000000000000000E+00     8.1250000000040856E-01     0.0000000000000000E+00 
    0.0000000000000000E+00     7.8125000000054956E-01     0.0000000000000000E+00 
    0.0000000000000000E+00     7.5000000000066480E-01     0.0000000000000000E+00 
    0.0000000000000000E+00     7.1875000000086831E-01     0.0000000000000000E+00 
    0.0000000000000000E+00     6.8750000000102829E-01     0.0000000000000000E+00 
    0.0000000000000000E+00     6.5625000000114431E-01     0.0000000000000000E+00 
    0.0000000000000000E+00     6.2500000000129829E-01     0.0000000000000000E+00 
    0.0000000000000000E+00     5.9375000000147926E-01     0.0000000000000000E+00 
    0.0000000000000000E+00     5.6250000000168354E-01     0.0000000000000000E+00 
    0.0000000000000000E+00     5.3125000000188671E-01     0.0000000000000000E+00 
    0.0000000000000000E+00     5.0000000000205835E-01     0.0000000000000000E+00 
    0.0000000000000000E+00     4.6875000000192979E-01     0.0000000000000000E+00 
    0.0000000000000000E+00     4.3750000000180111E-01     0.0000000000000000E+00 
    0.0000000000000000E+00     4.0625000000167238E-01     0.0000000000000000E+00 
[...]
CELL_DATA 2795 
SCALARS Pressure double 1 
LOOKUP_TABLE default 

    7.2262934118251669E+00 
    1.6338287940971586E+01 
    1.1468876032435356E+01 
    1.1118120268654057E+01 
    8.8633664090197648E+00 
    1.6185744212775042E+01 
    1.6989933201397239E+01 
    6.4616205123363502E+00 
    1.2020299556843417E+01 
    9.2432787521781652E+00 
    7.8851028327203494E+00 
    1.5898388553770261E+01 
    1.6242284675832252E+01 
    1.6151021170966732E+01 
    1.0579431308780196E+01 
    6.3550939421390824E+00 
    1.0237348043810352E+01 
    8.3955253842285540E+00 
    1.5487955389863950E+01 
    1.1451662852427694E+01 
    1.1348326287479606E+01 
    1.6077260900951455E+01 
    1.0817724901075776E+01 
    4.2168772136575722E-01 
    1.5890893691201768E+01 
    1.6203529393639474E+01 
    1.7023707432722514E+01 
    7.5986369993036780E+00 
    1.5809055863878150E+01 
    1.7014116946742590E+01 
    1.1585146298351816E+01 
    1.1656988345129140E+01 
    8.2598224916187775E+00 
    1.1432054799830716E+01 
    3.7132750004519157E+00 
    1.0242616013910448E+01 
    1.1418328625361202E+01 
    1.7056621441043195E+01 
    1.6964590074040746E+01 
    1.5912600821398394E+01 
    8.8352727514171452E+00 
    1.5878902093396237E+01 
    8.7619249868599747E-01 
    1.1386585222995514E+01 
    1.6767741452502602E+01 
    1.6543466166271081E+01 
    1.5886476179074325E+01 
    1.2470130781479968E+01 
    1.5953508953727537E+01 
    1.0471426792512876E+01 
    9.9811396875508596E+00 
    1.1621363736066904E+01 
    1.1274708083834897E+01 
    1.0300885675530660E+01 
    1.1657650031783138E+01 
    1.5250203120683961E+01 
    1.3489701368893124E+01 
    8.9107408520807425E+00 
    1.6083090336052500E+01 
    1.5994732338987340E+01 
    1.1088749244675125E+01 
    1.1035651008550651E+01 
    1.1008849450231965E+01 
    1.6907908042576040E+01 
    1.7187973379640329E+01 
    1.0251196628398715E+01 
    1.1619911997837210E+01 
    1.5719717529749122E+01 
    1.3450436808805394E+01 
    1.1089370824647185E+01 
    1.7194232382546506E+01 
    1.6031103013754386E+01 
    1.0106855516302373E+01 
    1.6666448458466373E+01 
    1.1905522081705758E+01 
    1.5731466617834442E+01 
    1.7068536004742185E+01 
    1.1998601869566574E+01 
    7.3787694317668286E+00 
    1.1638063782074321E+01 
    1.6974676018727866E+01 
    1.7223665968574220E+01 
    1.0265504776398512E+01 
    1.1563123865654301E+01 
    1.7274432716853987E+01 
    1.1417861861438510E+01 
    1.0914803276053123E+01 
    1.3937719334889827E+01 
    7.0497588265858102E+00 
    1.0006619797064511E+01 
    1.1560697070603100E+01 
    1.2178193071471181E+01 
    1.8823773172494430E+01 
    8.6166144988238766E+00 
    1.1627763213146407E+01 
    1.5861714968571997E+01 
    1.6186926757650458E+01 
    7.6050578875605552E+00 
    1.1280767953045949E+01 
    1.1593813231654334E+01 
    1.6210672684214252E+01 
    1.1586108614951842E+01 
    1.6132180564819404E+01 
    4.6132686768991986E+00 
    7.6677486498289262E+00 
    1.1845184346074781E+01 
    1.6346609961895982E+01 
    1.0203552237663317E+01 
    1.0841360838233680E+01 
    1.1565464534959963E+01 
    1.0876544464206827E+01 
    1.3068911146852811E+01 
    1.0553299053602764E+01 
    1.0116700250863667E+01 
    8.0876957054969036E+00 
    1.3722353823784395E+01 
    1.1661842154608374E+01 
    1.6811742553693342E+01 
    1.0026982952427376E+01 
    1.1095954747304646E+01 
    1.6019215353258215E+01 
    9.2979156825053533E+00 
    1.6513610932288039E+01 
    1.1490972566047441E+01 
    1.1018591359064127E+01 
    1.6189821334106693E+01 
    1.1650393381528941E+01 
    1.7083148185989121E+01 
    1.3962234974289480E+01 
    1.5071195097866958E+01 
    1.7041826622902960E+01 
    8.6336984935058041E+00 
    1.1868414684037406E+01 
    1.6188281705330841E+01 
    3.4449013090653891E+00 
    1.1634952085294239E+01 
    1.7005287558551032E+01 
    1.1049500349674272E+01 
    1.2753928262965543E+01 
    7.6001936376788457E+00 
    1.5858807651614422E+01 
    1.9334241284411831E+01 
    1.4503084646916173E+01 
    1.1050048139464209E+01 
    9.8944027122556264E+00 
    1.2334820114890999E+01 
    1.1507840393865758E+01 
    7.9697430683562800E+00 
    1.7037360487541797E+01 
    1.6220567564127663E+01 
    1.5863560123428316E+01 
    1.2189101974120472E+01 
    1.0078396103511256E+01 
    1.1345131555069861E+01 
    1.6701354544927405E+01 
    1.0361016116257504E+01 
    1.1573648320160524E+01 
    1.0547845560281795E+01 
    1.3425566502194775E+01 
    1.9321961998213965E+01 
    1.5854209750289860E+01 
    1.0090555745934624E+01 
    1.6404155743896201E+01 
    1.6302194620081529E+01 
    1.6389726717552161E+01 
    1.7487066516716396E+01 
    1.8064817903028274E+01 
    1.6537831307468359E+01 
    1.1611660593570976E+01 
    1.2579043226624902E+01 
    1.6354293221850249E+01 
    1.6825280876555439E+01 
    8.3208196490669319E+00 
    1.5886022959622489E+01 
    1.6661245792293318E+01 
    8.0973930133756440E+00 
    1.7406353118263841E+01 
    1.7378073273133932E+01 
    1.5565970919138016E+01 
    1.1947919219025403E+01 
    3.0255641597537686E+00 
    1.7006342550091865E+01 
    1.1785150210146359E+01 
    1.7135493188533228E+01 
    1.0971172334079379E+01 
    1.6820613247620905E+01 
    1.0822889426682720E+00 
    1.5081919428970650E+01 
    1.1083608578347928E+01 
    1.0027186437937489E+01 
    9.7758117268567482E+00 
    1.1459602749548203E+01 
    1.2660545950347240E+01 
    1.2041762699157177E+01 
    8.1907959194801645E+00 
    1.6818963257071044E+01 
    1.6213783723823212E+01 
    1.3572716340690958E+01 
    1.1837573177399806E+01 
    1.7514643084359658E+00 
    9.0271988178880420E+00 
    6.2907099458068521E+00 
    1.7024920766410631E+01 
    1.2833659522430963E+01 
    1.6247511788753012E+01 
    1.6287410978825122E+01 
    1.0447957518992839E+01 
    1.3411456592119807E+01 
    1.5858231410171443E+01 
    1.7359405541872349E+01 
    7.5657320542239379E+00 
    1.4355150943617527E+01 
    1.2032748042228670E+01 
    6.7042555160523660E+00 
    1.0440554616574225E+01 
    1.4071454430218571E+01 
    1.6244948327419785E+01 
    1.1511156486377496E+01 
    1.6365969952652225E+01 
    1.6108562990715420E+01 
    1.6051656739884564E+01 
    1.1350059857331129E+01 
    9.9498620395957591E+00 
    1.5872177832940642E+01 
    1.0102111830974206E+01 
    1.1593714550247798E+01 
    9.9036424691701725E+00 
    1.1522307577205845E+01 
    1.6297602809269311E+01 
    7.2134206663326257E+00 
    1.0336752638741910E+01 
    1.6933810186958482E+01 
    1.1359432008911087E+01 
    1.2730163485336595E+01 
    7.4000050378113764E+00 
    1.0172831342558066E+01 
    1.6084300912244863E+01 
    1.6426925554622823E+01 
    6.0426724450450866E+00 
    1.1370046746179975E+01 
    9.9678283994343531E+00 
    1.7816316380120561E+01 
    1.7232696172317883E+01 
    1.8095108993550895E+01 
    1.1389979195296727E+01 
    1.6267699137497640E+01 
    1.5807615226957710E+01 
    1.1249514607535495E+01 
    1.5864067310023861E+01 
    1.1838992991349237E+01 
    6.7859225767540048E+00 
    1.1711718668961085E+01 
    1.6916455258762625E+01 
    1.5860498651367086E+01 
    7.8495563606666749E+00 
    1.5893931594027810E+01 
    1.2686055434880855E+01 
    1.1612969943835520E+01 
    1.1129557517920738E+01 
    1.5709469006750421E+01 
    1.2167785197373203E+01 
    1.5878343400196561E+01 
    1.1313210344764048E+01 
    7.0132643265151060E+00 
    1.1670707800715190E+01 
    9.7894051941016844E+00 
    1.4517018622364414E+01 
    1.7136109744053250E+01 
    1.5870118058363921E+01 
    1.6998480805985629E+01 
    1.1302238649589045E+01 
    7.6405840773907254E+00 
    7.7480507376577785E+00 
    1.1812149657358768E+01 
    1.1566664124989005E+01 
    1.6822048898244237E+00 
    1.5300762591050072E+01 
    1.7519660035518879E+01 
    1.0987735328949354E+01 
    7.0879250237683511E+00 
    1.3363967422557018E+01 
    1.5892086292916964E+01 
    8.3602154448252293E+00 
    5.6835026771697468E+00 
    1.1549228223116399E+01 
    1.5973217626178743E+01 
    1.6714398939233881E+01 
    1.6583063778682774E+01 
    1.6430089131713110E+01 
    8.2246531581795850E+00 
    1.1607781033063608E+01 
    1.5362500987191625E+01 
    9.0729958291163531E+00 
    1.6227692414464183E+01 
    1.3667214902623639E+01 
    7.8646837932286191E+00 
    1.6003949751237432E+01 
    1.7039931728912638E+01 
    1.6034301761372511E+01 
    8.0492360990584828E+00 
    1.1616031221139846E+01 
    8.8347433957309303E+00 
    1.0970545376579693E+01 
    1.5882632409910656E+01 
    1.5869266001961426E+01 
    8.0955298452074160E+00 
    1.6866101749803708E+01 
    1.2191588559041453E+01 
    1.5902932413194177E+01 
    1.6834358705977856E+01 
    1.5890237977433737E+01 
    1.4775012223759056E+01 
    1.7877434133029258E+01 
    1.0932800418250929E+01 
    1.6964533394833030E+01 
    1.5932417511386834E+01 
    1.7044365835617025E+01 
    1.6859012366135030E+01 
    1.1045443384564514E+01 
    1.1458450654984425E+01 
    1.0977379776200610E+01 
    1.4190741509374117E+01 
    4.6325990908616124E+00 
    1.1742732643674122E+01 
    1.8010250562986801E+01 
    1.1841634210996299E+01 
    1.2051378609851261E+01 
    1.7015049208255210E+01 
    1.7264255772463262E+01 
    1.0839823889585515E+01 
    1.5898825636615351E+01 
    1.5864752377356131E+01 
    1.2037285353748254E+01 
    1.6809948455820383E+01 
    8.2586076862256004E+00 
    5.2735430806477135E+00 
    1.2355449539208392E+01 
    1.1855340960617935E+01 
    1.5871084881714811E+01 
    7.5794808977854267E+00 
    1.6492914332662416E+01 
    5.3640002561020292E+00 
    1.1790036147999027E+01 
    1.1066515191688048E+01 
    1.1592980074070736E+01 
    1.9374439975525341E+01 
    4.4906003917641151E+00 
    1.1653571160138897E+01 
    1.3954065787035754E+01 
    1.1194326073471917E+01 
    9.0177737509245652E+00 
    1.6623509145565194E+01 
    1.8914883545357661E+01 
    1.6785711445767348E+01 
    1.1587613554564857E+01 
    6.6661574139912734E+00 
    1.8760512371367799E+01 
    1.6202953152047520E+01 
    8.6022604554820248E+00 
    1.1217846375832051E+01 
    1.7469225123908384E+01 
    3.8237032135703530E+00 
    1.1913091078081512E+01 
    1.6757668399609276E+01 
    1.1607827006507479E+01 
    1.0121568400660117E+01 
    1.1696628006447561E+01 
    1.5559583152725947E+01 
    1.1589891047816410E+01 
    5.9350140245816663E+00 
    1.0566752330336797E+00 
    8.6623540614697667E+00 
    1.7709043945352843E+01 
    1.0976796941755721E+01 
    1.3031241158883946E+01 
    1.2491873850464733E+01 
    1.4410882003694748E+01 
    1.1621365710129178E+01 
    1.6101531734485373E+01 
    1.9389187371846404E+01 
    1.3844099066998925E+01 
    1.6934182863549189E+01 
    6.2799870235475908E-01 
    1.5871537623956561E+01 
    6.5613483280430147E+00 
    1.8188200768185226E+01 
    1.1668305324718753E+01 
    1.0316398888321352E+01 
    9.0083149341736704E+00 
    6.2240829652285150E+00 
    1.3012236097587476E+01 
    9.1866703017292863E+00 
    1.4397677200842676E+01 
    2.5451533333521579E+00 
    1.2727037466205349E+01 
    1.5794028398131026E+01 
    7.0412570181186798E+00 
    1.6382812693558627E+01 
    1.7972652953240683E+01 
    1.6212254647282013E+01 
    1.1519698849414750E+01 
    1.1587095352889547E+01 
    1.1660472886507545E+01 
    6.7474888492780263E+00 
    1.0673235611821125E+01 
    1.0494899599136634E+01 
    1.1648546221274042E+01 
    1.0898493491196007E+01 
    7.9816601028748291E-01 
    7.5139182739340757E+00 
    1.1348015769008775E+01 
    1.1620916247041022E+01 
    1.4794512035285940E+01 
    2.5110854091420078E+00 
    1.1991934304369488E+01 
    1.1862628212517119E+01 
    4.3261957095529544E+00 
    1.6062808934802593E+01 
    1.0123265676107650E+01 
    1.1720486944617889E+01 
    1.6200479333298343E+01 
    6.2529028190634870E+00 
    1.6185500467588415E+01 
    1.0255923950253685E+01 
    1.1442575431698021E+00 
    1.1047128661550675E+01 
    1.6882266258692376E+01 
    1.5871294758152779E+01 
    1.5891627086647157E+01 
    1.2031207450645127E+01 
    1.1793089216538819E+01 
    1.0099041385651201E+01 
    8.2109417234528639E+00 
    1.6324483467093977E+01 
    1.1212636582458117E+01 
    7.9702477859326955E+00 
    1.5886993108015734E+01 
    1.6653147715449641E+01 
    1.1838430591267675E+01 
    1.1407225054042497E+01 
    1.9263232419991986E+01 
    1.2038347095517587E+01 
    1.6340725340304498E+01 
    9.6092037943618180E+00 
    1.9418082580248665E+01 
    7.7032723328077441E+00 
    1.0555092149655176E+01 
    8.6275117678965092E+00 
    1.2299434757415568E+01 
    9.8907227979593966E+00 
    1.9401154467411789E+01 
    1.2092558639767347E+01 
    1.5511674335420718E+01 
    7.9217032489753869E+00 
    1.1616239347306919E+01 
    1.6165008766592429E+01 
    9.9300353604475617E+00 
    8.5816059716991919E+00 
    1.2986365688423433E+01 
    1.6409313239203854E+01 
    8.4948257563113341E+00 
    1.1090213086858466E+01 
    1.1442301442120907E+01 
    1.5843708622737907E+01 
    1.1220796629157022E+01 
    1.6387053581716607E+01 
    1.7075848692744504E+01 
    1.0130927567039539E+01 
    9.9330487337567348E+00 
    9.2072504791884171E+00 
    1.6000790467594637E+01 
    1.1890521270248602E+01 
    1.8955825172545005E+01 
    1.4850020861268000E+01 
    1.6119875770898911E+01 
    1.8627203367890822E+01 
    1.7980194175097257E+01 
    1.1662952378673580E+01 
    1.1631904789433571E+01 
    1.5596679146572045E+01 
    1.5914444707994949E+01 
    1.6517590024409348E+01 
    1.6226101016197799E+01 
    1.9286440661304848E+01 
    1.2037806273141488E+01 
    1.0246465359006580E+01 
    1.2031097283852455E+01 
    1.6980950592874979E+01 
    1.1758063630306111E+01 
    6.8801774252660470E+00 
    1.1501918335744664E+01 
    1.7434450996977809E+01 
    1.1902162098782144E+01 
    1.0258773134837705E+01 
    1.1383360885516639E+01 
    1.7554217993944945E+01 
    1.5943084662692270E+01 
    9.7810258000993642E+00 
    1.7701222795675040E+01 
    1.1691379865534161E+01 
    1.6502529584288911E+01 
    1.7568759852906531E+01 
    1.2346436065750355E+01 
    6.2608686497683488E+00 
    1.2869113614481337E+01 
    6.4761215365269109E+00 
    1.1807893708590941E+01 
    1.1611830151465416E+01 
    1.3574903271005491E+01 
    6.8539785873202446E+00 
    1.4420156368404378E+01 
    1.1628853381143708E+01 
    1.6214930088640454E+01 
    1.2422037969555983E+01 
    9.6203686434082787E+00 
    1.1243448446758753E+01 
    1.2200786599646460E+01 
    1.2155021001868899E+01 
    1.7124892206576675E+01 
    9.7904431097585647E+00 
    9.6242841093179727E+00 
    7.2174799876004849E+00 
    1.6541725991823824E+01 
    1.1290149390608661E+01 
    1.5706316495061069E+01 
    1.1580948747011536E+01 
    7.8957350072380956E+00 
    1.5975339219364999E+01 
    1.1557512363450130E+01 
    8.5929551060024227E+00 
    9.0878811299531179E+00 
    9.4019008255303866E+00 
    1.6249427496974004E+01 
    1.1650720445825147E+01 
    1.6947412410812788E+01 
    1.1517954504803592E+01 
    1.1457447231257341E+01 
    1.1000806199326441E+01 
    1.6069423173539846E+01 
    1.1372637025734823E+01 
    9.4447640250759726E+00 
    1.7968266621248709E+01 
    1.6160678142895286E+01 
    8.0681120249473146E+00 
    3.1656293670137456E+00 
    1.1639407321001041E+01 
    1.0922166438933361E+01 
    9.9190227584661752E+00 
    1.0781115145137727E+01 
    1.6101877203179424E+01 
    1.1317183526583165E+01 
    1.0305977777001635E+01 
    1.5938989136657737E+01 
    7.9987068278784648E+00 
    1.5553844959719900E+01 
    1.0537331667278936E+01 
    9.4472931722568472E+00 
    1.0014891970272776E+01 
    1.6595962437730954E+01 
    1.1595592947402887E+01 
    1.1603936088992182E+01 
    6.9405703023531595E+00 
    7.4994819591889694E+00 
    1.4717345678716217E+01 
    1.1613763391118757E+01 
    1.1682820514276816E+01 
    1.7686555031642605E+01 
    9.6295853442140498E+00 
    1.1625997086384977E+01 
    8.2742591478730247E+00 
    8.5410240922029228E+00 
    1.6059470908260160E+01 
    1.1248788359951135E+01 
    8.2636774831470312E+00 
    1.2185164045981127E+01 
    1.1513584564511572E+01 
    1.6064029738617190E+01 
    1.7786267447073659E+01 
    1.1979802142036378E+00 
    1.1644759755079210E+01 
    1.1853942970774005E+01 
    1.6137694655223143E+01 
    1.1127297883402294E+01 
    1.1568371528957302E+01 
    1.7184780680459603E+01 
    1.0057098446479801E+01 
    8.3383938940431630E+00 
    1.3933103529126996E+01 
    1.5886837325623373E+01 
    1.7042330599394436E+01 
    1.7332665245105908E+01 
    1.1472343520237635E+01 
    1.1635325859860149E+01 
    1.3026255652226189E+01 
    7.6715938694485182E+00 
    1.6032725807868520E+01 
    8.9771610691796546E+00 
    7.9846029484933183E+00 
    1.4534296631280615E+01 
    1.3707163119734943E+01 
    7.8323281494502508E+00 
    1.5926683434604499E+01 
    1.7027284252230441E+01 
    1.2055622666093534E+01 
    1.7895552961123940E+01 
    1.5964173018909367E+01 
    1.1189315982073678E+01 
    1.6736483476768903E+01 
    8.5365824428124419E+00 
    1.5908014612818199E+01 
    1.1643512166228442E+01 
    1.1602448701994650E+01 
    1.7871153184423534E+01 
    1.1330282048222223E+01 
    1.4282573937371037E+01 
    9.9989331845773055E+00 
    1.7156233596570832E+01 
    1.5801735774156278E+01 
    1.0426146273612931E+01 
    1.5858789917635514E+01 
    1.0564116607529657E+01 
    1.1575930863191653E+01 
    1.6982741095042467E+01 
    1.6223094724396045E+01 
    1.7030655835710853E+01 
    1.6141466419325660E+01 
    1.0679104411047987E+01 
    1.0917927991121800E+01 
    1.7038482809064504E+01 
    1.1058487042980602E+01 
    1.5716121144183790E+01 
    1.1314923020340808E+01 
    4.6587362789811788E+00 
    8.0690948477024396E+00 
    7.4753203198069720E+00 
    1.6986835018172837E+01 
    1.7793894953629582E+01 
    1.5879341068914664E+01 
    1.3313975221881583E+01 
    1.6203731918900843E+01 
    1.5936421486044765E+01 
    1.6595871628089522E+01 
    6.7084232411800455E+00 
    4.3388156373014217E+00 
    1.3067415183902298E+01 
    1.1301230857756819E+01 
    1.6104664147556537E+01 
    1.6101855975757498E+01 
    1.1877076609355857E+01 
    1.6143954021549721E+01 
    1.1629112904915161E+01 
    1.1549103913747210E+01 
    6.0523465536121028E+00 
    4.3271344627273098E+00 
    1.7550375404785516E+01 
    9.0697715684643683E+00 
    1.0360761775745740E+01 
    1.1769572251314807E+01 
    1.9265824172014181E+01 
    1.1863898677625688E+01 
    1.1985188434734267E+01 
    4.9285655043622487E+00 
    1.1864192551785811E+01 
    1.1879053592334985E+01 
    1.6433830767361599E+01 
    1.0022516159776897E+01 
    1.1125521571926450E+01 
    1.7732680330691593E+01 
    1.1653850660735429E+01 
    1.5897204130823965E+01 
    1.6156285062583045E+01 
    1.4207740229278436E+01 
    9.8696860393457868E+00 
    1.6141112399520033E+01 
    1.1436400221283986E+01 
    1.6078676164409380E+01 
    1.5828209821531946E+01 
    1.7007947050718222E+01 
    1.6138674155280462E+01 
    1.5114547276277099E+01 
    1.1641392077092005E+01 
    7.7723833379899645E+00 
    1.9133489874394456E+01 
    9.1584329959764048E+00 
    1.6926431662396826E+01 
    1.1638623455991821E+01 
    9.6802782213421086E+00 
    5.7902608037004031E+00 
    1.1918704760315292E+01 
    1.6126082961576778E+01 
    1.6121995696805133E+01 
    1.1556171758910342E+01 
    1.1632397770534226E+01 
    1.7953700454400042E+01 
    1.7270940434026407E+01 
    1.1884286164349865E+01 
    4.0339006755451914E+00 
    1.4993005283993226E+01 
    1.9397948747370386E+01 
    1.1644923409344269E+01 
    1.3745557937228764E+01 
    1.1126670256677157E+01 
    1.8982611111722761E+01 
    1.7358752101116828E+01 
    1.7077173019088036E+01 
    1.1907467342024553E+01 
    5.3735743649644485E+00 
    1.1079680388774547E+01 
    1.1152700356610048E+01 
    1.1194606851192912E+01 
    4.3982816218554843E+00 