# vtk DataFile Version 2.0
Pressure Field Data 
ASCII 
DATASET UNSTRUCTURED_GRID 

POINTS 2860 double 

    0.0000000000000000E+00     0.0000000000000000E+00     0.0000000000000000E+00 
    1.0000000000000000E+00     0.0000000000000000E+00     0.0000000000000000E+00 
    1.0000000000000000E+00     1.0000000000000000E+00     0.0000000000000000E+00 
    0.0000000000000000E+00     1.0000000000000000E+00     0.0000000000000000E+00 
    2.5000000000000000E-01     2.5000000000000000E-01     0.0000000000000000E+00 
    7.5000000000000000E-01     2.5000000000000000E-01     0.0000000000000000E+00 
    7.5000000000000000E-01     7.5000000000000000E-01     0.0000000000000000E+00 
    2.5000000000000000E-01     7.5000000000000000E-01     0.0000000000000000E+00 
    3.1249999999942091E-02     0.0000000000000000E+00     0.0000000000000000E+00 
    6.2499999999873469E-02     0.0000000000000000E+00     0.0000000000000000E+00 
    9.3749999999826514E-02     0.0000000000000000E+00     0.0000000000000000E+00 
    1.2499999999977961E-01     0.0000000000000000E+00     0.0000000000000000E+00 
    1.5624999999968961E-01     0.0000000000000000E+00     0.0000000000000000E+00 
    1.8749999999959971E-01     0.0000000000000000E+00     0.0000000000000000E+00 
    2.1874999999950970E-01     0.0000000000000000E+00     0.0000000000000000E+00 
    2.4999999999941969E-01     0.0000000000000000E+00     0.0000000000000000E+00 
    2.8124999999932920E-01     0.0000000000000000E+00     0.0000000000000000E+00 
    3.1249999999923850E-01     0.0000000000000000E+00     0.0000000000000000E+00 
    3.4374999999914790E-01     0.0000000000000000E+00     0.0000000000000000E+00 
    3.7499999999905720E-01     0.0000000000000000E+00     0.0000000000000000E+00 
    4.0624999999896660E-01     0.0000000000000000E+00     0.0000000000000000E+00 
    4.3749999999887590E-01     0.0000000000000000E+00     0.0000000000000000E+00 
    4.6874999999878530E-01     0.0000000000000000E+00     0.0000000000000000E+00 
    4.9999999999869471E-01     0.0000000000000000E+00     0.0000000000000000E+00 
    5.3124999999877620E-01     0.0000000000000000E+00     0.0000000000000000E+00 
    5.6249999999885780E-01     0.0000000000000000E+00     0.0000000000000000E+00 
    5.9374999999893940E-01     0.0000000000000000E+00     0.0000000000000000E+00 
    6.2499999999902101E-01     0.0000000000000000E+00     0.0000000000000000E+00 
    6.5624999999910261E-01     0.0000000000000000E+00     0.0000000000000000E+00 
    6.8749999999918421E-01     0.0000000000000000E+00     0.0000000000000000E+00 
    7.1874999999926570E-01     0.0000000000000000E+00     0.0000000000000000E+00 
    7.4999999999934730E-01     0.0000000000000000E+00     0.0000000000000000E+00 
    7.8124999999942890E-01     0.0000000000000000E+00     0.0000000000000000E+00 
    8.1249999999951039E-01     0.0000000000000000E+00     0.0000000000000000E+00 
    8.4374999999959199E-01     0.0000000000000000E+00     0.0000000000000000E+00 
    8.7499999999967359E-01     0.0000000000000000E+00     0.0000000000000000E+00 
    9.0624999999975520E-01     0.0000000000000000E+00     0.0000000000000000E+00 
    9.3749999999983680E-01     0.0000000000000000E+00     0.0000000000000000E+00 
    9.6874999999991840E-01     0.0000000000000000E+00     0.0000000000000000E+00 
    1.0000000000000000E+00     3.1249999999942091E-02     0.0000000000000000E+00 
    1.0000000000000000E+00     6.2499999999873469E-02     0.0000000000000000E+00 
    1.0000000000000000E+00     9.3749999999826514E-02     0.0000000000000000E+00 
    1.0000000000000000E+00     1.2499999999977961E-01     0.0000000000000000E+00 
    1.0000000000000000E+00     1.5624999999968961E-01     0.0000000000000000E+00 
    1.0000000000000000E+00     1.8749999999959971E-01     0.0000000000000000E+00 
    1.0000000000000000E+00     2.1874999999950970E-01     0.0000000000000000E+00 
    1.0000000000000000E+00     2.4999999999941969E-01     0.0000000000000000E+00 
    1.0000000000000000E+00     2.8124999999932920E-01     0.0000000000000000E+00 
    1.0000000000000000E+00     3.1249999999923850E-01     0.0000000000000000E+00 
    1.0000000000000000E+00     3.4374999999914790E-01     0.0000000000000000E+00 
    1.0000000000000000E+00     3.7499999999905720E-01     0.0000000000000000E+00 
    1.0000000000000000E+00     4.0624999999896660E-01     0.0000000000000000E+00 
    1.0000000000000000E+00     4.3749999999887590E-01     0.0000000000000000E+00 
    1.0000000000000000E+00     4.6874999999878530E-01     0.0000000000000000E+00 
    1.0000000000000000E+00     4.9999999999869471E-01     0.0000000000000000E+00 
    1.0000000000000000E+00     5.3124999999877620E-01     0.0000000000000000E+00 
    1.0000000000000000E+00     5.6249999999885780E-01     0.0000000000000000E+00 
    1.0000000000000000E+00     5.9374999999893940E-01     0.0000000000000000E+00 
    1.0000000000000000E+00     6.2499999999902101E-01     0.0000000000000000E+00 
    1.0000000000000000E+00     6.5624999999910261E-01     0.0000000000000000E+00 
    1.0000000000000000E+00     6.8749999999918421E-01     0.0000000000000000E+00 
    1.0000000000000000E+00     7.1874999999926570E-01     0.0000000000000000E+00 
    1.0000000000000000E+00     7.4999999999934730E-01     0.0000000000000000E+00 
    1.0000000000000000E+00     7.8124999999942890E-01     0.0000000000000000E+00 
    1.0000000000000000E+00     8.1249999999951039E-01     0.0000000000000000E+00 
    1.0000000000000000E+00     8.4374999999959199E-01     0.0000000000000000E+00 
    1.0000000000000000E+00     8.7499999999967359E-01     0.0000000000000000E+00 
    1.0000000000000000E+00     9.0624999999975520E-01     0.0000000000000000E+00 
    1.0000000000000000E+00     9.3749999999983680E-01     0.0000000000000000E+00 
    1.0000000000000000E+00     9.6874999999991840E-01     0.0000000000000000E+00 
    9.6875000000003686E-01     1.0000000000000000E+00     0.0000000000000000E+00 
    9.3750000000011691E-01     1.0000000000000000E+00     0.0000000000000000E+00 
    9.0625000000015765E-01     1.0000000000000000E+00     0.0000000000000000E+00 
    8.7500000000017863E-01     1.0000000000000000E+00     0.0000000000000000E+00 
    8.4375000000028044E-01     1.0000000000000000E+00     0.0000000000000000E+00 
    8.1250000000040856E-01     1.0000000000000000E+00     0.0000000000000000E+00 
    7.8125000000054956E-01     1.0000000000000000E+00     0.0000000000000000E+00 
    7.5000000000066480E-01     1.0000000000000000E+00     0.0000000000000000E+00 
    7.1875000000086831E-01     1.0000000000000000E+00     0.0000000000000000E+00 
    6.8750000000102829E-01     1.0000000000000000E+00     0.0000000000000000E+00 
    6.5625000000114431E-01     1.0000000000000000E+00     0.0000000000000000E+00 
    6.2500000000129829E-01     1.0000000000000000E+00     0.0000000000000000E+00 
    5.9375000000147926E-01     1.0000000000000000E+00     0.0000000000000000E+00 
    5.6250000000168354E-01     1.0000000000000000E+00     0.0000000000000000E+00 
    5.3125000000188671E-01     1.0000000000000000E+00     0.0000000000000000E+00 
    5.0000000000205835E-01     1.0000000000000000E+00     0.0000000000000000E+00 
    4.6875000000192979E-01     1.0000000000000000E+00     0.0000000000000000E+00 
    4.3750000000180111E-01     1.0000000000000000E+00     0.0000000000000000E+00 
    4.0625000000167238E-01     1.0000000000000000E+00     0.0000000000000000E+00 
    3.7500000000154382E-01     1.0000000000000000E+00     0.0000000000000000E+00 
    3.4375000000141509E-01     1.0000000000000000E+00     0.0000000000000000E+00 
    3.1250000000128642E-01     1.0000000000000000E+00     0.0000000000000000E+00 
    2.8125000000115769E-01     1.0000000000000000E+00     0.0000000000000000E+00 
    2.5000000000102918E-01     1.0000000000000000E+00     0.0000000000000000E+00 
    2.1875000000090050E-01     1.0000000000000000E+00     0.0000000000000000E+00 
    1.8750000000077180E-01     1.0000000000000000E+00     0.0000000000000000E+00 
    1.5625000000064329E-01     1.0000000000000000E+00     0.0000000000000000E+00 
    1.2500000000051459E-01     1.0000000000000000E+00     0.0000000000000000E+00 
    9.3750000000385914E-02     1.0000000000000000E+00     0.0000000000000000E+00 
    6.2500000000257239E-02     1.0000000000000000E+00     0.0000000000000000E+00 
    3.1250000000128557E-02     1.0000000000000000E+00     0.0000000000000000E+00 
    0.0000000000000000E+00     9.6875000000003686E-01     0.0000000000000000E+00 
    0.0000000000000000E+00     9.3750000000011691E-01     0.0000000000000000E+00 
    0.0000000000000000E+00     9.0625000000015765E-01     0.0000000000000000E+00 
    0.0000000000000000E+00     8.7500000000017863E-01     0.0000000000000000E+00 
    0.0000000000000000E+00     8.4375000000028044E-01     0.0000000000000000E+00 
    0.0000000000000000E+00     8.1250000000040856E-01     0.0000000000000000E+00 
    0.0000000000000000E+00     7.8125000000054956E-01     0.0000000000000000E+00 
    0.0000000000000000E+00     7.5000000000066480E-01     0.0000000000000000E+00 
    0.0000000000000000E+00     7.1875000000086831E-01     0.0000000000000000E+00 
    0.0000000000000000E+00     6.8750000000102829E-01     0.0000000000000000E+00 
    0.0000000000000000E+00     6.5625000000114431E-01     0.0000000000000000E+00 
    0.0000000000000000E+00     6.2500000000129829E-01     0.0000000000000000E+00 
    0.0000000000000000E+00     5.9375000000147926E-01     0.0000000000000000E+00 
    0.0000000000000000E+00     5.6250000000168354E-01     0.0000000000000000E+00 
    0.0000000000000000E+00     5.3125000000188671E-01     0.0000000000000000E+00 
    0.0000000000000000E+00     5.0000000000205835E-01     0.0000000000000000E+00 
    0.0000000000000000E+00     4.6875000000192979E-01     0.0000000000000000E+00 
    0.0000000000000000E+00     4.3750000000180111E-01     0.0000000000000000E+00 
    0.0000000000000000E+00     4.0625000000167238E-01     0.0000000000000000E+00 
[...]
CELL_DATA 2795 
SCALARS Pressure double 1 
LOOKUP_TABLE default 

    7.7815248089457301E+00 
    2.0901065882165415E+01 
    1.3034278529865462E+01 
    1.2589544132621636E+01 
    9.6905538799166866E+00 
    2.0260824273569337E+01 
    2.1841128314615126E+01 
    6.8913172005678076E+00 
    1.3799958441235699E+01 
    1.0328875952954515E+01 
    8.6903528818313163E+00 
    1.9829413528431779E+01 
    2.0591242289159922E+01 
    2.0209261547168641E+01 
    1.1909580141369984E+01 
    6.7681284030844848E+00 
    1.1383257222492878E+01 
    9.2982287232743381E+00 
    1.9085902913928773E+01 
    1.3015180691683685E+01 
    1.2864543608203896E+01 
    2.0068711238860676E+01 
    1.2165351999909515E+01 
    4.4726764410024883E-01 
    1.9920811856109584E+01 
    2.0675201537704954E+01 
    2.1919039912138484E+01 
    8.3327565883428907E+00 
    1.9666548911859081E+01 
    2.2015669417233156E+01 
    1.3322198739662412E+01 
    1.3318454056021178E+01 
    9.0255093256172092E+00 
    1.2980745100225832E+01 
    4.0231512626238475E+00 
    1.1389818898876507E+01 
    1.2963450436927664E+01 
    2.2090899124958650E+01 
    2.1808391266086609E+01 
    1.9851089072364982E+01 
    9.6014322050736993E+00 
    2.0009991105073361E+01 
    9.2832005393389172E-01 
    1.2970238699019824E+01 
    2.1549360371193963E+01 
    2.1062737480489567E+01 
    1.9811788467572285E+01 
    1.4381909621866471E+01 
    1.9807522298972422E+01 
    1.1680313346302439E+01 
    1.1052542538884033E+01 
    1.3271036243003616E+01 
    1.2810088681016145E+01 
    1.1458910085918196E+01 
    1.3440362763461506E+01 
    1.8671228589686820E+01 
    1.5990698594150750E+01 
    9.7458680716318522E+00 
    2.0096184822468153E+01 
    1.9937253145892960E+01 
    1.2613441323656225E+01 
    1.2487272983873403E+01 
    1.2436800715768653E+01 
    2.1834727460858694E+01 
    2.2315341954671069E+01 
    1.1398813803063728E+01 
    1.3269615534510420E+01 
    1.9380596236874148E+01 
    1.5754309723021764E+01 
    1.2537782038263149E+01 
    2.2208400436809342E+01 
    2.0251343157829560E+01 
    1.1215769260443592E+01 
    2.1227249004852922E+01 
    1.3820822490639237E+01 
    1.9700054664058904E+01 
    2.2130445292900571E+01 
    1.3839873551463196E+01 
    7.9211906149675464E+00 
    1.3295180531025130E+01 
    2.1808173644830511E+01 
    2.2370441983139749E+01 
    1.1445255169186799E+01 
    1.3180731735779245E+01 
    2.2419070652170870E+01 
    1.2965407230517458E+01 
    1.2302006421910113E+01 
    1.6489802391635280E+01 
    7.5439149354643922E+00 
    1.1086539221632592E+01 
    1.3179356839213380E+01 
    1.4016754996961213E+01 
    2.4683994597714566E+01 
    9.4013849278279853E+00 
    1.3280735376837669E+01 
    1.9781793573050603E+01 
    2.0482140795273001E+01 
    8.2008908515386594E+00 
    1.2777674539576823E+01 
    1.3222830376598001E+01 
    2.0536204757299807E+01 
    1.3221359688055419E+01 
    2.0382316291329413E+01 
    4.8617140000618262E+00 
    8.4387823246015081E+00 
    1.3588449748389495E+01 
    2.0927947328228090E+01 
    1.1333108802634062E+01 
    1.2282743283118464E+01 
    1.3198467391613089E+01 
    1.2259444837115568E+01 
    1.5413879544355131E+01 
    1.1884223496374478E+01 
    1.1224509140417151E+01 
    8.6496319592133055E+00 
    1.6463847975940649E+01 
    1.3321881091976113E+01 
    2.1702746931407070E+01 
    1.1299137923553515E+01 
    1.2564086915761893E+01 
    2.0273558074388873E+01 
    1.0192849654392827E+01 
    2.1159483771765583E+01 
    1.3073737674154767E+01 
    1.2452729524929726E+01 
    2.0498367047524169E+01 
    1.3312489828732362E+01 
    2.2079411119230322E+01 
    1.6530596352466489E+01 
    1.8345333603853128E+01 
    2.1952961088950651E+01 
    9.4195664972515658E+00 
    1.3616319340456561E+01 
    2.0593445101881915E+01 
    3.6134559309899781E+00 
    1.3404615274054914E+01 
    2.1884547460327777E+01 
    1.2501185383392157E+01 
    1.4966118649372627E+01 
    8.1234374441058534E+00 
    1.9831871592489758E+01 
    2.5368203426503726E+01 
    1.7374703344419920E+01 
    1.2495983858519791E+01 
    1.0945067817786393E+01 
    1.4480895752101311E+01 
    1.3097830084722167E+01 
    8.7810809596097386E+00 
    2.1971674672377368E+01 
    2.0490766232216640E+01 
    1.9788280849736832E+01 
    1.4029741211036910E+01 
    1.1178504221517443E+01 
    1.2860981235404761E+01 
    2.1253236568953010E+01 
    1.1535641741488895E+01 
    1.3229282871625955E+01 
    1.1798727582267844E+01 
    1.6115326477642324E+01 
    2.5352378298655420E+01 
    1.9757469871127885E+01 
    1.1106495193110636E+01 
    2.0903268993286328E+01 
    2.0844979400631562E+01 
    2.0999985717871130E+01 
    2.2798128909495567E+01 
    2.3656626994326800E+01 
    2.0987499470995896E+01 
    1.3258093373045920E+01 
    1.4681298221597052E+01 
    2.0594517936132640E+01 
    2.1645850645636344E+01 
    9.1810965617086833E+00 
    1.9800537322971930E+01 
    2.1149388201748600E+01 
    8.9324157126469288E+00 
    2.2700023936154654E+01 
    2.2622325636920507E+01 
    1.9211262134287530E+01 
    1.3718373176753953E+01 
    3.3204468017339717E+00 
    2.1905534178662144E+01 
    1.3499934618669592E+01 
    2.2245785237474315E+01 
    1.2397163639575218E+01 
    2.1512521074114382E+01 
    1.1623554396230900E+00 
    1.8333460762202026E+01 
    1.2549072650741586E+01 
    1.1118068956190349E+01 
    1.0795658273729698E+01 
    1.3029998339428214E+01 
    1.4798827684593808E+01 
    1.3919352412830900E+01 
    8.7823047459700359E+00 
    2.1673280480713295E+01 
    2.0669653892241548E+01 
    1.5947653517663497E+01 
    1.3575187414917352E+01 
    1.8151909772780461E+00 
    9.8856931945190389E+00 
    6.7013542591147086E+00 
    2.2050566595460932E+01 
    1.5249983940079549E+01 
    2.0399120483756704E+01 
    2.0780540649355775E+01 
    1.1700475036259089E+01 
    1.6132469334908883E+01 
    1.9745756451374568E+01 
    2.2597342107449148E+01 
    8.0955989709279290E+00 
    1.7442744483360073E+01 
    1.3893453927874386E+01 
    7.1561967063688696E+00 
    1.1661600871480145E+01 
    1.7088894648401773E+01 
    2.0718317045172707E+01 
    1.3106435776688658E+01 
    2.0946936297373803E+01 
    2.0457839485809437E+01 
    2.0370390125834316E+01 
    1.2869277637888535E+01 
    1.1070735340249950E+01 
    1.9809202528236760E+01 
    1.1210175792421797E+01 
    1.3228589124248307E+01 
    1.0955923036802774E+01 
    1.3155230553155201E+01 
    2.0783425353263954E+01 
    7.9435172210028595E+00 
    1.1529347700209883E+01 
    2.1830031456321478E+01 
    1.2886407572174331E+01 
    1.5078047101762447E+01 
    8.1489149057519228E+00 
    1.1307276004371721E+01 
    2.0406542783998187E+01 
    2.1057411274176456E+01 
    6.6485634770084907E+00 
    1.2895799022341526E+01 
    1.1025845145582094E+01 
    2.3298849481944508E+01 
    2.2390824882216101E+01 
    2.3712734064340960E+01 
    1.2925039957636164E+01 
    2.0753520684385244E+01 
    1.9633913741622010E+01 
    1.2740092550142982E+01 
    1.9780060263764046E+01 
    1.3575366853920118E+01 
    7.2534515415315219E+00 
    1.3450757294410007E+01 
    2.1877124521694398E+01 
    1.9771328487924279E+01 
    8.6370936878434410E+00 
    1.9818495594644901E+01 
    1.4842406390695984E+01 
    1.3375277427024022E+01 
    1.2624768745883582E+01 
    1.9487248582876148E+01 
    1.4213340854084089E+01 
    1.9810484267716330E+01 
    1.2871991552976128E+01 
    7.5208353066371174E+00 
    1.3328065635502206E+01 
    1.0814864124391871E+01 
    1.7415733687490896E+01 
    2.2153298414523242E+01 
    1.9821225329040328E+01 
    2.1866134566967293E+01 
    1.2811163102083686E+01 
    8.4138103533255961E+00 
    8.5378716286428542E+00 
    1.3674185541159583E+01 
    1.3194578781178159E+01 
    1.8251004189960676E+00 
    1.8724054095904552E+01 
    2.2861320642156226E+01 
    1.2414220380489787E+01 
    7.5801338732439669E+00 
    1.5868743100003590E+01 
    1.9803719119074511E+01 
    9.0902007659735169E+00 
    6.0391367905126927E+00 
    1.3163188623926155E+01 
    2.0034822324173277E+01 
    2.1545236882708100E+01 
    2.0987343423541638E+01 
    2.1074180609111089E+01 
    8.8541516012868389E+00 
    1.3361268222026093E+01 
    1.9089476365848384E+01 
    1.0127208007555701E+01 
    2.0564222020095379E+01 
    1.6520251971596945E+01 
    8.6654370501805484E+00 
    1.9891650673843813E+01 
    2.2078761457174398E+01 
    2.0172564844264389E+01 
    8.7373128699912641E+00 
    1.3264289083167348E+01 
    9.6594484064504655E+00 
    1.2463757407782127E+01 
    1.9800902492553611E+01 
    1.9784048648773098E+01 
    8.7892499173526630E+00 
    2.1570672858126731E+01 
    1.4104472346490024E+01 
    1.9933245712472520E+01 
    2.1748941356919921E+01 
    1.9865470390069454E+01 
    1.7803099334979883E+01 
    2.3412630403888780E+01 
    1.2356719911230234E+01 
    2.1808840716241217E+01 
    1.9931570303916278E+01 
    2.1964678924033169E+01 
    2.1541201048042232E+01 
    1.2509052547424602E+01 
    1.3021366659763572E+01 
    1.2398359573786410E+01 
    1.6874088065936792E+01 
    4.8851959655819117E+00 
    1.3571238721657824E+01 
    2.3597624462235007E+01 
    1.3583735367007511E+01 
    1.3895400876352772E+01 
    2.1904357859994448E+01 
    2.2318106206370516E+01 
    1.2283671514861558E+01 
    1.9821300386695970E+01 
    1.9794366175534218E+01 
    1.3874355487320052E+01 
    2.1433062615019789E+01 
    9.1270902007950774E+00 
    5.7850381120223329E+00 
    1.4348598239373576E+01 
    1.3602836727304243E+01 
    1.9760355807660076E+01 
    8.1799486049814814E+00 
    2.0816279193501551E+01 
    5.8995886384561782E+00 
    1.3510136637314574E+01 
    1.2601246610823711E+01 
    1.3231703946472814E+01 
    2.5416273370700988E+01 
    4.7376487254761672E+00 
    1.3434366046685096E+01 
    1.6835787810671135E+01 
    1.2671458803237423E+01 
    9.7372566864938328E+00 
    2.1138128521276535E+01 
    2.4801055070333845E+01 
    2.1503155974669419E+01 
    1.3339230643827808E+01 
    7.1150286023436609E+00 
    2.4618714145900189E+01 
    2.0613045566115797E+01 
    9.2753574752378576E+00 
    1.2727996848424043E+01 
    2.2766963506289201E+01 
    4.0159362443210256E+00 
    1.3689470348151197E+01 
    2.1596206168258426E+01 
    1.3250476588156859E+01 
    1.1417612607890950E+01 
    1.3500105205912609E+01 
    1.9309545436712465E+01 
    1.3224290040579650E+01 
    6.2970114863923676E+00 
    1.1475521676531026E+00 
    9.6142789960398112E+00 
    2.3161488556744256E+01 
    1.2395817780923508E+01 
    1.5561717784694187E+01 
    1.4726443737954346E+01 
    1.7561774357035329E+01 
    1.3269073644350865E+01 
    2.0415681645520110E+01 
    2.5434270600242797E+01 
    1.6349806503119680E+01 
    2.1751324989910536E+01 
    6.6952908016894264E-01 
    1.9782302205365120E+01 
    7.0127093478945755E+00 
    2.3844225914728494E+01 
    1.3456888699229490E+01 
    1.1614725152184404E+01 
    9.8656563661004526E+00 
    6.6342980342667932E+00 
    1.5132201981771193E+01 
    1.0230727145136145E+01 
    1.7224263567325888E+01 
    2.7857542993927309E+00 
    1.4905126455747116E+01 
    1.9620114208695856E+01 
    7.7362864212245945E+00 
    2.0715065061211920E+01 
    2.3421363557692469E+01 
    2.0516332046266413E+01 
    1.3242468580793163E+01 
    1.3224290605418883E+01 
    1.3444802981952687E+01 
    7.2158567228232728E+00 
    1.1963079070012700E+01 
    1.1716975733158101E+01 
    1.3426769182780919E+01 
    1.2295409459177176E+01 
    8.5848669901081431E-01 
    8.0858395842172968E+00 
    1.2908335107762321E+01 
    1.3386809852449348E+01 
    1.7862888022899728E+01 
    2.6230726378682911E+00 
    1.3806824857065799E+01 
    1.3614559908898576E+01 
    4.5534012856948332E+00 
    2.0213047762749419E+01 
    1.1262042336812597E+01 
    1.3411708710318356E+01 
    2.0567221400219523E+01 
    6.6541145484442739E+00 
    2.0393271228550283E+01 
    1.1400801865791571E+01 
    1.1804972762737584E+00 
    1.2493541699833964E+01 
    2.1687802695921729E+01 
    1.9798688149785775E+01 
    1.9845300481908438E+01 
    1.4015413353135735E+01 
    1.3514123827812865E+01 
    1.1217869287979552E+01 
    8.8258387910158671E+00 
    2.0737733136464016E+01 
    1.2720475091518656E+01 
    8.5819491558516265E+00 
    1.9824969985743316E+01 
    2.1291539396114207E+01 
    1.3709935133979203E+01 
    1.2953544978213358E+01 
    2.5272784221836325E+01 
    1.3875975604941164E+01 
    2.0846247172473539E+01 
    1.0589552784886452E+01 
    2.5466351876652709E+01 
    8.4878254143536171E+00 
    1.1890152957028340E+01 
    9.5537616894021671E+00 
    1.4265846728001966E+01 
    1.1077308266947375E+01 
    2.5446458940695404E+01 
    1.3956872101231289E+01 
    1.9289638135747676E+01 
    8.7318062524317686E+00 
    1.3264076896550167E+01 
    2.0562405809036537E+01 
    1.1116270562985365E+01 
    9.2090010920721479E+00 
    1.5344920565281853E+01 
    2.0691320872435281E+01 
    9.4239412909842706E+00 
    1.2631460131768888E+01 
    1.2998384554865712E+01 
    1.9742597115548843E+01 
    1.2709707309416206E+01 
    2.1002504568059624E+01 
    2.2025203676535146E+01 
    1.1245389376581100E+01 
    1.0995476360116006E+01 
    1.0294517329049238E+01 
    1.9985795046915605E+01 
    1.3628230415435384E+01 
    2.4855834458609561E+01 
    1.8068743279875836E+01 
    2.0454385007155345E+01 
    2.4434250492162857E+01 
    2.3428990389304044E+01 
    1.3328451492741092E+01 
    1.3402473326376716E+01 
    1.9226999385439218E+01 
    1.9843380549148659E+01 
    2.1072305584574966E+01 
    2.0635652701111159E+01 
    2.5307500416879908E+01 
    1.3875161093285667E+01 
    1.1416148525905992E+01 
    1.3821213829478653E+01 
    2.1830836960369201E+01 
    1.3463336034425321E+01 
    7.5465822415902952E+00 
    1.3216910601553922E+01 
    2.2721495034110550E+01 
    1.3673061361828099E+01 
    1.1412915029481114E+01 
    1.2913709522842376E+01 
    2.2906361225431901E+01 
    2.0195482408982990E+01 
    1.0759902033488125E+01 
    2.3122401385160810E+01 
    1.3369102955908469E+01 
    2.1191172040760303E+01 
    2.2915377836325334E+01 
    1.4382593764334185E+01 
    6.6669037347477289E+00 
    1.5129509782788510E+01 
    6.9050519725965982E+00 
    1.3534095664566255E+01 
    1.3253245247585070E+01 
    1.6185888065997219E+01 
    7.3223373723708320E+00 
    1.7530705571362841E+01 
    1.3280761162507552E+01 
    2.0626701898653948E+01 
    1.4527719398210866E+01 
    1.0463129870291313E+01 
    1.2730462802871610E+01 
    1.4269775203611365E+01 
    1.4049626909675599E+01 
    2.2230956937212625E+01 
    1.0819535460645023E+01 
    1.0609941483867104E+01 
    7.7254162204009056E+00 
    2.1173799696713761E+01 
    1.2790782744276026E+01 
    1.9679248843447354E+01 
    1.3211770798818248E+01 
    8.5040352625670259E+00 
    2.0171386239909882E+01 
    1.3177316131714795E+01 
    9.3415169604625632E+00 
    9.9497518912305054E+00 
    1.0336505528370663E+01 
    2.0661199859722281E+01 
    1.3429987624566795E+01 
    2.1751960445895129E+01 
    1.3119248712010419E+01 
    1.3031798753004605E+01 
    1.2500300301796939E+01 
    2.0350939505049400E+01 
    1.2913728247402338E+01 
    1.0388648335398315E+01 
    2.3423149136786279E+01 
    2.0499304429603768E+01 
    8.9026473113732827E+00 
    3.3123082227008975E+00 
    1.3412490805876836E+01 
    1.2335583573359781E+01 
    1.0985839645093096E+01 
    1.2193138361914095E+01 
    2.0104592586452760E+01 
    1.2949271535511370E+01 
    1.1516697141347048E+01 
    1.9885333651606100E+01 
    8.8228007845699494E+00 
    1.9166349897562160E+01 
    1.1888644834042054E+01 
    1.0299234674601113E+01 
    1.1113919295279215E+01 
    2.1352019179089542E+01 
    1.3235811726129478E+01 
    1.3247131278170405E+01 
    7.4416505982370849E+00 
    8.0915829036116911E+00 
    1.7998221148868993E+01 
    1.3260849736899777E+01 
    1.3478081218216873E+01 
    2.3113729530528225E+01 
    1.0615342748351859E+01 
    1.3278058690335193E+01 
    9.1490142768280496E+00 
    9.4625001246389928E+00 
    2.0270014548595739E+01 
    1.2753332839988417E+01 
    8.9837982999038850E+00 
    1.4030605194842209E+01 
    1.3103502911400025E+01 
    2.0301777992842965E+01 
    2.3260968371051948E+01 
    1.2474516106957556E+00 
    1.3420391303310925E+01 
    1.3601100294409894E+01 
    2.0475920521556510E+01 
    1.2607624242906672E+01 
    1.3199046158948347E+01 
    2.2304238380478576E+01 
    1.1148416839068080E+01 
    9.0690487548982297E+00 
    1.6681827344508271E+01 
    1.9817176711458178E+01 
    2.1949358447120371E+01 
    2.2545897477178293E+01 
    1.3166946549615883E+01 
    1.3407220304676603E+01 
    1.5214880992464753E+01 
    8.4385243590474488E+00 
    2.0016046305432532E+01 
    9.8260565431739426E+00 
    8.8057470103222659E+00 
    1.7514427327613589E+01 
    1.6180281427167316E+01 
    8.6270630272434747E+00 
    1.9874560223112269E+01 
    2.1924797740603200E+01 
    1.3901739919038539E+01 
    2.3425493834626199E+01 
    1.9924594953145615E+01 
    1.2729593513066984E+01 
    2.1288284089898756E+01 
    9.4614714032558211E+00 
    1.9830831372122130E+01 
    1.3418934575957630E+01 
    1.3354161390259126E+01 
    2.3401748071966455E+01 
    1.2841015906446005E+01 
    1.7035922914234796E+01 
    1.1078721547744911E+01 
    2.2174467980390020E+01 
    1.9643734026432217E+01 
    1.1625052673162498E+01 
    1.9814665343434068E+01 
    1.1885185410839362E+01 
    1.3211957575973374E+01 
    2.1843007071331602E+01 
    2.0565581601925587E+01 
    2.1929892523754813E+01 
    2.0475148883600014E+01 
    1.1992803699937516E+01 
    1.2351014916272650E+01 
    2.1948276115311167E+01 
    1.2545695351208192E+01 
    1.9441650812670510E+01 
    1.2823394276020572E+01 
    4.9341811748875388E+00 
    8.9077649056781230E+00 
    8.2327405017021658E+00 
    2.1847705299572084E+01 
    2.3278159503452468E+01 
    1.9823708150281718E+01 
    1.5775654229966063E+01 
    2.0311466248732074E+01 
    1.9874677604856245E+01 
    2.1089445394786079E+01 
    7.1647672282625914E+00 
    4.5830617400569595E+00 
    1.5402259485716142E+01 
    1.2859790320496563E+01 
    2.0124647153957898E+01 
    2.0122993089377470E+01 
    1.3629098102370966E+01 
    2.0182861620230707E+01 
    1.3398163395004559E+01 
    1.3231993715273390E+01 
    6.4354295572770015E+00 
    4.5567285380281151E+00 
    2.2897285059068128E+01 
    1.0101914657502187E+01 
    1.1542148356197464E+01 
    1.3480964259352504E+01 
    2.5279654626557967E+01 
    1.3615586518000754E+01 
    1.3879649977278365E+01 
    5.2494503498696350E+00 
    1.3615360941143999E+01 
    1.3636319359471965E+01 
    2.0757906916863252E+01 
    1.1127130045195885E+01 
    1.2615036626964571E+01 
    2.3178487773899882E+01 
    1.3433759844573430E+01 
    1.9841981625543312E+01 
    2.0285668723810556E+01 
    1.7136996561150827E+01 
    1.1069700267119472E+01 
    2.0465226881735965E+01 
    1.3094017637034957E+01 
    2.0197673874276358E+01 
    1.9710954300978493E+01 
    2.1889280994624496E+01 
    2.0496457481633108E+01 
    1.8371490697186314E+01 
    1.3415930765899432E+01 
    8.5633781839007970E+00 
    2.5110351275447229E+01 
    1.0049616903657180E+01 
    2.1876263251130123E+01 
    1.3411678692683479E+01 
    1.0702454413838980E+01 
    6.2227203193408380E+00 
    1.3691082952434455E+01 
    2.0450047296318946E+01 
    2.0415592697041951E+01 
    1.3184987508099669E+01 
    1.3402103530864686E+01 
    2.3485672190364738E+01 
    2.2440644736698385E+01 
    1.3645619666557666E+01 
    4.2647160062518266E+00 
    1.8204508547750535E+01 
    2.5438982628100270E+01 
    1.3421387045985096E+01 
    1.6428098893228892E+01 
    1.2603158439896733E+01 
    2.4910209045739776E+01 
    2.2577282163215447E+01 
    2.2116418507713625E+01 
    1.3679375501495455E+01 
    5.8320174668039213E+00 
    1.2536809694109172E+01 
    1.2642970018407802E+01 
    1.2716680894248944E+01 
    4.6774001745776221E+00 