# vtk DataFile Version 2.0
Pressure Field Data 
ASCII 
DATASET UNSTRUCTURED_GRID 

POINTS 2860 double 

    0.0000000000000000E+00     0.0000000000000000E+00     0.0000000000000000E+00 
    1.0000000000000000E+00     0.0000000000000000E+00     0.0000000000000000E+00 
    1.0000000000000000E+00     1.0000000000000000E+00     0.0000000000000000E+00 
    0.0000000000000000E+00     1.0000000000000000E+00     0.0000000000000000E+00 
    2.5000000000000000E-01     2.5000000000000000E-01     0.0000000000000000E+00 
    7.5000000000000000E-01     2.5000000000000000E-01     0.0000000000000000E+00 
    7.5000000000000000E-01     7.5000000000000000E-01     0.0000000000000000E+00 
    2.5000000000000000E-01     7.5000000000000000E-01     0.0000000000000000E+00 
    3.1249999999942091E-02     0.0000000000000000E+00     0.0000000000000000E+00 
    6.2499999999873469E-02     0.0000000000000000E+00     0.0000000000000000E+00 
    9.3749999999826514E-02     0.0000000000000000E+00     0.0000000000000000E+00 
    1.2499999999977961E-01     0.0000000000000000E+00     0.0000000000000000E+00 
    1.5624999999968961E-01     0.0000000000000000E+00     0.0000000000000000E+00 
    1.8749999999959971E-01     0.0000000000000000E+00     0.0000000000000000E+00 
    2.1874999999950970E-01     0.0000000000000000E+00     0.0000000000000000E+00 
    2.4999999999941969E-01     0.0000000000000000E+00     0.0000000000000000E+00 
    2.8124999999932920E-01     0.0000000000000000E+00     0.0000000000000000E+00 
    3.1249999999923850E-01     0.0000000000000000E+00     0.0000000000000000E+00 
    3.4374999999914790E-01     0.0000000000000000E+00     0.0000000000000000E+00 
    3.7499999999905720E-01     0.0000000000000000E+00     0.0000000000000000E+00 
    4.0624999999896660E-01     0.0000000000000000E+00     0.0000000000000000E+00 
    4.3749999999887590E-01     0.0000000000000000E+00     0.0000000000000000E+00 
    4.6874999999878530E-01     0.0000000000000000E+00     0.0000000000000000E+00 
    4.9999999999869471E-01     0.0000000000000000E+00     0.0000000000000000E+00 
    5.3124999999877620E-01     0.0000000000000000E+00     0.0000000000000000E+00 
    5.6249999999885780E-01     0.0000000000000000E+00     0.0000000000000000E+00 
    5.9374999999893940E-01     0.0000000000000000E+00     0.0000000000000000E+00 
    6.2499999999902101E-01     0.0000000000000000E+00     0.0000000000000000E+00 
    6.5624999999910261E-01     0.0000000000000000E+00     0.0000000000000000E+00 
    6.8749999999918421E-01     0.0000000000000000E+00     0.0000000000000000E+00 
    7.1874999999926570E-01     0.0000000000000000E+00     0.0000000000000000E+00 
    7.4999999999934730E-01     0.0000000000000000E+00     0.0000000000000000E+00 
    7.8124999999942890E-01     0.0000000000000000E+00     0.0000000000000000E+00 
    8.1249999999951039E-01     0.0000000000000000E+00     0.0000000000000000E+00 
    8.4374999999959199E-01     0.0000000000000000E+00     0.0000000000000000E+00 
    8.7499999999967359E-01     0.0000000000000000E+00     0.0000000000000000E+00 
    9.0624999999975520E-01     0.0000000000000000E+00     0.0000000000000000E+00 
    9.3749999999983680E-01     0.0000000000000000E+00     0.0000000000000000E+00 
    9.6874999999991840E-01     0.0000000000000000E+00     0.0000000000000000E+00 
    1.0000000000000000E+00     3.1249999999942091E-02     0.0000000000000000E+00 
    1.0000000000000000E+00     6.2499999999873469E-02     0.0000000000000000E+00 
    1.0000000000000000E+00     9.3749999999826514E-02     0.0000000000000000E+00 
    1.0000000000000000E+00     1.2499999999977961E-01     0.0000000000000000E+00 
    1.0000000000000000E+00     1.5624999999968961E-01     0.0000000000000000E+00 
    1.0000000000000000E+00     1.8749999999959971E-01     0.0000000000000000E+00 
    1.0000000000000000E+00     2.1874999999950970E-01     0.0000000000000000E+00 
    1.0000000000000000E+00     2.4999999999941969E-01     0.0000000000000000E+00 
    1.0000000000000000E+00     2.8124999999932920E-01     0.0000000000000000E+00 
    1.0000000000000000E+00     3.1249999999923850E-01     0.0000000000000000E+00 
    1.0000000000000000E+00     3.4374999999914790E-01     0.0000000000000000E+00 
    1.0000000000000000E+00     3.7499999999905720E-01     0.0000000000000000E+00 
    1.0000000000000000E+00     4.0624999999896660E-01     0.0000000000000000E+00 
    1.0000000000000000E+00     4.3749999999887590E-01     0.0000000000000000E+00 
    1.0000000000000000E+00     4.6874999999878530E-01     0.0000000000000000E+00 
    1.0000000000000000E+00     4.9999999999869471E-01     0.0000000000000000E+00 
    1.0000000000000000E+00     5.3124999999877620E-01     0.0000000000000000E+00 
    1.0000000000000000E+00     5.6249999999885780E-01     0.0000000000000000E+00 
    1.0000000000000000E+00     5.9374999999893940E-01     0.0000000000000000E+00 
    1.0000000000000000E+00     6.2499999999902101E-01     0.0000000000000000E+00 
    1.0000000000000000E+00     6.5624999999910261E-01     0.0000000000000000E+00 
    1.0000000000000000E+00     6.8749999999918421E-01     0.0000000000000000E+00 
    1.0000000000000000E+00     7.1874999999926570E-01     0.0000000000000000E+00 
    1.0000000000000000E+00     7.4999999999934730E-01     0.0000000000000000E+00 
    1.0000000000000000E+00     7.8124999999942890E-01     0.0000000000000000E+00 
    1.0000000000000000E+00     8.1249999999951039E-01     0.0000000000000000E+00 
    1.0000000000000000E+00     8.4374999999959199E-01     0.0000000000000000E+00 
    1.0000000000000000E+00     8.7499999999967359E-01     0.0000000000000000E+00 
    1.0000000000000000E+00     9.0624999999975520E-01     0.0000000000000000E+00 
    1.0000000000000000E+00     9.3749999999983680E-01     0.0000000000000000E+00 
    1.0000000000000000E+00     9.6874999999991840E-01     0.0000000000000000E+00 
    9.6875000000003686E-01     1.0000000000000000E+00     0.0000000000000000E+00 
    9.3750000000011691E-01     1.0000000000000000E+00     0.0000000000000000E+00 
    9.0625000000015765E-01     1.0000000000000000E+00     0.0000000000000000E+00 
    8.7500000000017863E-01     1.0000000000000000E+00     0.0000000000000000E+00 
    8.4375000000028044E-01     1.0000000000000000E+00     0.0000000000000000E+00 
    8.1250000000040856E-01     1.0000000000000000E+00     0.0000000000000000E+00 
    7.8125000000054956E-01     1.0000000000000000E+00     0.0000000000000000E+00 
    7.5000000000066480E-01     1.0000000000000000E+00     0.0000000000000000E+00 
    7.1875000000086831E-01     1.0000000000000000E+00     0.0000000000000000E+00 
    6.8750000000102829E-01     1.0000000000000000E+00     0.0000000000000000E+00 
    6.5625000000114431E-01     1.0000000000000000E+00     0.0000000000000000E+00 
    6.2500000000129829E-01     1.0000000000000000E+00     0.0000000000000000E+00 
    5.9375000000147926E-01     1.0000000000000000E+00     0.0000000000000000E+00 
    5.6250000000168354E-01     1.0000000000000000E+00     0.0000000000000000E+00 
    5.3125000000188671E-01     1.0000000000000000E+00     0.0000000000000000E+00 
    5.0000000000205835E-01     1.0000000000000000E+00     0.0000000000000000E+00 
    4.6875000000192979E-01     1.0000000000000000E+00     0.0000000000000000E+00 
    4.3750000000180111E-01     1.0000000000000000E+00     0.0000000000000000E+00 
    4.0625000000167238E-01     1.0000000000000000E+00     0.0000000000000000E+00 
    3.7500000000154382E-01     1.0000000000000000E+00     0.0000000000000000E+00 
    3.4375000000141509E-01     1.0000000000000000E+00     0.0000000000000000E+00 
    3.1250000000128642E-01     1.0000000000000000E+00     0.0000000000000000E+00 
    2.8125000000115769E-01     1.0000000000000000E+00     0.0000000000000000E+00 
    2.5000000000102918E-01     1.0000000000000000E+00     0.0000000000000000E+00 
    2.1875000000090050E-01     1.0000000000000000E+00     0.0000000000000000E+00 
    1.8750000000077180E-01     1.0000000000000000E+00     0.0000000000000000E+00 
    1.5625000000064329E-01     1.0000000000000000E+00     0.0000000000000000E+00 
    1.2500000000051459E-01     1.0000000000000000E+00     0.0000000000000000E+00 
    9.3750000000385914E-02     1.0000000000000000E+00     0.0000000000000000E+00 
    6.2500000000257239E-02     1.0000000000000000E+00     0.0000000000000000E+00 
    3.1250000000128557E-02     1.0000000000000000E+00     0.0000000000000000E+00 
    0.0000000000000000E+00     9.6875000000003686E-01     0.0000000000000000E+00 
    0.0000000000000000E+00     9.3750000000011691E-01     0.0000000000000000E+00 
    0.0000000000000000E+00     9.0625000000015765E-01     0.0000000000000000E+00 
    0.0000000000000000E+00     8.7500000000017863E-01     0.0000000000000000E+00 
    0.0000000000000000E+00     8.4375000000028044E-01     0.0000000000000000E+00 
    0.0000000000000000E+00     8.1250000000040856E-01     0.0000000000000000E+00 
    0.0000000000000000E+00     7.8125000000054956E-01     0.0000000000000000E+00 
    0.0000000000000000E+00     7.5000000000066480E-01     0.0000000000000000E+00 
    0.0000000000000000E+00     7.1875000000086831E-01     0.0000000000000000E+00 
    0.0000000000000000E+00     6.8750000000102829E-01     0.0000000000000000E+00 
    0.0000000000000000E+00     6.5625000000114431E-01     0.0000000000000000E+00 
    0.0000000000000000E+00     6.2500000000129829E-01     0.0000000000000000E+00 
    0.0000000000000000E+00     5.9375000000147926E-01     0.0000000000000000E+00 
    0.0000000000000000E+00     5.6250000000168354E-01     0.0000000000000000E+00 
    0.0000000000000000E+00     5.3125000000188671E-01     0.0000000000000000E+00 
    0.0000000000000000E+00     5.0000000000205835E-01     0.0000000000000000E+00 
    0.0000000000000000E+00     4.6875000000192979E-01     0.0000000000000000E+00 
    0.0000000000000000E+00     4.3750000000180111E-01     0.0000000000000000E+00 
    0.0000000000000000E+00     4.0625000000167238E-01     0.0000000000000000E+00 
[...]
CELL_DATA 2795 
SCALARS Pressure double 1 
LOOKUP_TABLE default 

    5.6403335714948950E+00 
    1.2966797674452300E+01 
    9.1718662606590069E+00 
    8.7723576668439325E+00 
    6.9529831984028085E+00 
    1.2855105581246633E+01 
    1.3518467610915325E+01 
    5.0307191795678516E+00 
    9.7081501613807681E+00 
    7.4156796098507787E+00 
    6.3120491181326148E+00 
    1.2623508236676726E+01 
    1.2877142828436780E+01 
    1.2826956394743593E+01 
    8.4593014674479985E+00 
    4.9459285077279640E+00 
    8.0605986275412285E+00 
    6.7275447379123561E+00 
    1.2297492250664808E+01 
    9.1627262685192150E+00 
    9.0562829278612327E+00 
    1.2768069158513475E+01 
    8.5280501550362597E+00 
    3.3077436299304508E-01 
    1.2605384384203756E+01 
    1.2853671544069323E+01 
    1.3547734242540177E+01 
    6.0667489638468552E+00 
    1.2551653220184424E+01 
    1.3544071552599638E+01 
    9.2167602644752691E+00 
    9.4074786492764595E+00 
    6.5556824883519518E+00 
    9.1325877735992211E+00 
    2.9144528718903797E+00 
    8.0655471161248631E+00 
    9.1225674601827365E+00 
    1.3581507294692296E+01 
    1.3497769214923876E+01 
    1.2635189198266099E+01 
    6.8861017217454261E+00 
    1.2584006738946997E+01 
    6.8902850011684380E-01 
    9.0014258210661442E+00 
    1.3321733099417443E+01 
    1.3170236894452380E+01 
    1.2613818719854013E+01 
    1.0034450665162824E+01 
    1.2679477135357578E+01 
    8.2504977740603458E+00 
    7.8530700216203337E+00 
    9.3734886463948044E+00 
    8.8951781660586615E+00 
    8.1082146795018168E+00 
    9.2867271515451630E+00 
    1.2108803464916091E+01 
    1.0945761092158202E+01 
    6.9910844550881652E+00 
    1.2771693313909212E+01 
    1.2702346990953910E+01 
    8.7854576158846278E+00 
    8.8164669233090951E+00 
    8.6825978822136722E+00 
    1.3453289251471885E+01 
    1.3685184399981420E+01 
    8.0700026764864354E+00 
    9.3716119626944501E+00 
    1.2533474795236797E+01 
    1.0744935228516736E+01 
    8.8541396042007374E+00 
    1.3696856136328138E+01 
    1.2707693106298326E+01 
    7.9552991279209051E+00 
    1.3261452986757400E+01 
    9.5347048885343479E+00 
    1.2471485106694777E+01 
    1.3591008975659976E+01 
    9.4798825049941975E+00 
    5.7451109211530715E+00 
    9.3901288491511448E+00 
    1.3505612971079094E+01 
    1.3726589919941224E+01 
    8.0804048032004410E+00 
    9.2955680927005790E+00 
    1.3766063042950988E+01 
    9.1265488765851561E+00 
    8.6064897019626301E+00 
    1.1116134770158292E+01 
    5.4790368460086949E+00 
    7.8741590833617803E+00 
    9.2969634039946847E+00 
    9.8380352739672237E+00 
    1.5169088165859792E+01 
    6.7542014290673196E+00 
    9.3794978524885320E+00 
    1.2593866718942477E+01 
    1.2832418117707904E+01 
    5.9359678697191818E+00 
    9.0023427547734833E+00 
    9.3258878271321226E+00 
    1.2851336877571299E+01 
    9.3349593702737064E+00 
    1.2788631510525908E+01 
    3.6026473257262079E+00 
    6.1355013651867436E+00 
    9.5944004617833762E+00 
    1.2974933560729237E+01 
    8.0328494595555338E+00 
    8.5831646511773556E+00 
    9.3207040486682544E+00 
    8.5762494736378621E+00 
    1.0609901187902691E+01 
    8.3402259047758598E+00 
    7.9626187949686198E+00 
    6.2410462021025577E+00 
    1.0848082790336530E+01 
    9.4074459733018951E+00 
    1.3371782845745575E+01 
    8.0575722708141413E+00 
    8.7577613328825592E+00 
    1.2697683999265472E+01 
    7.2826365828470019E+00 
    1.3110434078823362E+01 
    9.2082513627994906E+00 
    8.6905505807049863E+00 
    1.2834468023817944E+01 
    9.4032733018442602E+00 
    1.3599483305548180E+01 
    1.1126042263391644E+01 
    1.1974082326374829E+01 
    1.3563316956629311E+01 
    6.7681665406485179E+00 
    9.6124884622159694E+00 
    1.2837518601531375E+01 
    2.7022343324581444E+00 
    9.2653483037214084E+00 
    1.3532242519139842E+01 
    8.7192723052965473E+00 
    1.0076403449981983E+01 
    5.8798800151581432E+00 
    1.2592719299656824E+01 
    1.5647882687309155E+01 
    1.1545967975790303E+01 
    8.7161009293062257E+00 
    7.7825506400000855E+00 
    9.9736088474857905E+00 
    9.2268738659453184E+00 
    6.3795803621163376E+00 
    1.3559324643590873E+01 
    1.2928408485187511E+01 
    1.2595437604334835E+01 
    9.8472232962226673E+00 
    7.9280128789667916E+00 
    9.0553853633066641E+00 
    1.3286885576187368E+01 
    8.1595140223057481E+00 
    9.1469151383863103E+00 
    8.3108255151477817E+00 
    1.0614348659473595E+01 
    1.5636385387660974E+01 
    1.2587706127069323E+01 
    7.8850127929557985E+00 
    1.3011901411957517E+01 
    1.2936888837113592E+01 
    1.3011275352638014E+01 
    1.3954255775115953E+01 
    1.4471749219553677E+01 
    1.3167804848499033E+01 
    9.3631877510002965E+00 
    9.9587904326851895E+00 
    1.3008832867859230E+01 
    1.3381594858098977E+01 
    6.6616947032795721E+00 
    1.2613426909702289E+01 
    1.3251863146247647E+01 
    6.4849007852391125E+00 
    1.3871828499513001E+01 
    1.3859855092432941E+01 
    1.2360617434604050E+01 
    9.6714178240521687E+00 
    2.3682965537205276E+00 
    1.3532561712929191E+01 
    9.5381462970246389E+00 
    1.3646698979318865E+01 
    8.6557114143113658E+00 
    1.3378506782687593E+01 
    8.4207148509208296E-01 
    1.1991645379113704E+01 
    8.8593994071500717E+00 
    7.8913684192603970E+00 
    7.6873657555720438E+00 
    9.1770420561225379E+00 
    1.0292804693205062E+01 
    9.5047865468782167E+00 
    6.3338107992465558E+00 
    1.3377589840788771E+01 
    1.2860730052869151E+01 
    1.0859424651810013E+01 
    9.5872681998069869E+00 
    1.3823644115701554E+00 
    7.0851773670300542E+00 
    4.8862436956277042E+00 
    1.3554828463586690E+01 
    1.0425967637713363E+01 
    1.2914358677616196E+01 
    1.2921591932007679E+01 
    8.2322865189221606E+00 
    1.0892270664891075E+01 
    1.2591338108833943E+01 
    1.3842637394856855E+01 
    5.8601704763326801E+00 
    1.1359234632804446E+01 
    9.5389677173281235E+00 
    5.2122835848802920E+00 
    8.2248384339968634E+00 
    1.1361083116768759E+01 
    1.2886584688244998E+01 
    9.2374870681713208E+00 
    1.2989945117405373E+01 
    1.2771187173644575E+01 
    1.2724635280214741E+01 
    9.0622462066337857E+00 
    7.8393369848236771E+00 
    1.2602813200350635E+01 
    7.9499228496912124E+00 
    9.3378531009489762E+00 
    7.7909009600944517E+00 
    9.0940659372769996E+00 
    1.2929435408616776E+01 
    5.7666767290451819E+00 
    8.1413303651665760E+00 
    1.3472833220207015E+01 
    9.0762937204247987E+00 
    1.0317078492770790E+01 
    5.9178399397216310E+00 
    8.0088628759324560E+00 
    1.2750868291201543E+01 
    1.3042013285776859E+01 
    4.8164419949551096E+00 
    9.0785508319639430E+00 
    7.8276528011386262E+00 
    1.4246085806451104E+01 
    1.3733613401787425E+01 
    1.4497062428850201E+01 
    9.0988013768303730E+00 
    1.2905416075157627E+01 
    1.2552820630726135E+01 
    8.9784361503690189E+00 
    1.2595704122270433E+01 
    9.5876779526549303E+00 
    5.2792580628196202E+00 
    9.2958337185400062E+00 
    1.3461087073177485E+01 
    1.2592788871164608E+01 
    6.2791355817235459E+00 
    1.2619761169424040E+01 
    1.0282110776390494E+01 
    9.2473106035670725E+00 
    8.7944187876404012E+00 
    1.2472207275403274E+01 
    9.7996922863154907E+00 
    1.2607611100739270E+01 
    8.9461404386334547E+00 
    5.4738283748428307E+00 
    9.4048827310779117E+00 
    7.6961725976798423E+00 
    1.1546683126835967E+01 
    1.3644712451027203E+01 
    1.2601611550269361E+01 
    1.3526005241275184E+01 
    9.0273609736348845E+00 
    6.1123024960551531E+00 
    6.2003496893480570E+00 
    9.4450938747322670E+00 
    9.3133113984090876E+00 
    1.3084678640294756E+00 
    1.2155569695644557E+01 
    1.3978608971320828E+01 
    8.6666008623101991E+00 
    5.5037492895025357E+00 
    1.0572122842850105E+01 
    1.2618468572468853E+01 
    6.5438577391656212E+00 
    4.4251979233971310E+00 
    9.2846470688478853E+00 
    1.2707945498659569E+01 
    1.3288295562946061E+01 
    1.3184605056457961E+01 
    1.3046074683898109E+01 
    6.3795954815903873E+00 
    9.2394502849487647E+00 
    1.2166543009552299E+01 
    7.2793454044029264E+00 
    1.2865185845211032E+01 
    1.1099263872673221E+01 
    6.2968826969742713E+00 
    1.2718419144291763E+01 
    1.3552554563453086E+01 
    1.2715402475529512E+01 
    6.2991155493608959E+00 
    9.3675633561608702E+00 
    6.9292177542868911E+00 
    8.8313855017298142E+00 
    1.2610648985546566E+01 
    1.2599872756536897E+01 
    6.3361614568167957E+00 
    1.3415538261209056E+01 
    9.8783701758737745E+00 
    1.2636420530646843E+01 
    1.3386489946208684E+01 
    1.2621100404466025E+01 
    1.1768713293396001E+01 
    1.4296390388705218E+01 
    8.6309117482616298E+00 
    1.3497770628734472E+01 
    1.2663991082411229E+01 
    1.3565174678831569E+01 
    1.3409333645467717E+01 
    8.7237667832061430E+00 
    9.1644625958409360E+00 
    8.6573392182590734E+00 
    1.1324531024422862E+01 
    3.6131960991157341E+00 
    9.3672550696533108E+00 
    1.4418540881823089E+01 
    9.5904820484476296E+00 
    9.7639819222226407E+00 
    1.3539846064530126E+01 
    1.3759156799796639E+01 
    8.5833966807759836E+00 
    1.2623705569595289E+01 
    1.2596508737454871E+01 
    9.7525602603912471E+00 
    1.3367615517713318E+01 
    6.6160618614734457E+00 
    4.1873304074231061E+00 
    1.0012925262386148E+01 
    9.6038170327186236E+00 
    1.2601974813154781E+01 
    5.9197285738033756E+00 
    1.3106886160243176E+01 
    4.2628814016060046E+00 
    9.5411530972787464E+00 
    8.7767398266063932E+00 
    9.3433031680444483E+00 
    1.5687245982424647E+01 
    3.5122167471143184E+00 
    9.2831359826792816E+00 
    1.1032096705214990E+01 
    8.9347241676375244E+00 
    6.9770497145201498E+00 
    1.3214914992982166E+01 
    1.5253950294981959E+01 
    1.3349783233554774E+01 
    9.2254054288313991E+00 
    5.1856378869532964E+00 
    1.5112372184669766E+01 
    1.2849496654048796E+01 
    6.6873993216589094E+00 
    8.8510798604426117E+00 
    1.3939152187683060E+01 
    2.9860938433207576E+00 
    9.6505104712674452E+00 
    1.3316967183393857E+01 
    9.3568838006512021E+00 
    8.1361229733036193E+00 
    9.3233431876952952E+00 
    1.2367477007264240E+01 
    9.3359300437606478E+00 
    4.6182806549744440E+00 
    8.1239780178548748E-01 
    6.9328162008567773E+00 
    1.4143704720772647E+01 
    8.6567360078578641E+00 
    1.0604016316514034E+01 
    1.0126253830328713E+01 
    1.1598599653712718E+01 
    9.3704779980075124E+00 
    1.2764627997984809E+01 
    1.5701306906197647E+01 
    1.1030410047581514E+01 
    1.3472359132046895E+01 
    4.9096354926518632E-01 
    1.2601702672464798E+01 
    5.1109782303287012E+00 
    1.4582205300867381E+01 
    9.2967828469519187E+00 
    8.2507247325565771E+00 
    7.0693255201129013E+00 
    4.8459163543714290E+00 
    1.0433560546610611E+01 
    7.3459409001753802E+00 
    1.1449886540667020E+01 
    1.9782103231029582E+00 
    1.0310309665532936E+01 
    1.2540825761249330E+01 
    5.6221761640877856E+00 
    1.3051530449480587E+01 
    1.4392896868817859E+01 
    1.2911156339159538E+01 
    9.1666199190178403E+00 
    9.3376174725557597E+00 
    9.2894217651543851E+00 
    5.2565396654162644E+00 
    8.4112916902505503E+00 
    8.2673224547213415E+00 
    9.2785404348983391E+00 
    8.5944023291067317E+00 
    6.1930784355692337E-01 
    5.8654969574540337E+00 
    8.9583662774805006E+00 
    9.2543015269195017E+00 
    1.1762875095649523E+01 
    1.9663110950576097E+00 
    9.7153286886227370E+00 
    9.6085916175259740E+00 
    3.3766379343609803E+00 
    1.2793029834652007E+01 
    7.9685342150485443E+00 
    9.4723375683595918E+00 
    1.2845277586888900E+01 
    4.8662727948296105E+00 
    1.2898399487095261E+01 
    8.0748576406165302E+00 
    9.0400590023485894E-01 
    8.7144455778703271E+00 
    1.3427437770411871E+01 
    1.2601726166652576E+01 
    1.2619976990444322E+01 
    9.6597538731426891E+00 
    9.5450327547289806E+00 
    7.9494947587086635E+00 
    6.3686890940835674E+00 
    1.2946340718896032E+01 
    8.8495370138211999E+00 
    6.2182221306864616E+00 
    1.2614976261537048E+01 
    1.3249406280688495E+01 
    9.4729290471482521E+00 
    9.1217260644352436E+00 
    1.5583369236471135E+01 
    9.7533334996718235E+00 
    1.2965011637139446E+01 
    7.5458180642520079E+00 
    1.5729830589045514E+01 
    6.1639749508389077E+00 
    8.3432227741474545E+00 
    6.9152248537122860E+00 
    9.9648584154268480E+00 
    7.9215928925679879E+00 
    1.5713529971379835E+01 
    9.7974038632562532E+00 
    1.2310941537357870E+01 
    6.3420909827639829E+00 
    9.3681183219172954E+00 
    1.2818491450042316E+01 
    7.9498268468197164E+00 
    6.6221814933178695E+00 
    1.0257009825766886E+01 
    1.3037770048217553E+01 
    6.8092476431249525E+00 
    8.7953766718404349E+00 
    9.1478226194598822E+00 
    1.2579202007030158E+01 
    8.9613732162861588E+00 
    1.3009723729327110E+01 
    1.3592422418131099E+01 
    7.9741969637311696E+00 
    7.8108647486953311E+00 
    7.3896245542264865E+00 
    1.2708677085813678E+01 
    9.6159818431486013E+00 
    1.5292718236203854E+01 
    1.1979024605655828E+01 
    1.2779768729429094E+01 
    1.4989454028439873E+01 
    1.4400681291417843E+01 
    9.4161549777536475E+00 
    9.2638168708985571E+00 
    1.2390307069302439E+01 
    1.2636274111648502E+01 
    1.3107886995950961E+01 
    1.2868129262037634E+01 
    1.5602668345268192E+01 
    9.7529120779726686E+00 
    8.0682722888801237E+00 
    9.7355799492393587E+00 
    1.3511228952748739E+01 
    9.5127282158584769E+00 
    5.4849525317096184E+00 
    9.1511087914040683E+00 
    1.3906560554486079E+01 
    9.6418372137385226E+00 
    8.0777981338152713E+00 
    9.0892806599225349E+00 
    1.4012422586720596E+01 
    1.2636443375208634E+01 
    7.6547205765772075E+00 
    1.4143095076404189E+01 
    9.4462449004112585E+00 
    1.3106470484241035E+01 
    1.4025108039227723E+01 
    9.8389330247850264E+00 
    4.8691098116864939E+00 
    1.0228023441095406E+01 
    5.0391481666072622E+00 
    9.5604193682916154E+00 
    9.3554881236747889E+00 
    1.0764395856823327E+01 
    5.3295017425968405E+00 
    1.1425773770304023E+01 
    9.3805778702242737E+00 
    1.2859224842858056E+01 
    9.8076366224761937E+00 
    7.4646248883937858E+00 
    8.9732613258516523E+00 
    9.8388308960300748E+00 
    9.8495805754148087E+00 
    1.3633630414405541E+01 
    7.7002222612233515E+00 
    7.5657514997067192E+00 
    5.6090585910341213E+00 
    1.3131278234707283E+01 
    9.0110116203289632E+00 
    1.2445461285348017E+01 
    9.3264147801152291E+00 
    6.1443778458071634E+00 
    1.2662231276397248E+01 
    9.2979309489727999E+00 
    6.7131525918427988E+00 
    7.1228621272648835E+00 
    7.3816852346360244E+00 
    1.2886828927746310E+01 
    9.2804825057810838E+00 
    1.3482693220809184E+01 
    9.2496213397809353E+00 
    9.1827260962002661E+00 
    8.7160259301149789E+00 
    1.2738420903981805E+01 
    9.1002730311377533E+00 
    7.4202818679140776E+00 
    1.4388601888239480E+01 
    1.2812474406595117E+01 
    6.4617746195079215E+00 
    2.4802868332031127E+00 
    9.2699629787715629E+00 
    8.7227186016878449E+00 
    7.8043449414695925E+00 
    8.5292129895458810E+00 
    1.2787821548520105E+01 
    8.9888111985023347E+00 
    8.1220032556465487E+00 
    1.2656237823443137E+01 
    6.4029840926187269E+00 
    1.2353583773512721E+01 
    8.4343653376094530E+00 
    7.3512888618210663E+00 
    7.8811886421473876E+00 
    1.3186086644102232E+01 
    9.3465222392719625E+00 
    9.3551130333474557E+00 
    5.4107075874514345E+00 
    5.8576253874829751E+00 
    1.1732914676120496E+01 
    9.3654643810888327E+00 
    9.3107696735765924E+00 
    1.4128562078367480E+01 
    7.5683657595923881E+00 
    9.3781717043654194E+00 
    6.6231553114378316E+00 
    6.8329885731279170E+00 
    1.2731085240345561E+01 
    8.9939657966955053E+00 
    6.4703871078742754E+00 
    9.8514120670183019E+00 
    9.2291352916494436E+00 
    1.2734311797369358E+01 
    1.4218099534116854E+01 
    9.5294430214530945E-01 
    9.2747434360243304E+00 
    9.6023218696489163E+00 
    1.2794226505751862E+01 
    8.7847744007340722E+00 
    9.3179898652238418E+00 
    1.3681852136663942E+01 
    7.9145483089062090E+00 
    6.5290879286389014E+00 
    1.1305956905628431E+01 
    1.2614311476284918E+01 
    1.3564343219036937E+01 
    1.3820852075390235E+01 
    9.1212541309373645E+00 
    9.2667100689948487E+00 
    1.0498075221722788E+01 
    6.1358832709940980E+00 
    1.2731186380163724E+01 
    7.0448695510842478E+00 
    6.3936608049824164E+00 
    1.1693046761699719E+01 
    1.1000653169807912E+01 
    6.2688044181976839E+00 
    1.2647209696744714E+01 
    1.3550927036058882E+01 
    9.7674165062507043E+00 
    1.4315822726753133E+01 
    1.2677029790523568E+01 
    8.8573075149010503E+00 
    1.3305401455801572E+01 
    6.8376257961813884E+00 
    1.2631176527177688E+01 
    9.2738221971744430E+00 
    9.2350449894144688E+00 
    1.4291180084194906E+01 
    9.0416866283849675E+00 
    1.1425381628257645E+01 
    7.8666113644586808E+00 
    1.3662140863732519E+01 
    1.2546221883463339E+01 
    8.2150376890672927E+00 
    1.2592285988383175E+01 
    8.4421968681869419E+00 
    9.3303580382538502E+00 
    1.3513114799423596E+01 
    1.2861709652315779E+01 
    1.3554009218234828E+01 
    1.2797102869497769E+01 
    8.4168835160907722E+00 
    8.6269859223078242E+00 
    1.3560309580944672E+01 
    8.7454046079414347E+00 
    1.2485364649327179E+01 
    9.0331887720736042E+00 
    3.6438783521266527E+00 
    6.4630519142975400E+00 
    5.9787938521972253E+00 
    1.3516339099714045E+01 
    1.4223817007057299E+01 
    1.2609103453361818E+01 
    1.0832404464460049E+01 
    1.2871547001660893E+01 
    1.2653892126558452E+01 
    1.3192199524027306E+01 
    5.2224956016894311E+00 
    3.3974730305982397E+00 
    1.0638142924923917E+01 
    8.9388055069438312E+00 
    1.2789218566506676E+01 
    1.2786903527869145E+01 
    9.6200758642123692E+00 
    1.2821014373784379E+01 
    9.2612230824786295E+00 
    9.1728321375102286E+00 
    4.7111273082828289E+00 
    3.3839800804073827E+00 
    1.4009671757696557E+01 
    7.2607326836115860E+00 
    8.1595711855910711E+00 
    9.5215382975843283E+00 
    1.5584565570093035E+01 
    9.6111607716301943E+00 
    9.5656978456662234E+00 
    3.8500497688231099E+00 
    9.6118637193927583E+00 
    9.6246913659653348E+00 
    1.3080071182784133E+01 
    7.8853681383661076E+00 
    8.9111322564277629E+00 
    1.4170538963771815E+01 
    9.2829293898052647E+00 
    1.2623772893525706E+01 
    1.2859973595060511E+01 
    1.1538057087832742E+01 
    7.8872999401248522E+00 
    1.2796475438669473E+01 
    9.0787832544704976E+00 
    1.2805763401709827E+01 
    1.2566727216336206E+01 
    1.3534287752490432E+01 
    1.2795637369677982E+01 
    1.2033162713779285E+01 
    9.2719962517606813E+00 
    6.2202436348545769E+00 
    1.5459491045559140E+01 
    7.1902396795860009E+00 
    1.3469991272595445E+01 
    9.2694385021262384E+00 
    7.6064182978338462E+00 
    4.5554377938978723E+00 
    9.6571775242112778E+00 
    1.2784581561329508E+01 
    1.2780552708489269E+01 
    9.3091905995033706E+00 
    9.2636813784390011E+00 
    1.4370274539019155E+01 
    1.3766449795131638E+01 
    9.6282858942558889E+00 
    3.1617659648128216E+00 
    1.2002200423114894E+01 
    1.5711477892215683E+01 
    9.2752831178851185E+00 
    1.1177213211218726E+01 
    8.7814087973428343E+00 
    1.5319365929946731E+01 
    1.3841353425646012E+01 
    1.3587756553243667E+01 
    9.6483323608871974E+00 
    4.2450708011080733E+00 
    8.7405932583937211E+00 
    8.8067660239200443E+00 
    8.8509331918951393E+00 
    3.4402217617469857E+00 