# vtk DataFile Version 2.0
Pressure Field Data 
ASCII 
DATASET UNSTRUCTURED_GRID 

POINTS 2860 double 

    0.0000000000000000E+00     0.0000000000000000E+00     0.0000000000000000E+00 
    1.0000000000000000E+00     0.0000000000000000E+00     0.0000000000000000E+00 
    1.0000000000000000E+00     1.0000000000000000E+00     0.0000000000000000E+00 
    0.0000000000000000E+00     1.0000000000000000E+00     0.0000000000000000E+00 
    2.5000000000000000E-01     2.5000000000000000E-01     0.0000000000000000E+00 
    7.5000000000000000E-01     2.5000000000000000E-01     0.0000000000000000E+00 
    7.5000000000000000E-01     7.5000000000000000E-01     0.0000000000000000E+00 
    2.5000000000000000E-01     7.5000000000000000E-01     0.0000000000000000E+00 
    3.1249999999942091E-02     0.0000000000000000E+00     0.0000000000000000E+00 
    6.2499999999873469E-02     0.0000000000000000E+00     0.0000000000000000E+00 
    9.3749999999826514E-02     0.0000000000000000E+00     0.0000000000000000E+00 
    1.2499999999977961E-01     0.0000000000000000E+00     0.0000000000000000E+00 
    1.5624999999968961E-01     0.0000000000000000E+00     0.0000000000000000E+00 
    1.8749999999959971E-01     0.0000000000000000E+00     0.0000000000000000E+00 
    2.1874999999950970E-01     0.0000000000000000E+00     0.0000000000000000E+00 
    2.4999999999941969E-01     0.0000000000000000E+00     0.0000000000000000E+00 
    2.8124999999932920E-01     0.0000000000000000E+00     0.0000000000000000E+00 
    3.1249999999923850E-01     0.0000000000000000E+00     0.0000000000000000E+00 
    3.4374999999914790E-01     0.0000000000000000E+00     0.0000000000000000E+00 
    3.7499999999905720E-01     0.0000000000000000E+00     0.0000000000000000E+00 
    4.0624999999896660E-01     0.0000000000000000E+00     0.0000000000000000E+00 
    4.3749999999887590E-01     0.0000000000000000E+00     0.0000000000000000E+00 
    4.6874999999878530E-01     0.0000000000000000E+00     0.0000000000000000E+00 
    4.9999999999869471E-01     0.0000000000000000E+00     0.0000000000000000E+00 
    5.3124999999877620E-01     0.0000000000000000E+00     0.0000000000000000E+00 
    5.6249999999885780E-01     0.0000000000000000E+00     0.0000000000000000E+00 
    5.9374999999893940E-01     0.0000000000000000E+00     0.0000000000000000E+00 
    6.2499999999902101E-01     0.0000000000000000E+00     0.0000000000000000E+00 
    6.5624999999910261E-01     0.0000000000000000E+00     0.0000000000000000E+00 
    6.8749999999918421E-01     0.0000000000000000E+00     0.0000000000000000E+00 
    7.1874999999926570E-01     0.0000000000000000E+00     0.0000000000000000E+00 
    7.4999999999934730E-01     0.0000000000000000E+00     0.0000000000000000E+00 
    7.8124999999942890E-01     0.0000000000000000E+00     0.0000000000000000E+00 
    8.1249999999951039E-01     0.0000000000000000E+00     0.0000000000000000E+00 
    8.4374999999959199E-01     0.0000000000000000E+00     0.0000000000000000E+00 
    8.7499999999967359E-01     0.0000000000000000E+00     0.0000000000000000E+00 
    9.0624999999975520E-01     0.0000000000000000E+00     0.0000000000000000E+00 
    9.3749999999983680E-01     0.0000000000000000E+00     0.0000000000000000E+00 
    9.6874999999991840E-01     0.0000000000000000E+00     0.0000000000000000E+00 
    1.0000000000000000E+00     3.1249999999942091E-02     0.0000000000000000E+00 
    1.0000000000000000E+00     6.2499999999873469E-02     0.0000000000000000E+00 
    1.0000000000000000E+00     9.3749999999826514E-02     0.0000000000000000E+00 
    1.0000000000000000E+00     1.2499999999977961E-01     0.0000000000000000E+00 
    1.0000000000000000E+00     1.5624999999968961E-01     0.0000000000000000E+00 
    1.0000000000000000E+00     1.8749999999959971E-01     0.0000000000000000E+00 
    1.0000000000000000E+00     2.1874999999950970E-01     0.0000000000000000E+00 
    1.0000000000000000E+00     2.4999999999941969E-01     0.0000000000000000E+00 
    1.0000000000000000E+00     2.8124999999932920E-01     0.0000000000000000E+00 
    1.0000000000000000E+00     3.1249999999923850E-01     0.0000000000000000E+00 
    1.0000000000000000E+00     3.4374999999914790E-01     0.0000000000000000E+00 
    1.0000000000000000E+00     3.7499999999905720E-01     0.0000000000000000E+00 
    1.0000000000000000E+00     4.0624999999896660E-01     0.0000000000000000E+00 
    1.0000000000000000E+00     4.3749999999887590E-01     0.0000000000000000E+00 
    1.0000000000000000E+00     4.6874999999878530E-01     0.0000000000000000E+00 
    1.0000000000000000E+00     4.9999999999869471E-01     0.0000000000000000E+00 
    1.0000000000000000E+00     5.3124999999877620E-01     0.0000000000000000E+00 
    1.0000000000000000E+00     5.6249999999885780E-01     0.0000000000000000E+00 
    1.0000000000000000E+00     5.9374999999893940E-01     0.0000000000000000E+00 
    1.0000000000000000E+00     6.2499999999902101E-01     0.0000000000000000E+00 
    1.0000000000000000E+00     6.5624999999910261E-01     0.0000000000000000E+00 
    1.0000000000000000E+00     6.8749999999918421E-01     0.0000000000000000E+00 
    1.0000000000000000E+00     7.1874999999926570E-01     0.0000000000000000E+00 
    1.0000000000000000E+00     7.4999999999934730E-01     0.0000000000000000E+00 
    1.0000000000000000E+00     7.8124999999942890E-01     0.0000000000000000E+00 
    1.0000000000000000E+00     8.1249999999951039E-01     0.0000000000000000E+00 
    1.0000000000000000E+00     8.4374999999959199E-01     0.0000000000000000E+00 
    1.0000000000000000E+00     8.7499999999967359E-01     0.0000000000000000E+00 
    1.0000000000000000E+00     9.0624999999975520E-01     0.0000000000000000E+00 
    1.0000000000000000E+00     9.3749999999983680E-01     0.0000000000000000E+00 
    1.0000000000000000E+00     9.6874999999991840E-01     0.0000000000000000E+00 
    9.6875000000003686E-01     1.0000000000000000E+00     0.0000000000000000E+00 
    9.3750000000011691E-01     1.0000000000000000E+00     0.0000000000000000E+00 
    9.0625000000015765E-01     1.0000000000000000E+00     0.0000000000000000E+00 
    8.7500000000017863E-01     1.0000000000000000E+00     0.0000000000000000E+00 
    8.4375000000028044E-01     1.0000000000000000E+00     0.0000000000000000E+00 
    8.1250000000040856E-01     1.0000000000000000E+00     0.0000000000000000E+00 
    7.8125000000054956E-01     1.0000000000000000E+00     0.0000000000000000E+00 
    7.5000000000066480E-01     1.0000000000000000E+00     0.0000000000000000E+00 
    7.1875000000086831E-01     1.0000000000000000E+00     0.0000000000000000E+00 
    6.8750000000102829E-01     1.0000000000000000E+00     0.0000000000000000E+00 
    6.5625000000114431E-01     1.0000000000000000E+00     0.0000000000000000E+00 
    6.2500000000129829E-01     1.0000000000000000E+00     0.0000000000000000E+00 
    5.9375000000147926E-01     1.0000000000000000E+00     0.0000000000000000E+00 
    5.6250000000168354E-01     1.0000000000000000E+00     0.0000000000000000E+00 
    5.3125000000188671E-01     1.0000000000000000E+00     0.0000000000000000E+00 
    5.0000000000205835E-01     1.0000000000000000E+00     0.0000000000000000E+00 
    4.6875000000192979E-01     1.0000000000000000E+00     0.0000000000000000E+00 
    4.3750000000180111E-01     1.0000000000000000E+00     0.0000000000000000E+00 
    4.0625000000167238E-01     1.0000000000000000E+00     0.0000000000000000E+00 
    3.7500000000154382E-01     1.0000000000000000E+00     0.0000000000000000E+00 
    3.4375000000141509E-01     1.0000000000000000E+00     0.0000000000000000E+00 
    3.1250000000128642E-01     1.0000000000000000E+00     0.0000000000000000E+00 
    2.8125000000115769E-01     1.0000000000000000E+00     0.0000000000000000E+00 
    2.5000000000102918E-01     1.0000000000000000E+00     0.0000000000000000E+00 
    2.1875000000090050E-01     1.0000000000000000E+00     0.0000000000000000E+00 
    1.8750000000077180E-01     1.0000000000000000E+00     0.0000000000000000E+00 
    1.5625000000064329E-01     1.0000000000000000E+00     0.0000000000000000E+00 
    1.2500000000051459E-01     1.0000000000000000E+00     0.0000000000000000E+00 
    9.3750000000385914E-02     1.0000000000000000E+00     0.0000000000000000E+00 
    6.2500000000257239E-02     1.0000000000000000E+00     0.0000000000000000E+00 
    3.1250000000128557E-02     1.0000000000000000E+00     0.0000000000000000E+00 
    0.0000000000000000E+00     9.6875000000003686E-01     0.0000000000000000E+00 
    0.0000000000000000E+00     9.3750000000011691E-01     0.0000000000000000E+00 
    0.0000000000000000E+00     9.0625000000015765E-01     0.0000000000000000E+00 
    0.0000000000000000E+00     8.7500000000017863E-01     0.0000000000000000E+00 
    0.0000000000000000E+00     8.4375000000028044E-01     0.0000000000000000E+00 
    0.0000000000000000E+00     8.1250000000040856E-01     0.0000000000000000E+00 
    0.0000000000000000E+00     7.8125000000054956E-01     0.0000000000000000E+00 
    0.0000000000000000E+00     7.5000000000066480E-01     0.0000000000000000E+00 
    0.0000000000000000E+00     7.1875000000086831E-01     0.0000000000000000E+00 
    0.0000000000000000E+00     6.8750000000102829E-01     0.0000000000000000E+00 
    0.0000000000000000E+00     6.5625000000114431E-01     0.0000000000000000E+00 
    0.0000000000000000E+00     6.2500000000129829E-01     0.0000000000000000E+00 
    0.0000000000000000E+00     5.9375000000147926E-01     0.0000000000000000E+00 
    0.0000000000000000E+00     5.6250000000168354E-01     0.0000000000000000E+00 
    0.0000000000000000E+00     5.3125000000188671E-01     0.0000000000000000E+00 
    0.0000000000000000E+00     5.0000000000205835E-01     0.0000000000000000E+00 
    0.0000000000000000E+00     4.6875000000192979E-01     0.0000000000000000E+00 
    0.0000000000000000E+00     4.3750000000180111E-01     0.0000000000000000E+00 
    0.0000000000000000E+00     4.0625000000167238E-01     0.0000000000000000E+00 
[...]
CELL_DATA 2795 
SCALARS Pressure double 1 
LOOKUP_TABLE default 

    6.2799638558550441E+00 
    1.4365023702697505E+01 
    1.0116040107523565E+01 
    9.7251480646540802E+00 
    7.7236374537871688E+00 
    1.4234203995372694E+01 
    1.4959964226580908E+01 
    5.6082969049055240E+00 
    1.0680207787064578E+01 
    8.1776126594311780E+00 
    6.9778100528198967E+00 
    1.3977537267434942E+01 
    1.4273293168294551E+01 
    1.4203254558924382E+01 
    9.3394302008439407E+00 
    5.5154856528803426E+00 
    8.9403105442135367E+00 
    7.4294917322976550E+00 
    1.3613945066144952E+01 
    1.0104508407438484E+01 
    9.9993076978032605E+00 
    1.4138002644860194E+01 
    9.4571241752131563E+00 
    3.6883703164938808E-01 
    1.3975684872153682E+01 
    1.4242612404766275E+01 
    1.4991063995544954E+01 
    6.7087491253400202E+00 
    1.3897859785640643E+01 
    1.4985042458188735E+01 
    1.0166235426931065E+01 
    1.0321424089457155E+01 
    7.2515247385081922E+00 
    1.0078603401300125E+01 
    3.2509231433112609E+00 
    8.9459909679130885E+00 
    1.0067379131698679E+01 
    1.5024665612997930E+01 
    1.4937044819303107E+01 
    1.3990393129379637E+01 
    7.6650827836979678E+00 
    1.3949646305091614E+01 
    7.6743951155362600E-01 
    9.9737731735282278E+00 
    1.4752302165341458E+01 
    1.4582316959530472E+01 
    1.3966830559548553E+01 
    1.1041477607299196E+01 
    1.4037515775185408E+01 
    9.1472633969569159E+00 
    8.7131935875558870E+00 
    1.0286707755945548E+01 
    9.8628902532855545E+00 
    8.9922805328860242E+00 
    1.0234755304670303E+01 
    1.3403571572034148E+01 
    1.2040214524924274E+01 
    7.7655141223563353E+00 
    1.4142278262372903E+01 
    1.4064960634702718E+01 
    9.7130663090528042E+00 
    9.7312658179051361E+00 
    9.6271716539060463E+00 
    1.4887582105307615E+01 
    1.5140266227797895E+01 
    8.9505570673683508E+00 
    1.0285955565909831E+01 
    1.3865806063128163E+01 
    1.1855696262032414E+01 
    9.7763354847273636E+00 
    1.5149504562688742E+01 
    1.4086693480921340E+01 
    8.8255318014187125E+00 
    1.4683884201294115E+01 
    1.0466000643626542E+01 
    1.3827460039884539E+01 
    1.5035123608493132E+01 
    1.0511575511638837E+01 
    6.4358186947511760E+00 
    1.0304674034246135E+01 
    1.4946030451519912E+01 
    1.5179200686953045E+01 
    8.9652140034276204E+00 
    1.0221976840022224E+01 
    1.5223601869132775E+01 
    1.0069613344219491E+01 
    9.5434940808572684E+00 
    1.2277414909718896E+01 
    6.1263525613316752E+00 
    8.7362179869503240E+00 
    1.0221285512687656E+01 
    1.0839375904260562E+01 
    1.6689805076097432E+01 
    7.5054228016207833E+00 
    1.0294199739498644E+01 
    1.3944663416719775E+01 
    1.4224675227055023E+01 
    6.6078501437862123E+00 
    9.9401873692133673E+00 
    1.0251713208651415E+01 
    1.4245092420347250E+01 
    1.0251462229215958E+01 
    1.4176866511732337E+01 
    4.0158995600684531E+00 
    6.7843670215026188E+00 
    1.0530421719431276E+01 
    1.4373178145189099E+01 
    8.9108774278891509E+00 
    9.4923940826445214E+00 
    1.0234993378250259E+01 
    9.5097503629390729E+00 
    1.1621970199995348E+01 
    9.2325454107889637E+00 
    8.8335818038526241E+00 
    6.9788156327534088E+00 
    1.2031575924307965E+01 
    1.0322972315678944E+01 
    1.4799635808760103E+01 
    8.8715900905081924E+00 
    9.7065539594133536E+00 
    1.4074782951685355E+01 
    8.0916509450146616E+00 
    1.4522385129128567E+01 
    1.0145917587374948E+01 
    9.6357952827334294E+00 
    1.4226701101705157E+01 
    1.0316895159960886E+01 
    1.5046271899703497E+01 
    1.2290268595541404E+01 
    1.3249830159182052E+01 
    1.5007760731967482E+01 
    7.5206396188946627E+00 
    1.0556243845213931E+01 
    1.4227077798654152E+01 
    3.0090364084968475E+00 
    1.0213475195498184E+01 
    1.4974259712456730E+01 
    9.6647690901332108E+00 
    1.1176131746788549E+01 
    6.5792078640002609E+00 
    1.3942676579036471E+01 
    1.7182110427933949E+01 
    1.2764604656879969E+01 
    9.6638344268564733E+00 
    8.6356828155766419E+00 
    1.0875339095177360E+01 
    1.0162794291149089E+01 
    7.0515784168442162E+00 
    1.5003622078118623E+01 
    1.4303831507640949E+01 
    1.3946339861070843E+01 
    1.0841272718587870E+01 
    8.7954937321628677E+00 
    9.9975965110586547E+00 
    1.4711683232197467E+01 
    9.0506707060313012E+00 
    1.0138502996425354E+01 
    9.2175000181486464E+00 
    1.1768861733142264E+01 
    1.7170273794590166E+01 
    1.3937942016263788E+01 
    8.7606534131949960E+00 
    1.4419613028518516E+01 
    1.4332436506615533E+01 
    1.4412442377961872E+01 
    1.5422322517772985E+01 
    1.5965833570496924E+01 
    1.4580263435973892E+01 
    1.0277668654612823E+01 
    1.1040982546911044E+01 
    1.4406329546709220E+01 
    1.4811606657697229E+01 
    7.3602283174289225E+00 
    1.3966485560860095E+01 
    1.4673633450544147E+01 
    7.1668561235067916E+00 
    1.5340659829488112E+01 
    1.5321608897001779E+01 
    1.3683951151937020E+01 
    1.0626164434238763E+01 
    2.6486456988412463E+00 
    1.4975022389797191E+01 
    1.0462655329850008E+01 
    1.5095689022717416E+01 
    9.5947750080551426E+00 
    1.4811236457064474E+01 
    9.4218481638795382E-01 
    1.3267450120129341E+01 
    9.7759377354771626E+00 
    8.7549977848320211E+00 
    8.5309128005447690E+00 
    1.0115646769265116E+01 
    1.1270223805682321E+01 
    1.0541226154367951E+01 
    7.0909530167365924E+00 
    1.4806263277415205E+01 
    1.4251138673121204E+01 
    1.1983223677891521E+01 
    1.0524889324422531E+01 
    1.5369052037343898E+00 
    7.8687170987944173E+00 
    5.4566693495212153E+00 
    1.4995747465009805E+01 
    1.1390535768307140E+01 
    1.4301827050506894E+01 
    1.4317509926372043E+01 
    9.1293196205488929E+00 
    1.1987521073937474E+01 
    1.3941915015125135E+01 
    1.5303758055033374E+01 
    6.5445057417489254E+00 
    1.2598021197450731E+01 
    1.0566448150140085E+01 
    5.8241617244673094E+00 
    9.1225105523678192E+00 
    1.2563440051510867E+01 
    1.4279285884601192E+01 
    1.0169612328047117E+01 
    1.4390125725638843E+01 
    1.4154980185400097E+01 
    1.4103901785172020E+01 
    1.0003747189105269E+01 
    8.6914833845349619E+00 
    1.3954173501774678E+01 
    8.8193182806866890E+00 
    1.0256457426951686E+01 
    8.6446567907245768E+00 
    1.0083776605038480E+01 
    1.4326390060782009E+01 
    6.3805305795691440E+00 
    9.0304305392706716E+00 
    1.4909836293090965E+01 
    1.0015831364807093E+01 
    1.1283624888300325E+01 
    6.5466900493748614E+00 
    8.8844831888716556E+00 
    1.4132997028234884E+01 
    1.4445996309077564E+01 
    5.3373014569778654E+00 
    1.0021528605991936E+01 
    8.6872908481498445E+00 
    1.5730334071821428E+01 
    1.5187077527977857E+01 
    1.5993275221818269E+01 
    1.0041684698786598E+01 
    1.4299807047773843E+01 
    1.3898566794510936E+01 
    9.9133774702119499E+00 
    1.3946754684944151E+01 
    1.0524631746254085E+01 
    5.9055867353497344E+00 
    1.0285877156080625E+01 
    1.4895613714476406E+01 
    1.3943555592555612E+01 
    6.9415467964808730E+00 
    1.3973487529014857E+01 
    1.1281478166926645E+01 
    1.0193785022600668E+01 
    9.7401242999745552E+00 
    1.3809413644001832E+01 
    1.0719760286018754E+01 
    1.3959664690168198E+01 
    9.9084437671063750E+00 
    6.1223962332803783E+00 
    1.0326641411984292E+01 
    8.5410224132717900E+00 
    1.2767471843313469E+01 
    1.5094835789777479E+01 
    1.3952466550806136E+01 
    1.4967841469797801E+01 
    9.9637384104116649E+00 
    6.7600977129612820E+00 
    6.8561332946632980E+00 
    1.0378097362953577E+01 
    1.0232449694783636E+01 
    1.4653349949480479E+00 
    1.3453245991177251E+01 
    1.5450244970350434E+01 
    9.6086910959531551E+00 
    6.1473676591952984E+00 
    1.1726155551986158E+01 
    1.3972067997985892E+01 
    7.2756173603460388E+00 
    4.9343652451043036E+00 
    1.0209878973632309E+01 
    1.4054549479242089E+01 
    1.4710119800666483E+01 
    1.4600264132471839E+01 
    1.4449615011466792E+01 
    7.1161364573239458E+00 
    1.0187905329220403E+01 
    1.3489624160383256E+01 
    8.0281203325167336E+00 
    1.4260255051869626E+01 
    1.2234357893392877E+01 
    6.9603195848528241E+00 
    1.4081263560153538E+01 
    1.5001111463644390E+01 
    1.4096852517928967E+01 
    7.0049845666469626E+00 
    1.0282170267924762E+01 
    7.6978750703737457E+00 
    9.7075033590306017E+00 
    1.3963384113576081E+01 
    1.3951408677363194E+01 
    7.0457300031009789E+00 
    1.4850892549791824E+01 
    1.0841089270963936E+01 
    1.3984362054944434E+01 
    1.4817738293153958E+01 
    1.3971410728080652E+01 
    1.3013280372767690E+01 
    1.5785302564869578E+01 
    9.5631062725933820E+00 
    1.4937017045557594E+01 
    1.4012975407323548E+01 
    1.5009944011491042E+01 
    1.4843918220273396E+01 
    9.6641556804657736E+00 
    1.0107765370328577E+01 
    9.5991416350894614E+00 
    1.2511322323929521E+01 
    4.0287612064283937E+00 
    1.0314308815245932E+01 
    1.5912030103813834E+01 
    1.0525552720323114E+01 
    1.0715853757256975E+01 
    1.4982909869884139E+01 
    1.5215138371033436E+01 
    9.4916238012430245E+00 
    1.3977898293261097E+01 
    1.3947440216660910E+01 
    1.0703315665773838E+01 
    1.4798655049056174E+01 
    7.3112141342388037E+00 
    4.6485201962475449E+00 
    1.0987642114728004E+01 
    1.0541414285741880E+01 
    1.3953674112815840E+01 
    6.5886058291540666E+00 
    1.4514767932559904E+01 
    4.7321743996586045E+00 
    1.0470114443732061E+01 
    9.6969795147730835E+00 
    1.0258816574728092E+01 
    1.7221798145510469E+01 
    3.9135673249364125E+00 
    1.0231015265765947E+01 
    1.2234436240799980E+01 
    9.8654771514307420E+00 
    7.7871141408768541E+00 
    1.4628442229624524E+01 
    1.6777352566741062E+01 
    1.4779203438040444E+01 
    1.0170704633090082E+01 
    5.7895540946989099E+00 
    1.6630110900462672E+01 
    1.4240226531912384E+01 
    7.4688553093831400E+00 
    9.8134032646887714E+00 
    1.5406038743497845E+01 
    3.3291374463606229E+00 
    1.0591605977848882E+01 
    1.4745126831895888E+01 
    1.0272170206713191E+01 
    8.9557752948763731E+00 
    1.0271097530527742E+01 
    1.3711982917670056E+01 
    1.0253460543515565E+01 
    5.1513185622989148E+00 
    9.1445153984648342E-01 
    7.6618313679837025E+00 
    1.5625869725333922E+01 
    9.5986147517755427E+00 
    1.1599930560553165E+01 
    1.1031371605022079E+01 
    1.2836829388240409E+01 
    1.0285545791921850E+01 
    1.4148380836982369E+01 
    1.7236154587482584E+01 
    1.2183478906366393E+01 
    1.4909422033224104E+01 
    5.4819511861720771E-01 
    1.3953468443115250E+01 
    5.7124736766714266E+00 
    1.6081833482577000E+01 
    1.0244751557707200E+01 
    9.1060038934097918E+00 
    7.8515743911932354E+00 
    5.4023509025480241E+00 
    1.1498329837025889E+01 
    8.1149344902826002E+00 
    1.2659866798861383E+01 
    2.2199482047406205E+00 
    1.1316591630517806E+01 
    1.3885479972914576E+01 
    6.2234871774322071E+00 
    1.4449469332474221E+01 
    1.5881279839602323E+01 
    1.4287619762086679E+01 
    1.0108843051649298E+01 
    1.0253534165960241E+01 
    1.0237416920325714E+01 
    5.8580413658333477E+00 
    9.3285093441744689E+00 
    9.1697685900235495E+00 
    1.0226350089797032E+01 
    9.5288935774629877E+00 
    6.9373965061370413E-01 
    6.5702093892611435E+00 
    9.9315394433308839E+00 
    1.0201065095307888E+01 
    1.3011063899104627E+01 
    2.1910900646293303E+00 
    1.0662577463921442E+01 
    1.0545642910255234E+01 
    3.7646596525138025E+00 
    1.4146139940990590E+01 
    8.8404740159787583E+00 
    1.0394040885656572E+01 
    1.4236876232542594E+01 
    5.4263530078218372E+00 
    1.4272046307648697E+01 
    8.9574335060942278E+00 
    1.0049983284675403E+00 
    9.6615266795120771E+00 
    1.4862466287748154E+01 
    1.3953280597384467E+01 
    1.3971889224765835E+01 
    1.0584529758035968E+01 
    1.0473963367484691E+01 
    8.8190330320691803E+00 
    7.1333305246606029E+00 
    1.4347792152838959E+01 
    9.8104880694238865E+00 
    6.9458522373905716E+00 
    1.3967561348881372E+01 
    1.4668966132747112E+01 
    1.0403938267835736E+01 
    1.0062142077638494E+01 
    1.7114743272094543E+01 
    1.0704191589843202E+01 
    1.4365205759048955E+01 
    8.3770777310676081E+00 
    1.7264822320197489E+01 
    6.8161336515638595E+00 
    9.2347683569002292E+00 
    7.6377622620560315E+00 
    1.0936709248358321E+01 
    8.7437712037324378E+00 
    1.7248251922144167E+01 
    1.0752554896537980E+01 
    1.3650406449246772E+01 
    7.0109207767938981E+00 
    1.0281813469079996E+01 
    1.4206192872623811E+01 
    8.7778671509300228E+00 
    7.4049939554613600E+00 
    1.1376129527263114E+01 
    1.4435161527076088E+01 
    7.5174498619579451E+00 
    9.7178206053671516E+00 
    1.0091844232667610E+01 
    1.3928526654649254E+01 
    9.8917153566593203E+00 
    1.4410368785264193E+01 
    1.5039037417624874E+01 
    8.8460530943020217E+00 
    8.6670442714995808E+00 
    8.1470962470945079E+00 
    1.4072169766580451E+01 
    1.0547812681283814E+01 
    1.6817035166238202E+01 
    1.3201088042260739E+01 
    1.4164852902954465E+01 
    1.6502740114720766E+01 
    1.5888945991732328E+01 
    1.0329103603066747E+01 
    1.0211075746041963E+01 
    1.3715899272971072E+01 
    1.3991863085241324E+01 
    1.4522904514481576E+01 
    1.4260823328504747E+01 
    1.7135787295695039E+01 
    1.0703725002145839E+01 
    8.9500183181860873E+00 
    1.0698248529009678E+01 
    1.4951836019131880E+01 
    1.0434902665190005E+01 
    6.0764666950900619E+00 
    1.0092600590804251E+01 
    1.5372495780898701E+01 
    1.0582137398234902E+01 
    8.9605642668387162E+00 
    1.0033294050529273E+01 
    1.5484375825969961E+01 
    1.4006815040824144E+01 
    8.5037139132254342E+00 
    1.5622133788381680E+01 
    1.0359217307052869E+01 
    1.4515253242010839E+01 
    1.5497903583626515E+01 
    1.0879371161973392E+01 
    5.4319639598963851E+00 
    1.1329231018081357E+01 
    5.6230478766169174E+00 
    1.0492831577546658E+01 
    1.0273987152776106E+01 
    1.1935533687366664E+01 
    5.9460901364162471E+00 
    1.2670860012061405E+01 
    1.0293948847125201E+01 
    1.4250932434701152E+01 
    1.0876344305989660E+01 
    8.3183046222113646E+00 
    9.9080629858350253E+00 
    1.0746264664564150E+01 
    1.0808908646632105E+01 
    1.5083683002253348E+01 
    8.5446863046824575E+00 
    8.3970373473965392E+00 
    6.2557462249236542E+00 
    1.4546427100197116E+01 
    9.9489923050775708E+00 
    1.3797606529787496E+01 
    1.0244576306198562E+01 
    6.8461264489839735E+00 
    1.4036063246403657E+01 
    1.0220113704557486E+01 
    7.4675817959737714E+00 
    7.9137168338874435E+00 
    8.1962778371889051E+00 
    1.4281512143490344E+01 
    1.0228353080440092E+01 
    1.4921161019750807E+01 
    1.0179022885921537E+01 
    1.0117448599714290E+01 
    9.6355895835784686E+00 
    1.4119733929521200E+01 
    1.0034844435031578E+01 
    8.2375185156367934E+00 
    1.5876951814935120E+01 
    1.4201154279060896E+01 
    7.1418397800887155E+00 
    2.7629801711345974E+00 
    1.0217785340224543E+01 
    9.6317655811965892E+00 
    8.6591545504747298E+00 
    9.4367736713629142E+00 
    1.4159941318665044E+01 
    9.9233855911632762E+00 
    9.0053180160363056E+00 
    1.4013962989128455E+01 
    7.0781973901902537E+00 
    1.3675463470869300E+01 
    9.3033512752813792E+00 
    8.1838037496858433E+00 
    8.7440563856585864E+00 
    1.4600850355600047E+01 
    1.0261742980246799E+01 
    1.0269810043878799E+01 
    6.0277266791174648E+00 
    6.5196456305706914E+00 
    1.3006257888635711E+01 
    1.0279584764231783E+01 
    1.0257957312603875E+01 
    1.5607517869497423E+01 
    8.4004389198867795E+00 
    1.0291879562176907E+01 
    7.3205407245996108E+00 
    7.5512927354240515E+00 
    1.4113286984949777E+01 
    9.9221180506703739E+00 
    7.1935424931817753E+00 
    1.0850795468835953E+01 
    1.0166167973729685E+01 
    1.4116187605672931E+01 
    1.5701446207266692E+01 
    1.0565557342023058E+00 
    1.0222713865148593E+01 
    1.0539332631040601E+01 
    1.4180808787149822E+01 
    9.7352476864963027E+00 
    1.0235573448874201E+01 
    1.5137032860082464E+01 
    8.7807824002566637E+00 
    7.2584914526051563E+00 
    1.2426056582266488E+01 
    1.3967229911354883E+01 
    1.5008515977524494E+01 
    1.5279844338401691E+01 
    1.0064022034548680E+01 
    1.0214167049950104E+01 
    1.1566177417559770E+01 
    6.7852698317222933E+00 
    1.4097305988674114E+01 
    7.8244201775318505E+00 
    7.0673192906256510E+00 
    1.2899254050821547E+01 
    1.2138086809573425E+01 
    6.9305531767533184E+00 
    1.4003434359957337E+01 
    1.4994412771231953E+01 
    1.0719629766912488E+01 
    1.5804152104390914E+01 
    1.4037038283582989E+01 
    9.7988600427236943E+00 
    1.4730603996223858E+01 
    7.5557359421387877E+00 
    1.3986197401119053E+01 
    1.0221634576134349E+01 
    1.0183078940608507E+01 
    1.5779628550608578E+01 
    9.9833401395535564E+00 
    1.2618967983628488E+01 
    8.7280026977355156E+00 
    1.5113415528634283E+01 
    1.3891687592901413E+01 
    9.1086860222217858E+00 
    1.3942398540976198E+01 
    9.3242105415407579E+00 
    1.0244638537702031E+01 
    1.4953624792526995E+01 
    1.4256192129682745E+01 
    1.4997608672076318E+01 
    1.4184113374505142E+01 
    9.3342580304824008E+00 
    9.5531324030226674E+00 
    1.5004618172856542E+01 
    9.6800652519836081E+00 
    1.3822005025165812E+01 
    9.9722809233738214E+00 
    4.0602839663812462E+00 
    7.1412881757162481E+00 
    6.6129385080572414E+00 
    1.4957261365319178E+01 
    1.5707988162370023E+01 
    1.3960727832121105E+01 
    1.1856346461035164E+01 
    1.4253343019281131E+01 
    1.4011461968002363E+01 
    1.4603551700588305E+01 
    5.8223232363048663E+00 
    3.7846345057225599E+00 
    1.1646060018958606E+01 
    9.8963578124652649E+00 
    1.4161568846356007E+01 
    1.4159024059374266E+01 
    1.0564103695519401E+01 
    1.4196742672188536E+01 
    1.0208467151646602E+01 
    1.0137821982678679E+01 
    5.2530952741699091E+00 
    3.7709651089008056E+00 
    1.5481154372357604E+01 
    8.0212318400801816E+00 
    9.0508571226465513E+00 
    1.0447119618868253E+01 
    1.7116565573421020E+01 
    1.0549102911783335E+01 
    1.0556313109646672E+01 
    4.2923376410917511E+00 
    1.0550733751605490E+01 
    1.0565491961449617E+01 
    1.4483606060977239E+01 
    8.7499152418522641E+00 
    9.8224249182863694E+00 
    1.5651287793217122E+01 
    1.0231067749965630E+01 
    1.3976852335992074E+01 
    1.4238125085313426E+01 
    1.2642107545989749E+01 
    8.7141233574043611E+00 
    1.4183677130120005E+01 
    1.0027133233293213E+01 
    1.4165894686481309E+01 
    1.3914707075471053E+01 
    1.4976597212660163E+01 
    1.4181931580466950E+01 
    1.3310330956957962E+01 
    1.0219706306354684E+01 
    6.8774646100293939E+00 
    1.6988398321678254E+01 
    7.9844738118673435E+00 
    1.4905067827569150E+01 
    1.0217125529594375E+01 
    8.4445336670209041E+00 
    5.0617997915402659E+00 
    1.0603238043405501E+01 
    1.4170365867282092E+01 
    1.4166668315896585E+01 
    1.0225468083239551E+01 
    1.0211320383546742E+01 
    1.5860268794974694E+01 
    1.5222313150405094E+01 
    1.0567799364818793E+01 
    3.5211687358929553E+00 
    1.3258765750355959E+01 
    1.7245691115810143E+01 
    1.0223006283421613E+01 
    1.2242530770179542E+01 
    9.7336171354819481E+00 
    1.6843627321295518E+01 
    1.5302809180800692E+01 
    1.5037142246335890E+01 
    1.0589625175205532E+01 
    4.7208753592425827E+00 
    9.6904439997347112E+00 
    9.7586714167151758E+00 
    9.7996680772080342E+00 
    3.8347677399842168E+00 