# vtk DataFile Version 2.0
Pressure Field Data 
ASCII 
DATASET UNSTRUCTURED_GRID 

POINTS 2860 double 

    0.0000000000000000E+00     0.0000000000000000E+00     0.0000000000000000E+00 
    1.0000000000000000E+00     0.0000000000000000E+00     0.0000000000000000E+00 
    1.0000000000000000E+00     1.0000000000000000E+00     0.0000000000000000E+00 
    0.0000000000000000E+00     1.0000000000000000E+00     0.0000000000000000E+00 
    2.5000000000000000E-01     2.5000000000000000E-01     0.0000000000000000E+00 
    7.5000000000000000E-01     2.5000000000000000E-01     0.0000000000000000E+00 
    7.5000000000000000E-01     7.5000000000000000E-01     0.0000000000000000E+00 
    2.5000000000000000E-01     7.5000000000000000E-01     0.0000000000000000E+00 
    3.1249999999942091E-02     0.0000000000000000E+00     0.0000000000000000E+00 
    6.2499999999873469E-02     0.0000000000000000E+00     0.0000000000000000E+00 
    9.3749999999826514E-02     0.0000000000000000E+00     0.0000000000000000E+00 
    1.2499999999977961E-01     0.0000000000000000E+00     0.0000000000000000E+00 
    1.5624999999968961E-01     0.0000000000000000E+00     0.0000000000000000E+00 
    1.8749999999959971E-01     0.0000000000000000E+00     0.0000000000000000E+00 
    2.1874999999950970E-01     0.0000000000000000E+00     0.0000000000000000E+00 
    2.4999999999941969E-01     0.0000000000000000E+00     0.0000000000000000E+00 
    2.8124999999932920E-01     0.0000000000000000E+00     0.0000000000000000E+00 
    3.1249999999923850E-01     0.0000000000000000E+00     0.0000000000000000E+00 
    3.4374999999914790E-01     0.0000000000000000E+00     0.0000000000000000E+00 
    3.7499999999905720E-01     0.0000000000000000E+00     0.0000000000000000E+00 
    4.0624999999896660E-01     0.0000000000000000E+00     0.0000000000000000E+00 
    4.3749999999887590E-01     0.0000000000000000E+00     0.0000000000000000E+00 
    4.6874999999878530E-01     0.0000000000000000E+00     0.0000000000000000E+00 
    4.9999999999869471E-01     0.0000000000000000E+00     0.0000000000000000E+00 
    5.3124999999877620E-01     0.0000000000000000E+00     0.0000000000000000E+00 
    5.6249999999885780E-01     0.0000000000000000E+00     0.0000000000000000E+00 
    5.9374999999893940E-01     0.0000000000000000E+00     0.0000000000000000E+00 
    6.2499999999902101E-01     0.0000000000000000E+00     0.0000000000000000E+00 
    6.5624999999910261E-01     0.0000000000000000E+00     0.0000000000000000E+00 
    6.8749999999918421E-01     0.0000000000000000E+00     0.0000000000000000E+00 
    7.1874999999926570E-01     0.0000000000000000E+00     0.0000000000000000E+00 
    7.4999999999934730E-01     0.0000000000000000E+00     0.0000000000000000E+00 
    7.8124999999942890E-01     0.0000000000000000E+00     0.0000000000000000E+00 
    8.1249999999951039E-01     0.0000000000000000E+00     0.0000000000000000E+00 
    8.4374999999959199E-01     0.0000000000000000E+00     0.0000000000000000E+00 
    8.7499999999967359E-01     0.0000000000000000E+00     0.0000000000000000E+00 
    9.0624999999975520E-01     0.0000000000000000E+00     0.0000000000000000E+00 
    9.3749999999983680E-01     0.0000000000000000E+00     0.0000000000000000E+00 
    9.6874999999991840E-01     0.0000000000000000E+00     0.0000000000000000E+00 
    1.0000000000000000E+00     3.1249999999942091E-02     0.0000000000000000E+00 
    1.0000000000000000E+00     6.2499999999873469E-02     0.0000000000000000E+00 
    1.0000000000000000E+00     9.3749999999826514E-02     0.0000000000000000E+00 
    1.0000000000000000E+00     1.2499999999977961E-01     0.0000000000000000E+00 
    1.0000000000000000E+00     1.5624999999968961E-01     0.0000000000000000E+00 
    1.0000000000000000E+00     1.8749999999959971E-01     0.0000000000000000E+00 
    1.0000000000000000E+00     2.1874999999950970E-01     0.0000000000000000E+00 
    1.0000000000000000E+00     2.4999999999941969E-01     0.0000000000000000E+00 
    1.0000000000000000E+00     2.8124999999932920E-01     0.0000000000000000E+00 
    1.0000000000000000E+00     3.1249999999923850E-01     0.0000000000000000E+00 
    1.0000000000000000E+00     3.4374999999914790E-01     0.0000000000000000E+00 
    1.0000000000000000E+00     3.7499999999905720E-01     0.0000000000000000E+00 
    1.0000000000000000E+00     4.0624999999896660E-01     0.0000000000000000E+00 
    1.0000000000000000E+00     4.3749999999887590E-01     0.0000000000000000E+00 
    1.0000000000000000E+00     4.6874999999878530E-01     0.0000000000000000E+00 
    1.0000000000000000E+00     4.9999999999869471E-01     0.0000000000000000E+00 
    1.0000000000000000E+00     5.3124999999877620E-01     0.0000000000000000E+00 
    1.0000000000000000E+00     5.6249999999885780E-01     0.0000000000000000E+00 
    1.0000000000000000E+00     5.9374999999893940E-01     0.0000000000000000E+00 
    1.0000000000000000E+00     6.2499999999902101E-01     0.0000000000000000E+00 
    1.0000000000000000E+00     6.5624999999910261E-01     0.0000000000000000E+00 
    1.0000000000000000E+00     6.8749999999918421E-01     0.0000000000000000E+00 
    1.0000000000000000E+00     7.1874999999926570E-01     0.0000000000000000E+00 
    1.0000000000000000E+00     7.4999999999934730E-01     0.0000000000000000E+00 
    1.0000000000000000E+00     7.8124999999942890E-01     0.0000000000000000E+00 
    1.0000000000000000E+00     8.1249999999951039E-01     0.0000000000000000E+00 
    1.0000000000000000E+00     8.4374999999959199E-01     0.0000000000000000E+00 
    1.0000000000000000E+00     8.7499999999967359E-01     0.0000000000000000E+00 
    1.0000000000000000E+00     9.0624999999975520E-01     0.0000000000000000E+00 
    1.0000000000000000E+00     9.3749999999983680E-01     0.0000000000000000E+00 
    1.0000000000000000E+00     9.6874999999991840E-01     0.0000000000000000E+00 
    9.6875000000003686E-01     1.0000000000000000E+00     0.0000000000000000E+00 
    9.3750000000011691E-01     1.0000000000000000E+00     0.0000000000000000E+00 
    9.0625000000015765E-01     1.0000000000000000E+00     0.0000000000000000E+00 
    8.7500000000017863E-01     1.0000000000000000E+00     0.0000000000000000E+00 
    8.4375000000028044E-01     1.0000000000000000E+00     0.0000000000000000E+00 
    8.1250000000040856E-01     1.0000000000000000E+00     0.0000000000000000E+00 
    7.8125000000054956E-01     1.0000000000000000E+00     0.0000000000000000E+00 
    7.5000000000066480E-01     1.0000000000000000E+00     0.0000000000000000E+00 
    7.1875000000086831E-01     1.0000000000000000E+00     0.0000000000000000E+00 
    6.8750000000102829E-01     1.0000000000000000E+00     0.0000000000000000E+00 
    6.5625000000114431E-01     1.0000000000000000E+00     0.0000000000000000E+00 
    6.2500000000129829E-01     1.0000000000000000E+00     0.0000000000000000E+00 
    5.9375000000147926E-01     1.0000000000000000E+00     0.0000000000000000E+00 
    5.6250000000168354E-01     1.0000000000000000E+00     0.0000000000000000E+00 
    5.3125000000188671E-01     1.0000000000000000E+00     0.0000000000000000E+00 
    5.0000000000205835E-01     1.0000000000000000E+00     0.0000000000000000E+00 
    4.6875000000192979E-01     1.0000000000000000E+00     0.0000000000000000E+00 
    4.3750000000180111E-01     1.0000000000000000E+00     0.0000000000000000E+00 
    4.0625000000167238E-01     1.0000000000000000E+00     0.0000000000000000E+00 
    3.7500000000154382E-01     1.0000000000000000E+00     0.0000000000000000E+00 
    3.4375000000141509E-01     1.0000000000000000E+00     0.0000000000000000E+00 
    3.1250000000128642E-01     1.0000000000000000E+00     0.0000000000000000E+00 
    2.8125000000115769E-01     1.0000000000000000E+00     0.0000000000000000E+00 
    2.5000000000102918E-01     1.0000000000000000E+00     0.0000000000000000E+00 
    2.1875000000090050E-01     1.0000000000000000E+00     0.0000000000000000E+00 
    1.8750000000077180E-01     1.0000000000000000E+00     0.0000000000000000E+00 
    1.5625000000064329E-01     1.0000000000000000E+00     0.0000000000000000E+00 
    1.2500000000051459E-01     1.0000000000000000E+00     0.0000000000000000E+00 
    9.3750000000385914E-02     1.0000000000000000E+00     0.0000000000000000E+00 
    6.2500000000257239E-02     1.0000000000000000E+00     0.0000000000000000E+00 
    3.1250000000128557E-02     1.0000000000000000E+00     0.0000000000000000E+00 
    0.0000000000000000E+00     9.6875000000003686E-01     0.0000000000000000E+00 
    0.0000000000000000E+00     9.3750000000011691E-01     0.0000000000000000E+00 
    0.0000000000000000E+00     9.0625000000015765E-01     0.0000000000000000E+00 
    0.0000000000000000E+00     8.7500000000017863E-01     0.0000000000000000E+00 
    0.0000000000000000E+00     8.4375000000028044E-01     0.0000000000000000E+00 
    0.0000000000000000E+00     8.1250000000040856E-01     0.0000000000000000E+00 
    0.0000000000000000E+00     7.8125000000054956E-01     0.0000000000000000E+00 
    0.0000000000000000E+00     7.5000000000066480E-01     0.0000000000000000E+00 
    0.0000000000000000E+00     7.1875000000086831E-01     0.0000000000000000E+00 
    0.0000000000000000E+00     6.8750000000102829E-01     0.0000000000000000E+00 
    0.0000000000000000E+00     6.5625000000114431E-01     0.0000000000000000E+00 
    0.0000000000000000E+00     6.2500000000129829E-01     0.0000000000000000E+00 
    0.0000000000000000E+00     5.9375000000147926E-01     0.0000000000000000E+00 
    0.0000000000000000E+00     5.6250000000168354E-01     0.0000000000000000E+00 
    0.0000000000000000E+00     5.3125000000188671E-01     0.0000000000000000E+00 
    0.0000000000000000E+00     5.0000000000205835E-01     0.0000000000000000E+00 
    0.0000000000000000E+00     4.6875000000192979E-01     0.0000000000000000E+00 
    0.0000000000000000E+00     4.3750000000180111E-01     0.0000000000000000E+00 
    0.0000000000000000E+00     4.0625000000167238E-01     0.0000000000000000E+00 
[...]
CELL_DATA 2795 
SCALARS Pressure double 1 
LOOKUP_TABLE default 

    7.9523399025896744E+00 
    1.9798821562397169E+01 
    1.3432994086857649E+01 
    1.3090723380706450E+01 
    1.0089212733915378E+01 
    1.9472438032557495E+01 
    2.0616080104600041E+01 
    6.9547621326668647E+00 
    1.4053198094798116E+01 
    1.0560568628346093E+01 
    8.8582066071766530E+00 
    1.9040482966212547E+01 
    1.9649545745140710E+01 
    1.9418052725447698E+01 
    1.2207718621046832E+01 
    6.8170967824552831E+00 
    1.1931713575986134E+01 
    9.4886923431094878E+00 
    1.8413679059769681E+01 
    1.3407875232150605E+01 
    1.3288365150353632E+01 
    1.9302516131882967E+01 
    1.2704861362134542E+01 
    4.4743394916071638E-01 
    1.9064170066107234E+01 
    1.9619269921717830E+01 
    2.0665339276305321E+01 
    8.4823685373775657E+00 
    1.8894469350819413E+01 
    2.0678952445612566E+01 
    1.3657964575783021E+01 
    1.3637162345524763E+01 
    9.2104425747756817E+00 
    1.3391148131709441E+01 
    4.0561004987614524E+00 
    1.1939206477477244E+01 
    1.3372577341413987E+01 
    2.0735377654994569E+01 
    2.0583845291137511E+01 
    1.9061985992959908E+01 
    9.9574274819047375E+00 
    1.9156020100597615E+01 
    9.2911758436777303E-01 
    1.3398020412605144E+01 
    2.0389415453255122E+01 
    1.9949904205201545E+01 
    1.9021981205454143E+01 
    1.4517475384046497E+01 
    1.9053865813402780E+01 
    1.2223166586266332E+01 
    1.1595691289044570E+01 
    1.3595456693765664E+01 
    1.3281009216070593E+01 
    1.2000439597468230E+01 
    1.3747851063795160E+01 
    1.8070738462728759E+01 
    1.5854754525836807E+01 
    1.0153759964639955E+01 
    1.9319247118469026E+01 
    1.9169491524543862E+01 
    1.3026469076239481E+01 
    1.2869270369986920E+01 
    1.2957586410624245E+01 
    2.0537692935005111E+01 
    2.0936470402575146E+01 
    1.1945806393625006E+01 
    1.3593449983390855E+01 
    1.8688639550404712E+01 
    1.5655615907939868E+01 
    1.2929672437596183E+01 
    2.0887877277391166E+01 
    1.9336560701373351E+01 
    1.1764648328926281E+01 
    2.0089605422444247E+01 
    1.4060122152409059E+01 
    1.8875358170881686E+01 
    2.0759370382923073E+01 
    1.4117969223224705E+01 
    8.0704141302493326E+00 
    1.3614838001153728E+01 
    2.0594624676609552E+01 
    2.0954994396710600E+01 
    1.1973901187980323E+01 
    1.3532400437153850E+01 
    2.1014740931367594E+01 
    1.3369002092309110E+01 
    1.2833035538125330E+01 
    1.6265548937057147E+01 
    7.6693484903378435E+00 
    1.1631714178576168E+01 
    1.3528427934603078E+01 
    1.4229381183609538E+01 
    2.2900976956529206E+01 
    9.7583589500675885E+00 
    1.3602670959342010E+01 
    1.8986696907077757E+01 
    1.9549892179039674E+01 
    8.4146110317794669E+00 
    1.3197753431736283E+01 
    1.3567781534935994E+01 
    1.9598373629481941E+01 
    1.3554094426189323E+01 
    1.9452788107390017E+01 
    4.8429839748276677E+00 
    8.6006947816738233E+00 
    1.3859090639646972E+01 
    1.9811896614241871E+01 
    1.1890372734150887E+01 
    1.2698520364015822E+01 
    1.3526155793794317E+01 
    1.2788265657723358E+01 
    1.5376735041598808E+01 
    1.2323161288719543E+01 
    1.1775769363228237E+01 
    8.8793705985364451E+00 
    1.6328888323309776E+01 
    1.3643186510329699E+01 
    2.0419357063824894E+01 
    1.1564253222189443E+01 
    1.3061617983213752E+01 
    1.9348495945714028E+01 
    1.0631433800455884E+01 
    2.0042847310493038E+01 
    1.3452020008691974E+01 
    1.2970125044330244E+01 
    1.9560070042379678E+01 
    1.3629376380138055E+01 
    2.0759821437875004E+01 
    1.6299050613841889E+01 
    1.7801852657630793E+01 
    2.0690077861616789E+01 
    9.7834114599458246E+00 
    1.3882567475337746E+01 
    1.9586546804310988E+01 
    3.6026339188842047E+00 
    1.3719564152506603E+01 
    2.0639673207347954E+01 
    1.3003752106097940E+01 
    1.5072589271307802E+01 
    8.2994222556424671E+00 
    1.9006121350151219E+01 
    2.3491132022848610E+01 
    1.6999180411295171E+01 
    1.3008723751379753E+01 
    1.1478984207997289E+01 
    1.4601337270204493E+01 
    1.3471650322747786E+01 
    8.9491848806893763E+00 
    2.0693148620983621E+01 
    1.9512853604860815E+01 
    1.8991124538261285E+01 
    1.4228210179001444E+01 
    1.1723632536906536E+01 
    1.3281637447641318E+01 
    2.0118794087372105E+01 
    1.2100359241032017E+01 
    1.3607776002838094E+01 
    1.2348356689397121E+01 
    1.6031053801976327E+01 
    2.3477142933995591E+01 
    1.8969096876375993E+01 
    1.1556728345052028E+01 
    1.9881861517627815E+01 
    1.9751274343090948E+01 
    1.9868944729362770E+01 
    2.1298066861872059E+01 
    2.2010476403894707E+01 
    1.9907096598756368E+01 
    1.3583679998211531E+01 
    1.4796007430514104E+01 
    1.9636039047180351E+01 
    2.0400009417993878E+01 
    9.3640082668833688E+00 
    1.9015988624070843E+01 
    2.0046788044116632E+01 
    9.1052706656080780E+00 
    2.1222964982533547E+01 
    2.1156596655330929E+01 
    1.8518787008948038E+01 
    1.3967391868287528E+01 
    3.3670919143099205E+00 
    2.0649106588848859E+01 
    1.3786181574660842E+01 
    2.0852243656954837E+01 
    1.2904215225287555E+01 
    2.0318156315907750E+01 
    1.1653766495599265E+00 
    1.7794208821837088E+01 
    1.2933290549118595E+01 
    1.1660290967195252E+01 
    1.1320900365630459E+01 
    1.3413825808670619E+01 
    1.4865032031079640E+01 
    1.4216250834152687E+01 
    9.0071273931723610E+00 
    2.0412353706523753E+01 
    1.9627869271708917E+01 
    1.5816453866510786E+01 
    1.3848251978033527E+01 
    1.8110515252229851E+00 
    1.0310521302796195E+01 
    6.7559396139019672E+00 
    2.0697572191657873E+01 
    1.5231347625419755E+01 
    1.9510840619915559E+01 
    1.9726839538179828E+01 
    1.2211900264134634E+01 
    1.5953464404834028E+01 
    1.8964700879415293E+01 
    2.1135614584377549E+01 
    8.2805864655985690E+00 
    1.7108681438305183E+01 
    1.4144470241968243E+01 
    7.2457631707501129E+00 
    1.2208570797451152E+01 
    1.6735575345166687E+01 
    1.9669080632974030E+01 
    1.3472374406278057E+01 
    1.9836240723132775E+01 
    1.9478275392602917E+01 
    1.9403910379811975E+01 
    1.3285181159636286E+01 
    1.1526803551697345E+01 
    1.9007531955897541E+01 
    1.1756825525243299E+01 
    1.3565006764935596E+01 
    1.1494051669264147E+01 
    1.3564187532212950E+01 
    1.9740892552715732E+01 
    8.0917997017870515E+00 
    1.2073693950499957E+01 
    2.0562013838413236E+01 
    1.3293411542448382E+01 
    1.5091597374885492E+01 
    8.3007449752085041E+00 
    1.1853936326704634E+01 
    1.9443010253418173E+01 
    1.9918533936055940E+01 
    6.7691141216393174E+00 
    1.3312062824864521E+01 
    1.1549387824456321E+01 
    2.1709932724845672E+01 
    2.0969627937037338E+01 
    2.2052906600429168E+01 
    1.3335752068102877E+01 
    1.9699680146937247E+01 
    1.8874666115983363E+01 
    1.3152289797602998E+01 
    1.8987388856964863E+01 
    1.3848694589950178E+01 
    7.3483653679212617E+00 
    1.3784176051566318E+01 
    2.0557930466384882E+01 
    1.8980544279756501E+01 
    8.7998165111001896E+00 
    1.9032372674894479E+01 
    1.4901613479708878E+01 
    1.3691000901738661E+01 
    1.3098759319115091E+01 
    1.8745130354882402E+01 
    1.4384681968843010E+01 
    1.9013000115215306E+01 
    1.3318026724797559E+01 
    7.6327568387736857E+00 
    1.3655448239825843E+01 
    1.1336075465321981E+01 
    1.7032277759898165E+01 
    2.0825248133716816E+01 
    1.9010878440122557E+01 
    2.0630237209193080E+01 
    1.3219157850838792E+01 
    8.5710600394692271E+00 
    8.7003485960794329E+00 
    1.3941084225528616E+01 
    1.3530782546095239E+01 
    1.8370134541007606E+00 
    1.8116568977828987E+01 
    2.1350288013938847E+01 
    1.2929927732331427E+01 
    7.7136221712732755E+00 
    1.5795795103802041E+01 
    1.9021798232394843E+01 
    9.4150903365466228E+00 
    6.0390788645330415E+00 
    1.3515034843649163E+01 
    1.9166551744504986E+01 
    2.0293600085941108E+01 
    1.9934500416939713E+01 
    1.9922880931315017E+01 
    9.1200850373891793E+00 
    1.3685996167207849E+01 
    1.8459585759178758E+01 
    1.0349135010460117E+01 
    1.9626369349028149E+01 
    1.6270581166075555E+01 
    8.8332781359098291E+00 
    1.9134120055935885E+01 
    2.0746047536120422E+01 
    1.9271341013200374E+01 
    9.0143701002907832E+00 
    1.3588804415782297E+01 
    1.0052846431077203E+01 
    1.2767914266527550E+01 
    1.9013594053084223E+01 
    1.8993391136045080E+01 
    9.0789441055898426E+00 
    2.0378199864707195E+01 
    1.4288091325012450E+01 
    1.9076574586229750E+01 
    2.0463340369118828E+01 
    1.9043026213422689E+01 
    1.7356201380564375E+01 
    2.1796561707095275E+01 
    1.2846691572888686E+01 
    2.0583705863442749E+01 
    1.9099348236295285E+01 
    2.0696306079762266E+01 
    2.0364296024833191E+01 
    1.2991910903597217E+01 
    1.3419172323745396E+01 
    1.2918996500768499E+01 
    1.6585116489386870E+01 
    4.8651434791423149E+00 
    1.3855193007801502E+01 
    2.1953667687545178E+01 
    1.3855163398085985E+01 
    1.4114274840121242E+01 
    2.0655484311418803E+01 
    2.0975538663299126E+01 
    1.2694933261821282E+01 
    1.9038050873029214E+01 
    1.8994901129089612E+01 
    1.4096777006606930E+01 
    2.0287728870935215E+01 
    9.3047548451403674E+00 
    5.8880497106792342E+00 
    1.4491036214155624E+01 
    1.3871048870922412E+01 
    1.8981417918266171E+01 
    8.3992875375775817E+00 
    1.9823835071018948E+01 
    5.9999194808953797E+00 
    1.3793906886354627E+01 
    1.2988215275975691E+01 
    1.3561759372327526E+01 
    2.3534565327401321E+01 
    4.7222885987654033E+00 
    1.3742723831389828E+01 
    1.6670715568337499E+01 
    1.3075558524083535E+01 
    1.0070084038492128E+01 
    2.0101122313852482E+01 
    2.3005113079800594E+01 
    2.0298002572499115E+01 
    1.3658457586136681E+01 
    7.2046795908904420E+00 
    2.2832721944362621E+01 
    1.9605918444822578E+01 
    9.5095670373010339E+00 
    1.3208499024647191E+01 
    2.1273679381172002E+01 
    4.0013340497811951E+00 
    1.3943070168363830E+01 
    2.0371693443859559E+01 
    1.3580339073723923E+01 
    1.1685834668316197E+01 
    1.3796933611087832E+01 
    1.8551523810894182E+01 
    1.3560037028378774E+01 
    6.2970043065767269E+00 
    1.1528102156812305E+00 
    9.8061429910631475E+00 
    2.1592561723212309E+01 
    1.2918355971074094E+01 
    1.5486163744711176E+01 
    1.4802153701526723E+01 
    1.7122776841125219E+01 
    1.3596092768665697E+01 
    1.9460509373941235E+01 
    2.3550869730316187E+01 
    1.6149347806425030E+01 
    2.0541447544038537E+01 
    6.7007289715327656E-01 
    1.8994193891017716E+01 
    7.0916354204907934E+00 
    2.2164241514596668E+01 
    1.3761299499891281E+01 
    1.1931368627544154E+01 
    1.0284921190812286E+01 
    6.6699158992202721E+00 
    1.5139870447222332E+01 
    1.0463921326671533E+01 
    1.6873691958276112E+01 
    2.8242160750200123E+00 
    1.4953859637939258E+01 
    1.8859611536351256E+01 
    7.8821626429224372E+00 
    1.9700041307570267E+01 
    2.1863137949385926E+01 
    1.9518640090607132E+01 
    1.3571370195860000E+01 
    1.3554294206358144E+01 
    1.3751414197145118E+01 
    7.3213839319312521E+00 
    1.2513761747184731E+01 
    1.2277853599121151E+01 
    1.3736382693948423E+01 
    1.2816915703956617E+01 
    8.6002391004010947E-01 
    8.2409003643038208E+00 
    1.3352274854716329E+01 
    1.3701118182838389E+01 
    1.7403001376769538E+01 
    2.6149934144766140E+00 
    1.4040634662329836E+01 
    1.3880792661789894E+01 
    4.5357837618381112E+00 
    1.9298061117733177E+01 
    1.1777996391132332E+01 
    1.3711915744649836E+01 
    1.9595504241605127E+01 
    6.6867492398126593E+00 
    1.9450604835169187E+01 
    1.1961044551712057E+01 
    1.1782767074899207E+00 
    1.3003609805301144E+01 
    2.0453000642487140E+01 
    1.9001875110634050E+01 
    1.9037838362502772E+01 
    1.4219442092247457E+01 
    1.3797294706991512E+01 
    1.1758911930653435E+01 
    9.0450520254437610E+00 
    1.9777357784712081E+01 
    1.3198835905090961E+01 
    8.7642256613751766E+00 
    1.9026562812567583E+01 
    2.0122886263466349E+01 
    1.3972802966855735E+01 
    1.3352577590700907E+01 
    2.3407583328800452E+01 
    1.4098124975979861E+01 
    1.9802018799253233E+01 
    1.1085528468054006E+01 
    2.3581092432661098E+01 
    8.6495901175646619E+00 
    1.2323774820062059E+01 
    9.7465084100582473E+00 
    1.4422285034700709E+01 
    1.1307389170253430E+01 
    2.3562741946343323E+01 
    1.4165384212816324E+01 
    1.8533298118278399E+01 
    8.8989410517265792E+00 
    1.3589320163106372E+01 
    1.9556790117994193E+01 
    1.1366468725108863E+01 
    9.4806934084437184E+00 
    1.5419965695304890E+01 
    1.9780237837535413E+01 
    9.6190623457603319E+00 
    1.3020381491105697E+01 
    1.3400145061394724E+01 
    1.8955327807903625E+01 
    1.3112463117873189E+01 
    1.9866391310418134E+01 
    2.0739177555956914E+01 
    1.1794025209253878E+01 
    1.1531696671103159E+01 
    1.0522114150448665E+01 
    1.9188407580059803E+01 
    1.3904330317500907E+01 
    2.3052259878383605E+01 
    1.7587141608729990E+01 
    1.9487765209491080E+01 
    2.2675249380255160E+01 
    2.1871103085690606E+01 
    1.3644139542678811E+01 
    1.3715205586867306E+01 
    1.8537373584548877E+01 
    1.9062287820501542E+01 
    2.0049591021673326E+01 
    1.9637062235698327E+01 
    2.3437254110258433E+01 
    1.4097447604639260E+01 
    1.1957603916742713E+01 
    1.4062017405471257E+01 
    2.0605954951117226E+01 
    1.3755434895329486E+01 
    7.6704836606103983E+00 
    1.3548669882267843E+01 
    2.1235540654805007E+01 
    1.3929427497874077E+01 
    1.1965789237984414E+01 
    1.3330146318041926E+01 
    2.1385264969939314E+01 
    1.9260619386155810E+01 
    1.1234399121260807E+01 
    2.1566141977101335E+01 
    1.3677377980607437E+01 
    2.0019147430684786E+01 
    2.1399114671898946E+01 
    1.4539364042960614E+01 
    6.7140959354767116E+00 
    1.5153611259110638E+01 
    6.9728358232031837E+00 
    1.3814054636387272E+01 
    1.3586000535642135E+01 
    1.6027989488767087E+01 
    7.4350090580019312E+00 
    1.7135645746574461E+01 
    1.3604447355463684E+01 
    1.9621823033556552E+01 
    1.4740733586906510E+01 
    1.0841561501885685E+01 
    1.3146368890067674E+01 
    1.4429159028155908E+01 
    1.4242479996181075E+01 
    2.0848721618164149E+01 
    1.1344181823036783E+01 
    1.1118175628590294E+01 
    7.8777442028589943E+00 
    2.0085522667376257E+01 
    1.3208101731273665E+01 
    1.8898444036953261E+01 
    1.3549560796310084E+01 
    8.7385087630882872E+00 
    1.9277801346845468E+01 
    1.3522976776593673E+01 
    9.6784829134159658E+00 
    1.0369600003336769E+01 
    1.0807240125954081E+01 
    1.9671094460209602E+01 
    1.3739132259938746E+01 
    2.0556355301713836E+01 
    1.3477766818604604E+01 
    1.3407063270477845E+01 
    1.2907761313588459E+01 
    1.9412678018304668E+01 
    1.3303793629453963E+01 
    1.0871420571066164E+01 
    2.1860909620156189E+01 
    1.9536302055463160E+01 
    9.0747854256310578E+00 
    3.3017503957584147E+00 
    1.3724976578619856E+01 
    1.2690626162892558E+01 
    1.1517683547311346E+01 
    1.2623347855866511E+01 
    1.9338771863303123E+01 
    1.3313976593931811E+01 
    1.2014519207117459E+01 
    1.9101406024574487E+01 
    8.9940207805240622E+00 
    1.8484324584944819E+01 
    1.2221072279835377E+01 
    1.0704239841066340E+01 
    1.1649243076160426E+01 
    2.0142342463816952E+01 
    1.3564570885534508E+01 
    1.3574642840887737E+01 
    7.5749232714254804E+00 
    8.3027526830861191E+00 
    1.7473056978161125E+01 
    1.3586268604032234E+01 
    1.3779364887541361E+01 
    2.1553655252850280E+01 
    1.1119709206607540E+01 
    1.3600677663760852E+01 
    9.3301102276255072E+00 
    9.6584082619506670E+00 
    1.9353875053634937E+01 
    1.3145751273516167E+01 
    9.3003029840264126E+00 
    1.4231158935200476E+01 
    1.3480029293624941E+01 
    1.9378080066461660E+01 
    2.1675942212146161E+01 
    1.2467280239834850E+00 
    1.3731706471645754E+01 
    1.3869604156143417E+01 
    1.9509431379580434E+01 
    1.3099733335822240E+01 
    1.3531530857622149E+01 
    2.0931731835662763E+01 
    1.1697472675940350E+01 
    9.3952807468309523E+00 
    1.6430381494522059E+01 
    1.9023638073435837E+01 
    2.0688651088183601E+01 
    2.1096281051590790E+01 
    1.3514186032089938E+01 
    1.3719629147144348E+01 
    1.5208984503416399E+01 
    8.5942900571976537E+00 
    1.9244530775352498E+01 
    1.0240927563164629E+01 
    8.9753402620801221E+00 
    1.7121666240536641E+01 
    1.6010322811025034E+01 
    8.7904568375173842E+00 
    1.9083121467394029E+01 
    2.0669773440419227E+01 
    1.4119545488130768E+01 
    2.1811571036898410E+01 
    1.9138038781080969E+01 
    1.3166839027626375E+01 
    2.0189418894632315E+01 
    9.6459594330211740E+00 
    1.9050371032877070E+01 
    1.3730080855933622E+01 
    1.3679312633728481E+01 
    2.1787864404363642E+01 
    1.3264547411340843E+01 
    1.6720791932003486E+01 
    1.1619799747910811E+01 
    2.0848125818289184E+01 
    1.8877383581661878E+01 
    1.2172982329957932E+01 
    1.8999360983212373E+01 
    1.2191359552970042E+01 
    1.3539218481574894E+01 
    2.0608841246239916E+01 
    1.9621124205989798E+01 
    2.0673785852919320E+01 
    1.9512417863538793E+01 
    1.2531325270428326E+01 
    1.2818815246623418E+01 
    2.0686194733341505E+01 
    1.2999825973871934E+01 
    1.8717283475094700E+01 
    1.3238588226426248E+01 
    4.9228882809376824E+00 
    9.0837683699241385E+00 
    8.3891019203043857E+00 
    2.0614549540716904E+01 
    2.1688166920495476E+01 
    1.9019531841641911E+01 
    1.5677263210460090E+01 
    1.9473761663705407E+01 
    1.9096413572512368E+01 
    2.0062073866947490E+01 
    7.2629826856732942E+00 
    4.5709415905203485E+00 
    1.5366521213275536E+01 
    1.3305929420437456E+01 
    1.9353442041679468E+01 
    1.9348950431228282E+01 
    1.3893007198869777E+01 
    1.9411682067990370E+01 
    1.3711733798432402E+01 
    1.3604916911433987E+01 
    6.4447617708439981E+00 
    4.5410366321956781E+00 
    2.1378616172681919E+01 
    1.0296096187961028E+01 
    1.2100079145692204E+01 
    1.3769661809533256E+01 
    2.3412540872823012E+01 
    1.3881642331713291E+01 
    1.4127555953619122E+01 
    5.2583087235187120E+00 
    1.3881453129738116E+01 
    1.3898856978169603E+01 
    1.9745765309432787E+01 
    1.1656878803107013E+01 
    1.2979443948505523E+01 
    2.1608578556461609E+01 
    1.3743097969979846E+01 
    1.9042271376132646E+01 
    1.9393196511868421E+01 
    1.6811166541769534E+01 
    1.1295486563844626E+01 
    1.9508738159773475E+01 
    1.3475182884850060E+01 
    1.9304281985543106E+01 
    1.8929623031123647E+01 
    2.0643702823515028E+01 
    1.9515918641228421E+01 
    1.7829123234541001E+01 
    1.3727375374186426E+01 
    8.7277307209228994E+00 
    2.3262844383744955E+01 
    1.0490894276566967E+01 
    2.0564018015765331E+01 
    1.3723914869436260E+01 
    1.1197147754616768E+01 
    6.2758191808924293E+00 
    1.3944319365622107E+01 
    1.9491698708211644E+01 
    1.9472026251118880E+01 
    1.3515319968585006E+01 
    1.3716154939305767E+01 
    2.1872667720450487E+01 
    2.1015169821951691E+01 
    1.3906598934586366E+01 
    4.2566379982651856E+00 
    1.7695591880259265E+01 
    2.3557319220922750E+01 
    1.3731793644256644E+01 
    1.6220192535018708E+01 
    1.3099599703392405E+01 
    2.3088239793016225E+01 
    2.1128523444155164E+01 
    2.0791609282464044E+01 
    1.3934639760810299E+01 
    5.8921846210436115E+00 
    1.3044529064881640E+01 
    1.3129868678061156E+01 
    1.3179757985859538E+01 
    4.6771990617440222E+00 