# vtk DataFile Version 2.0
Pressure Field Data 
ASCII 
DATASET UNSTRUCTURED_GRID 

POINTS 2860 double 

    0.0000000000000000E+00     0.0000000000000000E+00     0.0000000000000000E+00 
    1.0000000000000000E+00     0.0000000000000000E+00     0.0000000000000000E+00 
    1.0000000000000000E+00     1.0000000000000000E+00     0.0000000000000000E+00 
    0.0000000000000000E+00     1.0000000000000000E+00     0.0000000000000000E+00 
    2.5000000000000000E-01     2.5000000000000000E-01     0.0000000000000000E+00 
    7.5000000000000000E-01     2.5000000000000000E-01     0.0000000000000000E+00 
    7.5000000000000000E-01     7.5000000000000000E-01     0.0000000000000000E+00 
    2.5000000000000000E-01     7.5000000000000000E-01     0.0000000000000000E+00 
    3.1249999999942091E-02     0.0000000000000000E+00     0.0000000000000000E+00 
    6.2499999999873469E-02     0.0000000000000000E+00     0.0000000000000000E+00 
    9.3749999999826514E-02     0.0000000000000000E+00     0.0000000000000000E+00 
    1.2499999999977961E-01     0.0000000000000000E+00     0.0000000000000000E+00 
    1.5624999999968961E-01     0.0000000000000000E+00     0.0000000000000000E+00 
    1.8749999999959971E-01     0.0000000000000000E+00     0.0000000000000000E+00 
    2.1874999999950970E-01     0.0000000000000000E+00     0.0000000000000000E+00 
    2.4999999999941969E-01     0.0000000000000000E+00     0.0000000000000000E+00 
    2.8124999999932920E-01     0.0000000000000000E+00     0.0000000000000000E+00 
    3.1249999999923850E-01     0.0000000000000000E+00     0.0000000000000000E+00 
    3.4374999999914790E-01     0.0000000000000000E+00     0.0000000000000000E+00 
    3.7499999999905720E-01     0.0000000000000000E+00     0.0000000000000000E+00 
    4.0624999999896660E-01     0.0000000000000000E+00     0.0000000000000000E+00 
    4.3749999999887590E-01     0.0000000000000000E+00     0.0000000000000000E+00 
    4.6874999999878530E-01     0.0000000000000000E+00     0.0000000000000000E+00 
    4.9999999999869471E-01     0.0000000000000000E+00     0.0000000000000000E+00 
    5.3124999999877620E-01     0.0000000000000000E+00     0.0000000000000000E+00 
    5.6249999999885780E-01     0.0000000000000000E+00     0.0000000000000000E+00 
    5.9374999999893940E-01     0.0000000000000000E+00     0.0000000000000000E+00 
    6.2499999999902101E-01     0.0000000000000000E+00     0.0000000000000000E+00 
    6.5624999999910261E-01     0.0000000000000000E+00     0.0000000000000000E+00 
    6.8749999999918421E-01     0.0000000000000000E+00     0.0000000000000000E+00 
    7.1874999999926570E-01     0.0000000000000000E+00     0.0000000000000000E+00 
    7.4999999999934730E-01     0.0000000000000000E+00     0.0000000000000000E+00 
    7.8124999999942890E-01     0.0000000000000000E+00     0.0000000000000000E+00 
    8.1249999999951039E-01     0.0000000000000000E+00     0.0000000000000000E+00 
    8.4374999999959199E-01     0.0000000000000000E+00     0.0000000000000000E+00 
    8.7499999999967359E-01     0.0000000000000000E+00     0.0000000000000000E+00 
    9.0624999999975520E-01     0.0000000000000000E+00     0.0000000000000000E+00 
    9.3749999999983680E-01     0.0000000000000000E+00     0.0000000000000000E+00 
    9.6874999999991840E-01     0.0000000000000000E+00     0.0000000000000000E+00 
    1.0000000000000000E+00     3.1249999999942091E-02     0.0000000000000000E+00 
    1.0000000000000000E+00     6.2499999999873469E-02     0.0000000000000000E+00 
    1.0000000000000000E+00     9.3749999999826514E-02     0.0000000000000000E+00 
    1.0000000000000000E+00     1.2499999999977961E-01     0.0000000000000000E+00 
    1.0000000000000000E+00     1.5624999999968961E-01     0.0000000000000000E+00 
    1.0000000000000000E+00     1.8749999999959971E-01     0.0000000000000000E+00 
    1.0000000000000000E+00     2.1874999999950970E-01     0.0000000000000000E+00 
    1.0000000000000000E+00     2.4999999999941969E-01     0.0000000000000000E+00 
    1.0000000000000000E+00     2.8124999999932920E-01     0.0000000000000000E+00 
    1.0000000000000000E+00     3.1249999999923850E-01     0.0000000000000000E+00 
    1.0000000000000000E+00     3.4374999999914790E-01     0.0000000000000000E+00 
    1.0000000000000000E+00     3.7499999999905720E-01     0.0000000000000000E+00 
    1.0000000000000000E+00     4.0624999999896660E-01     0.0000000000000000E+00 
    1.0000000000000000E+00     4.3749999999887590E-01     0.0000000000000000E+00 
    1.0000000000000000E+00     4.6874999999878530E-01     0.0000000000000000E+00 
    1.0000000000000000E+00     4.9999999999869471E-01     0.0000000000000000E+00 
    1.0000000000000000E+00     5.3124999999877620E-01     0.0000000000000000E+00 
    1.0000000000000000E+00     5.6249999999885780E-01     0.0000000000000000E+00 
    1.0000000000000000E+00     5.9374999999893940E-01     0.0000000000000000E+00 
    1.0000000000000000E+00     6.2499999999902101E-01     0.0000000000000000E+00 
    1.0000000000000000E+00     6.5624999999910261E-01     0.0000000000000000E+00 
    1.0000000000000000E+00     6.8749999999918421E-01     0.0000000000000000E+00 
    1.0000000000000000E+00     7.1874999999926570E-01     0.0000000000000000E+00 
    1.0000000000000000E+00     7.4999999999934730E-01     0.0000000000000000E+00 
    1.0000000000000000E+00     7.8124999999942890E-01     0.0000000000000000E+00 
    1.0000000000000000E+00     8.1249999999951039E-01     0.0000000000000000E+00 
    1.0000000000000000E+00     8.4374999999959199E-01     0.0000000000000000E+00 
    1.0000000000000000E+00     8.7499999999967359E-01     0.0000000000000000E+00 
    1.0000000000000000E+00     9.0624999999975520E-01     0.0000000000000000E+00 
    1.0000000000000000E+00     9.3749999999983680E-01     0.0000000000000000E+00 
    1.0000000000000000E+00     9.6874999999991840E-01     0.0000000000000000E+00 
    9.6875000000003686E-01     1.0000000000000000E+00     0.0000000000000000E+00 
    9.3750000000011691E-01     1.0000000000000000E+00     0.0000000000000000E+00 
    9.0625000000015765E-01     1.0000000000000000E+00     0.0000000000000000E+00 
    8.7500000000017863E-01     1.0000000000000000E+00     0.0000000000000000E+00 
    8.4375000000028044E-01     1.0000000000000000E+00     0.0000000000000000E+00 
    8.1250000000040856E-01     1.0000000000000000E+00     0.0000000000000000E+00 
    7.8125000000054956E-01     1.0000000000000000E+00     0.0000000000000000E+00 
    7.5000000000066480E-01     1.0000000000000000E+00     0.0000000000000000E+00 
    7.1875000000086831E-01     1.0000000000000000E+00     0.0000000000000000E+00 
    6.8750000000102829E-01     1.0000000000000000E+00     0.0000000000000000E+00 
    6.5625000000114431E-01     1.0000000000000000E+00     0.0000000000000000E+00 
    6.2500000000129829E-01     1.0000000000000000E+00     0.0000000000000000E+00 
    5.9375000000147926E-01     1.0000000000000000E+00     0.0000000000000000E+00 
    5.6250000000168354E-01     1.0000000000000000E+00     0.0000000000000000E+00 
    5.3125000000188671E-01     1.0000000000000000E+00     0.0000000000000000E+00 
    5.0000000000205835E-01     1.0000000000000000E+00     0.0000000000000000E+00 
    4.6875000000192979E-01     1.0000000000000000E+00     0.0000000000000000E+00 
    4.3750000000180111E-01     1.0000000000000000E+00     0.0000000000000000E+00 
    4.0625000000167238E-01     1.0000000000000000E+00     0.0000000000000000E+00 
    3.7500000000154382E-01     1.0000000000000000E+00     0.0000000000000000E+00 
    3.4375000000141509E-01     1.0000000000000000E+00     0.0000000000000000E+00 
    3.1250000000128642E-01     1.0000000000000000E+00     0.0000000000000000E+00 
    2.8125000000115769E-01     1.0000000000000000E+00     0.0000000000000000E+00 
    2.5000000000102918E-01     1.0000000000000000E+00     0.0000000000000000E+00 
    2.1875000000090050E-01     1.0000000000000000E+00     0.0000000000000000E+00 
    1.8750000000077180E-01     1.0000000000000000E+00     0.0000000000000000E+00 
    1.5625000000064329E-01     1.0000000000000000E+00     0.0000000000000000E+00 
    1.2500000000051459E-01     1.0000000000000000E+00     0.0000000000000000E+00 
    9.3750000000385914E-02     1.0000000000000000E+00     0.0000000000000000E+00 
    6.2500000000257239E-02     1.0000000000000000E+00     0.0000000000000000E+00 
    3.1250000000128557E-02     1.0000000000000000E+00     0.0000000000000000E+00 
    0.0000000000000000E+00     9.6875000000003686E-01     0.0000000000000000E+00 
    0.0000000000000000E+00     9.3750000000011691E-01     0.0000000000000000E+00 
    0.0000000000000000E+00     9.0625000000015765E-01     0.0000000000000000E+00 
    0.0000000000000000E+00     8.7500000000017863E-01     0.0000000000000000E+00 
    0.0000000000000000E+00     8.4375000000028044E-01     0.0000000000000000E+00 
    0.0000000000000000E+00     8.1250000000040856E-01     0.0000000000000000E+00 
    0.0000000000000000E+00     7.8125000000054956E-01     0.0000000000000000E+00 
    0.0000000000000000E+00     7.5000000000066480E-01     0.0000000000000000E+00 
    0.0000000000000000E+00     7.1875000000086831E-01     0.0000000000000000E+00 
    0.0000000000000000E+00     6.8750000000102829E-01     0.0000000000000000E+00 
    0.0000000000000000E+00     6.5625000000114431E-01     0.0000000000000000E+00 
    0.0000000000000000E+00     6.2500000000129829E-01     0.0000000000000000E+00 
    0.0000000000000000E+00     5.9375000000147926E-01     0.0000000000000000E+00 
    0.0000000000000000E+00     5.6250000000168354E-01     0.0000000000000000E+00 
    0.0000000000000000E+00     5.3125000000188671E-01     0.0000000000000000E+00 
    0.0000000000000000E+00     5.0000000000205835E-01     0.0000000000000000E+00 
    0.0000000000000000E+00     4.6875000000192979E-01     0.0000000000000000E+00 
    0.0000000000000000E+00     4.3750000000180111E-01     0.0000000000000000E+00 
    0.0000000000000000E+00     4.0625000000167238E-01     0.0000000000000000E+00 
[...]
CELL_DATA 2795 
SCALARS Pressure double 1 
LOOKUP_TABLE default 

    5.8376369920486217E+00 
    1.3419124034238779E+01 
    9.4709588359286396E+00 
    9.0737370368992583E+00 
    7.1936766080984524E+00 
    1.3300589711368204E+01 
    1.3985354814399816E+01 
    5.2074374179993619E+00 
    1.0021792136910657E+01 
    7.6535703116987301E+00 
    6.5202762075230511E+00 
    1.3060367910624020E+01 
    1.3328892037294340E+01 
    1.3271495171284059E+01 
    8.7374542387413943E+00 
    5.1199137493403200E+00 
    8.3376525133147137E+00 
    6.9469564967376938E+00 
    1.2721144241606659E+01 
    9.4616521915760927E+00 
    9.3554785137056893E+00 
    1.3210444800075649E+01 
    8.8215154401658271E+00 
    3.4221910372055747E-01 
    1.3049332254352649E+01 
    1.3302876286127054E+01 
    1.4015228848710713E+01 
    6.2672034548724280E+00 
    1.2985729853983067E+01 
    1.4010838292172464E+01 
    9.5128670649798419E+00 
    9.6885036433149914E+00 
    6.7731079723983703E+00 
    9.4328239821956466E+00 
    3.0174249000557287E+00 
    8.3428529832469067E+00 
    9.4227685468281450E+00 
    1.4049015869789020E+01 
    1.3963872094816894E+01 
    1.3072497744378452E+01 
    7.1263255144771920E+00 
    1.3025454630724790E+01 
    7.1264077153409311E-01 
    9.3102373472672060E+00 
    1.3785032988435818E+01 
    1.3628601379091382E+01 
    1.3050303686848633E+01 
    1.0351400142360383E+01 
    1.3118144548437295E+01 
    8.5332773332247740E+00 
    8.1235385901802779E+00 
    9.6551634366127228E+00 
    9.2017337521606990E+00 
    8.3865785219760962E+00 
    9.5813846834798451E+00 
    1.2524887160318322E+01 
    1.1299172281220889E+01 
    7.2330170487484233E+00 
    1.3214268304564726E+01 
    1.3142217437488656E+01 
    9.0759907314259731E+00 
    9.1061886682529263E+00 
    8.9812288424835334E+00 
    1.3917792949398089E+01 
    1.4156751602148770E+01 
    8.3472911518198210E+00 
    9.6531122212036937E+00 
    1.2964635582676717E+01 
    1.1097272227431610E+01 
    9.1463348589377826E+00 
    1.4167519709094558E+01 
    1.3153753673683916E+01 
    8.2291385172885452E+00 
    1.3722867635861190E+01 
    9.8165842623402604E+00 
    1.2910230994050975E+01 
    1.4058836995420984E+01 
    9.8091124287302112E+00 
    5.9529416579427314E+00 
    9.6723378729949534E+00 
    1.3972127241559569E+01 
    1.4197293099071508E+01 
    8.3589645365254626E+00 
    9.5828320909407498E+00 
    1.4238426532225679E+01 
    9.4262243553696621E+00 
    8.9026018694409554E+00 
    1.1485985474455969E+01 
    5.6757345551648477E+00 
    8.1452794452193977E+00 
    9.5824220750234801E+00 
    1.0158961756439714E+01 
    1.5662809208639874E+01 
    6.9884550808293513E+00 
    9.6613447198456956E+00 
    1.3029550615608715E+01 
    1.3282934259719447E+01 
    6.1433859735379981E+00 
    9.2997254277410342E+00 
    9.6126416987279377E+00 
    1.3302290861369158E+01 
    9.6156631679803262E+00 
    1.3237869380298619E+01 
    3.7279150056025760E+00 
    6.3383918544612161E+00 
    9.8878831822483964E+00 
    1.3427253051018182E+01 
    8.3093097716432087E+00 
    8.8677367494069550E+00 
    9.6020067697144267E+00 
    8.8711559412925851E+00 
    1.0926657115038420E+01 
    8.6198268488534691E+00 
    8.2367121727597770E+00 
    6.4649852304359658E+00 
    1.1228158046391719E+01 
    9.6881422932426808E+00 
    1.3834105366896811E+01 
    8.3106086033022404E+00 
    9.0575386825617219E+00 
    1.3142979385540237E+01 
    7.5346605730178196E+00 
    1.3567412116869402E+01 
    9.5040894368311424E+00 
    8.9893843070434176E+00 
    1.3284931217648573E+01 
    9.6861644106095977E+00 
    1.4068189575691079E+01 
    1.1496804970833896E+01 
    1.2383535019869553E+01 
    1.4031192676143771E+01 
    7.0028148300574999E+00 
    9.9086361120430144E+00 
    1.3286979564260966E+01 
    2.7949296230639198E+00 
    9.5603185375388566E+00 
    1.3999283689961121E+01 
    9.0179623025752917E+00 
    1.0428445572413050E+01 
    6.0919459028200720E+00 
    1.3028080831383313E+01 
    1.6146141710494192E+01 
    1.1935700567880760E+01 
    9.0157606824637586E+00 
    8.0506708965062614E+00 
    1.0259750267914756E+01 
    9.5211956928180719E+00 
    6.5898676400334946E+00 
    1.4027169903397336E+01 
    1.3377530206798671E+01 
    1.3031156903516584E+01 
    1.0159809135475696E+01 
    8.2008133244293404E+00 
    9.3543438233793896E+00 
    1.3749024112003093E+01 
    8.4403511213404450E+00 
    9.4624694502920956E+00 
    8.5968051801510121E+00 
    1.0984138985342437E+01 
    1.6134529447298064E+01 
    1.3023197923002135E+01 
    8.1549148838991847E+00 
    1.3467536439424851E+01 
    1.3388309490511183E+01 
    1.3464579832618375E+01 
    1.4430189325121674E+01 
    1.4956473286566151E+01 
    1.3626655096672401E+01 
    9.6443258774538752E+00 
    1.0306554601310577E+01 
    1.3462019015725202E+01 
    1.3844667109084220E+01 
    6.8805958700673306E+00 
    1.3049921499888098E+01 
    1.3712924445179619E+01 
    6.6984070015685004E+00 
    1.4348048755550220E+01 
    1.4333652136629428E+01 
    1.2786687519157541E+01 
    9.9708580728243668E+00 
    2.4539796512989924E+00 
    1.3999782219333827E+01 
    9.8295925989064692E+00 
    1.4116181442527196E+01 
    8.9522076061779554E+00 
    1.3842782864509969E+01 
    8.7225904332612281E-01 
    1.2401297526922944E+01 
    9.1495826470059924E+00 
    8.1630101494076364E+00 
    7.9523112901421120E+00 
    9.4743108649303807E+00 
    1.0600379429162276E+01 
    9.8348900011285796E+00 
    6.5621560197846973E+00 
    1.3840196976153333E+01 
    1.3310448363168854E+01 
    1.1216588295198488E+01 
    9.8814657618025343E+00 
    1.4286428064224344E+00 
    7.3301576269463808E+00 
    5.0590817658306548E+00 
    1.4021574470536054E+01 
    1.0759048102234759E+01 
    1.3363394636464717E+01 
    1.3373170369172172E+01 
    8.5146299523558806E+00 
    1.1263167252570872E+01 
    1.3026963214974446E+01 
    1.4316222204766165E+01 
    6.0691507861367979E+00 
    1.1758381991607374E+01 
    9.8686415128850928E+00 
    5.3981093460394103E+00 
    8.5078043066386773E+00 
    1.1758530346196935E+01 
    1.3337076532812539E+01 
    9.5293256174038685E+00 
    1.3442930664284257E+01 
    1.3218709568123780E+01 
    1.3170624634703334E+01 
    9.3609990447104288E+00 
    8.1064605656995798E+00 
    1.3038683422144375E+01 
    8.2234693014379125E+00 
    9.6199514210393282E+00 
    8.0592566998204731E+00 
    9.4083548426172499E+00 
    1.3381369592120432E+01 
    5.9583706995222343E+00 
    8.4214326792345009E+00 
    1.3938231999517255E+01 
    9.3743316758493780E+00 
    1.0649187807390943E+01 
    6.1142479538144148E+00 
    8.2844904099319461E+00 
    1.3197838536812117E+01 
    1.3496273717544357E+01 
    4.9786051166126812E+00 
    9.3778696754167914E+00 
    8.0970716797923128E+00 
    1.4727490739623649E+01 
    1.4204605400238185E+01 
    1.4982503141626617E+01 
    9.3981990229836132E+00 
    1.3356478156258309E+01 
    1.2986800264509434E+01 
    9.2748456104198436E+00 
    1.3031482491472644E+01 
    9.8826471663098605E+00 
    5.4679435403118877E+00 
    9.6125824698889240E+00 
    1.3925669179166196E+01 
    1.3028467508049538E+01 
    6.4863077398324167E+00 
    1.3056494137649851E+01 
    1.0596635921705294E+01 
    9.5416898246048767E+00 
    9.0925817584420159E+00 
    1.2903124400989366E+01 
    1.0094680769090102E+01 
    1.3043758486756481E+01 
    9.2512710697393494E+00 
    5.6674369799098026E+00 
    9.6894279438447288E+00 
    7.9614572567809532E+00 
    1.1937022034049457E+01 
    1.4114540899015134E+01 
    1.3037233913156237E+01 
    1.3992995061987505E+01 
    9.3243124740996368E+00 
    6.3146971365268598E+00 
    6.4053745280846988E+00 
    9.7289776844831088E+00 
    9.5966938649735347E+00 
    1.3561053751173187E+00 
    1.2572717857261054E+01 
    1.4455759216345287E+01 
    8.9643287485768930E+00 
    5.7001730197492089E+00 
    1.0943322081763856E+01 
    1.3055158382623652E+01 
    6.7712951058544126E+00 
    4.5804443588578154E+00 
    9.5706677676381311E+00 
    1.3144122117039339E+01 
    1.3748576921332523E+01 
    1.3643373869262607E+01 
    1.3500172733477088E+01 
    6.6050398817606872E+00 
    9.5348518804047782E+00 
    1.2593721677798623E+01 
    7.5128892409260271E+00 
    1.3316576784842374E+01 
    1.1480814666661452E+01 
    6.5043810965611764E+00 
    1.3158703665773594E+01 
    1.4021947230734444E+01 
    1.3162769998847756E+01 
    6.5183542350774353E+00 
    9.6489926568494546E+00 
    7.1692509605769423E+00 
    9.1021903678896958E+00 
    1.3047028538182067E+01 
    1.3035825521876587E+01 
    6.5565751616743464E+00 
    1.3880662922086570E+01 
    1.0181106838886040E+01 
    1.3070524412609281E+01 
    1.3849972709625378E+01 
    1.3056263601031862E+01 
    1.2167861972105246E+01 
    1.4779374672317763E+01 
    8.9247143967738420E+00 
    1.3963862939646784E+01 
    1.3100354569256089E+01 
    1.4033168263891627E+01 
    1.3874180022648797E+01 
    9.0202581854503130E+00 
    9.4634336487699393E+00 
    8.9550172615922339E+00 
    1.1703559389625438E+01 
    3.7391417479792906E+00 
    9.6603754870032557E+00 
    1.4903064267873006E+01 
    9.8836145216180658E+00 
    1.0062934976213766E+01 
    1.4007262658093412E+01 
    1.4230947563331625E+01 
    8.8675460986363941E+00 
    1.3060600517401351E+01 
    1.3032231871230127E+01 
    1.0051121538285038E+01 
    1.3831205457439040E+01 
    6.8338009396693282E+00 
    4.3304732732062527E+00 
    1.0319666866472186E+01 
    9.8977963437420051E+00 
    1.3038005854948240E+01 
    6.1264212180433155E+00 
    1.3562613792130028E+01 
    4.4085050775684982E+00 
    9.8315656065065848E+00 
    9.0642384270500624E+00 
    9.6238082374415050E+00 
    1.6185608373664230E+01 
    3.6339561467311028E+00 
    9.5777787643438597E+00 
    1.1418180616019436E+01 
    9.2297327484809042E+00 
    7.2229561513750609E+00 
    1.3672190287455397E+01 
    1.5748575173919988E+01 
    1.3812863678273441E+01 
    9.5194836839257082E+00 
    5.3697119751880260E+00 
    1.5605065208694754E+01 
    1.3299354374697058E+01 
    6.9211183799461597E+00 
    9.1558084313511721E+00 
    1.4414685887618166E+01 
    3.0896515538546052E+00 
    9.9457429936209216E+00 
    1.3779419961429801E+01 
    9.6377092271740707E+00 
    8.3905833562137548E+00 
    9.6171760067123824E+00 
    1.2804217162609032E+01 
    9.6168124898702914E+00 
    4.7805970336899817E+00 
    8.4304715413636411E-01 
    7.1617028339909199E+00 
    1.4624422582727750E+01 
    8.9544489002934569E+00 
    1.0947869622026472E+01 
    1.0419682205985302E+01 
    1.2006207246613794E+01 
    9.6517541643914218E+00 
    1.3212165104299299E+01 
    1.6199768951026684E+01 
    1.1397278781248906E+01 
    1.3937702882880556E+01 
    5.0817845298566722E-01 
    1.3037738001603030E+01 
    5.2904898195142476E+00 
    1.5068796909898143E+01 
    9.5913398648526247E+00 
    8.5207247879813828E+00 
    7.3138806699914989E+00 
    5.0160791386424703E+00 
    1.0770237824338967E+01 
    7.5875703269521777E+00 
    1.1836442788306906E+01 
    2.0516959973107487E+00 
    1.0627856120782848E+01 
    1.2974383052377531E+01 
    5.8098779235852058E+00 
    1.3506465802819031E+01 
    1.4875681128561205E+01 
    1.3359380338571528E+01 
    9.4599248695170761E+00 
    9.6188147266710242E+00 
    9.5840445222250459E+00 
    5.4410194764986306E+00 
    8.7008032895224670E+00 
    8.5519126500234179E+00 
    9.5731974891990390E+00 
    8.8895310275099977E+00 
    6.4168442319218055E-01 
    6.0760947220107289E+00 
    9.2670249690845932E+00 
    9.5487386638649419E+00 
    1.2162768806750732E+01 
    2.0337521825933060E+00 
    1.0012686754492993E+01 
    9.9024169157619379E+00 
    3.4940520006473021E+00 
    1.3234127886291985E+01 
    8.2427301473082935E+00 
    9.7589280802388174E+00 
    1.3295452887022694E+01 
    5.0372995063494272E+00 
    1.3346519456683103E+01 
    8.3528184203596467E+00 
    9.3394813972424939E-01 
    9.0138416180823597E+00 
    1.3892205112308092E+01 
    1.3037684506729473E+01 
    1.3055958548512805E+01 
    9.9399714243229962E+00 
    9.8360063192390683E+00 
    8.2230937469336070E+00 
    6.5981240867515574E+00 
    1.3399839316346466E+01 
    9.1538471428680150E+00 
    6.4356788463449970E+00 
    1.3051343476760941E+01 
    1.3709562654228124E+01 
    9.7599506563407168E+00 
    9.4201714940399359E+00 
    1.6080656231691563E+01 
    1.0051936286809999E+01 
    1.3418037777374185E+01 
    7.8062502682417962E+00 
    1.6228338406738043E+01 
    6.3678579639662090E+00 
    8.6224737000154210E+00 
    7.1417916185827597E+00 
    1.0270836855828627E+01 
    8.1805810239696335E+00 
    1.6211946895120970E+01 
    1.0097505134672517E+01 
    1.2745003765553980E+01 
    6.5513226208162809E+00 
    9.6495144944840821E+00 
    1.3267321408406694E+01 
    8.2107398061212429E+00 
    6.8589286789254427E+00 
    1.0615016174930208E+01 
    1.3489526982018035E+01 
    7.0304277190117492E+00 
    9.0836395306187487E+00 
    9.4474897280174677E+00 
    1.3014370689259710E+01 
    9.2562935358060265E+00 
    1.3462844195949334E+01 
    1.4061045023540238E+01 
    8.2485943956390457E+00 
    8.0798850146049332E+00 
    7.6256423223197407E+00 
    1.3149132028976712E+01 
    9.9140035675397371E+00 
    1.5787648106544236E+01 
    1.2377268640323047E+01 
    1.3227745971203696E+01 
    1.5480648862702495E+01 
    1.4883422712661066E+01 
    9.6983152767681435E+00 
    9.5583780328459369E+00 
    1.2817329499726325E+01 
    1.3073660211188434E+01 
    1.3565957999503013E+01 
    1.3318654263985932E+01 
    1.6100554162177243E+01 
    1.0051498309106456E+01 
    8.3459124342002458E+00 
    1.0046282568773726E+01 
    1.3977795286988000E+01 
    9.8024430829103633E+00 
    5.6688917082551624E+00 
    9.4442442462536107E+00 
    1.4381776679647620E+01 
    9.9368058700622974E+00 
    8.3558082278182759E+00 
    9.3889993461572043E+00 
    1.4489671571452408E+01 
    1.3079421992438233E+01 
    7.9185319103649334E+00 
    1.4622741040179820E+01 
    9.7312270256333147E+00 
    1.3562346036943989E+01 
    1.4502643079550035E+01 
    1.0176169436044376E+01 
    5.0408375547876334E+00 
    1.0584631025224102E+01 
    5.2172734299006152E+00 
    9.8528472823125242E+00 
    9.6379637581923987E+00 
    1.1142829105712794E+01 
    5.5180793982520013E+00 
    1.1827991273691184E+01 
    9.6621080635154133E+00 
    1.3309414337119856E+01 
    1.0148345750745962E+01 
    7.7236146988012315E+00 
    9.2696150969369295E+00 
    1.0125079660201045E+01 
    1.0150973086937308E+01 
    1.4103480654082997E+01 
    7.9654881945001295E+00 
    7.8266194599923562E+00 
    5.8071972309837765E+00 
    1.3589354662814062E+01 
    9.3084648420136507E+00 
    1.2882528891702629E+01 
    9.6072236956009913E+00 
    6.3601580221383669E+00 
    1.3106476338681667E+01 
    9.5818632001391535E+00 
    6.9468603270688138E+00 
    7.3695354304676535E+00 
    7.6367188579910783E+00 
    1.3338026329027585E+01 
    9.5751453651260601E+00 
    1.3948533789152657E+01 
    9.5402044302594913E+00 
    9.4780628319142224E+00 
    9.0037765499938107E+00 
    1.3185151255346206E+01 
    9.3961011416476587E+00 
    7.6764309006296330E+00 
    1.4871377473581422E+01 
    1.3261678935440736E+01 
    6.6746483502007710E+00 
    2.5654919705975154E+00 
    9.5647191395520377E+00 
    9.0106598452833619E+00 
    8.0730511731818098E+00 
    8.8135542616094060E+00 
    1.3230950441189192E+01 
    9.2804769476447238E+00 
    8.3996650234811661E+00 
    1.3094417183401509E+01 
    6.6142452338898563E+00 
    1.2779200533327600E+01 
    8.7084656998106738E+00 
    7.6065547317286226E+00 
    8.1525613537206745E+00 
    1.3643981646566402E+01 
    9.6272394786853432E+00 
    9.6359123359804002E+00 
    5.6003475365191697E+00 
    6.0621787405741419E+00 
    1.2147124664825263E+01 
    9.6466655550411335E+00 
    9.6042278927562581E+00 
    1.4608179125163785E+01 
    7.8294350932409822E+00 
    9.6599635299953732E+00 
    6.8416367257375450E+00 
    7.0580978647405876E+00 
    1.3178343218169084E+01 
    9.2878548545513926E+00 
    6.6952404282650564E+00 
    1.0167211970499235E+01 
    9.5237807860151875E+00 
    1.3181359298325315E+01 
    1.4699198682804337E+01 
    9.8412826944960508E-01 
    9.5695201281207716E+00 
    9.8961153401970474E+00 
    1.3242715512020341E+01 
    9.0851159862983657E+00 
    9.6008875598875800E+00 
    1.4153461468573877E+01 
    8.1870577486315117E+00 
    6.7559264471444784E+00 
    1.1670019559545677E+01 
    1.3050777373622727E+01 
    1.4032118158008267E+01 
    1.4293714980648563E+01 
    9.4152130574122648E+00 
    9.5613303640964915E+00 
    1.0836801502444043E+01 
    6.3387532212344917E+00 
    1.3172214447488171E+01 
    7.2885306967499703E+00 
    6.6044553946965125E+00 
    1.2082452449875772E+01 
    1.1363483293533564E+01 
    6.4757278720230476E+00 
    1.3084973555330286E+01 
    1.4018472609412401E+01 
    1.0066489786213401E+01 
    1.4798604211147509E+01 
    1.3116072876976361E+01 
    9.1531388612233560E+00 
    1.3766853786457819E+01 
    7.0628181710018927E+00 
    1.3068363835131555E+01 
    9.5685298607816271E+00 
    9.5302620148738395E+00 
    1.4774006840628950E+01 
    9.3403845361773499E+00 
    1.1807674329443584E+01 
    8.1374764878135863E+00 
    1.4132353164685794E+01 
    1.2980045776903644E+01 
    8.4968175747704073E+00 
    1.3027685575923254E+01 
    8.7209317638024206E+00 
    9.6115027211567412E+00 
    1.3979639926420516E+01 
    1.3312889593840435E+01 
    1.4021591145263351E+01 
    1.3245742393258846E+01 
    8.7064011610644485E+00 
    8.9182762129932449E+00 
    1.4028141572011174E+01 
    9.0392787238058858E+00 
    1.2916312600916747E+01 
    9.3310856573504193E+00 
    3.7702850011161679E+00 
    6.6751169320986152E+00 
    6.1769564788621496E+00 
    1.3983009928487197E+01 
    1.4705195772100577E+01 
    1.3045056043494780E+01 
    1.1161009815315870E+01 
    1.3318104449231749E+01 
    1.3091969207017474E+01 
    1.3648730589082543E+01 
    5.4061733510888939E+00 
    3.5149097984076012E+00 
    1.0962550136888133E+01 
    9.2415484114587887E+00 
    1.3232388288945941E+01 
    1.3229995520948215E+01 
    9.9160437604517391E+00 
    1.3265347124469367E+01 
    9.5558041803444134E+00 
    9.4799081375094705E+00 
    4.8765392524269409E+00 
    3.5012131383884695E+00 
    1.4486760412517274E+01 
    7.4997477383900879E+00 
    8.4404274661508047E+00 
    9.8108753896528231E+00 
    1.6082068001312329E+01 
    9.9054009064900352E+00 
    9.8852085019929827E+00 
    3.9840187636691957E+00 
    9.9063642661237559E+00 
    9.9198368142429718E+00 
    1.3535876506972949E+01 
    8.1572553651937909E+00 
    9.1985637235102082E+00 
    1.4650760669032616E+01 
    9.5776606764311030E+00 
    1.3060357378393519E+01 
    1.3307523031705170E+01 
    1.1895601992129629E+01 
    8.1481330852699401E+00 
    1.3245189622582323E+01 
    9.3756027241664910E+00 
    1.3249377869034618E+01 
    1.3001424046456554E+01 
    1.4001432717320442E+01 
    1.3244012227178111E+01 
    1.2443804058410644E+01 
    9.5666759320418588E+00 
    6.4257518773895770E+00 
    1.5955956388858455E+01 
    7.4387812914722691E+00 
    1.3934763746364490E+01 
    9.5641351478597212E+00 
    7.8694499878328807E+00 
    4.7102079507773551E+00 
    9.9539781000721845E+00 
    1.3232809160463628E+01 
    1.3228937081552324E+01 
    9.5919178260394542E+00 
    9.5584172025215643E+00 
    1.4853626495891092E+01 
    1.4238257613873923E+01 
    9.9231011896731900E+00 
    3.2707471257645047E+00 
    1.2407864349090993E+01 
    1.6209721214809868E+01 
    9.5699345374695959E+00 
    1.1522111092432457E+01 
    9.0824999297900444E+00 
    1.5814261717808140E+01 
    1.4315052584907255E+01 
    1.4057418806240026E+01 
    9.9437191232843016E+00 
    4.3914142754042729E+00 
    9.0409438390399544E+00 
    9.1075704848983925E+00 
    9.1499548049915500E+00 
    3.5599932535390182E+00 