# vtk DataFile Version 2.0
Pressure Field Data 
ASCII 
DATASET UNSTRUCTURED_GRID 

POINTS 2860 double 

    0.0000000000000000E+00     0.0000000000000000E+00     0.0000000000000000E+00 
    1.0000000000000000E+00     0.0000000000000000E+00     0.0000000000000000E+00 
    1.0000000000000000E+00     1.0000000000000000E+00     0.0000000000000000E+00 
    0.0000000000000000E+00     1.0000000000000000E+00     0.0000000000000000E+00 
    2.5000000000000000E-01     2.5000000000000000E-01     0.0000000000000000E+00 
    7.5000000000000000E-01     2.5000000000000000E-01     0.0000000000000000E+00 
    7.5000000000000000E-01     7.5000000000000000E-01     0.0000000000000000E+00 
    2.5000000000000000E-01     7.5000000000000000E-01     0.0000000000000000E+00 
    3.1249999999942091E-02     0.0000000000000000E+00     0.0000000000000000E+00 
    6.2499999999873469E-02     0.0000000000000000E+00     0.0000000000000000E+00 
    9.3749999999826514E-02     0.0000000000000000E+00     0.0000000000000000E+00 
    1.2499999999977961E-01     0.0000000000000000E+00     0.0000000000000000E+00 
    1.5624999999968961E-01     0.0000000000000000E+00     0.0000000000000000E+00 
    1.8749999999959971E-01     0.0000000000000000E+00     0.0000000000000000E+00 
    2.1874999999950970E-01     0.0000000000000000E+00     0.0000000000000000E+00 
    2.4999999999941969E-01     0.0000000000000000E+00     0.0000000000000000E+00 
    2.8124999999932920E-01     0.0000000000000000E+00     0.0000000000000000E+00 
    3.1249999999923850E-01     0.0000000000000000E+00     0.0000000000000000E+00 
    3.4374999999914790E-01     0.0000000000000000E+00     0.0000000000000000E+00 
    3.7499999999905720E-01     0.0000000000000000E+00     0.0000000000000000E+00 
    4.0624999999896660E-01     0.0000000000000000E+00     0.0000000000000000E+00 
    4.3749999999887590E-01     0.0000000000000000E+00     0.0000000000000000E+00 
    4.6874999999878530E-01     0.0000000000000000E+00     0.0000000000000000E+00 
    4.9999999999869471E-01     0.0000000000000000E+00     0.0000000000000000E+00 
    5.3124999999877620E-01     0.0000000000000000E+00     0.0000000000000000E+00 
    5.6249999999885780E-01     0.0000000000000000E+00     0.0000000000000000E+00 
    5.9374999999893940E-01     0.0000000000000000E+00     0.0000000000000000E+00 
    6.2499999999902101E-01     0.0000000000000000E+00     0.0000000000000000E+00 
    6.5624999999910261E-01     0.0000000000000000E+00     0.0000000000000000E+00 
    6.8749999999918421E-01     0.0000000000000000E+00     0.0000000000000000E+00 
    7.1874999999926570E-01     0.0000000000000000E+00     0.0000000000000000E+00 
    7.4999999999934730E-01     0.0000000000000000E+00     0.0000000000000000E+00 
    7.8124999999942890E-01     0.0000000000000000E+00     0.0000000000000000E+00 
    8.1249999999951039E-01     0.0000000000000000E+00     0.0000000000000000E+00 
    8.4374999999959199E-01     0.0000000000000000E+00     0.0000000000000000E+00 
    8.7499999999967359E-01     0.0000000000000000E+00     0.0000000000000000E+00 
    9.0624999999975520E-01     0.0000000000000000E+00     0.0000000000000000E+00 
    9.3749999999983680E-01     0.0000000000000000E+00     0.0000000000000000E+00 
    9.6874999999991840E-01     0.0000000000000000E+00     0.0000000000000000E+00 
    1.0000000000000000E+00     3.1249999999942091E-02     0.0000000000000000E+00 
    1.0000000000000000E+00     6.2499999999873469E-02     0.0000000000000000E+00 
    1.0000000000000000E+00     9.3749999999826514E-02     0.0000000000000000E+00 
    1.0000000000000000E+00     1.2499999999977961E-01     0.0000000000000000E+00 
    1.0000000000000000E+00     1.5624999999968961E-01     0.0000000000000000E+00 
    1.0000000000000000E+00     1.8749999999959971E-01     0.0000000000000000E+00 
    1.0000000000000000E+00     2.1874999999950970E-01     0.0000000000000000E+00 
    1.0000000000000000E+00     2.4999999999941969E-01     0.0000000000000000E+00 
    1.0000000000000000E+00     2.8124999999932920E-01     0.0000000000000000E+00 
    1.0000000000000000E+00     3.1249999999923850E-01     0.0000000000000000E+00 
    1.0000000000000000E+00     3.4374999999914790E-01     0.0000000000000000E+00 
    1.0000000000000000E+00     3.7499999999905720E-01     0.0000000000000000E+00 
    1.0000000000000000E+00     4.0624999999896660E-01     0.0000000000000000E+00 
    1.0000000000000000E+00     4.3749999999887590E-01     0.0000000000000000E+00 
    1.0000000000000000E+00     4.6874999999878530E-01     0.0000000000000000E+00 
    1.0000000000000000E+00     4.9999999999869471E-01     0.0000000000000000E+00 
    1.0000000000000000E+00     5.3124999999877620E-01     0.0000000000000000E+00 
    1.0000000000000000E+00     5.6249999999885780E-01     0.0000000000000000E+00 
    1.0000000000000000E+00     5.9374999999893940E-01     0.0000000000000000E+00 
    1.0000000000000000E+00     6.2499999999902101E-01     0.0000000000000000E+00 
    1.0000000000000000E+00     6.5624999999910261E-01     0.0000000000000000E+00 
    1.0000000000000000E+00     6.8749999999918421E-01     0.0000000000000000E+00 
    1.0000000000000000E+00     7.1874999999926570E-01     0.0000000000000000E+00 
    1.0000000000000000E+00     7.4999999999934730E-01     0.0000000000000000E+00 
    1.0000000000000000E+00     7.8124999999942890E-01     0.0000000000000000E+00 
    1.0000000000000000E+00     8.1249999999951039E-01     0.0000000000000000E+00 
    1.0000000000000000E+00     8.4374999999959199E-01     0.0000000000000000E+00 
    1.0000000000000000E+00     8.7499999999967359E-01     0.0000000000000000E+00 
    1.0000000000000000E+00     9.0624999999975520E-01     0.0000000000000000E+00 
    1.0000000000000000E+00     9.3749999999983680E-01     0.0000000000000000E+00 
    1.0000000000000000E+00     9.6874999999991840E-01     0.0000000000000000E+00 
    9.6875000000003686E-01     1.0000000000000000E+00     0.0000000000000000E+00 
    9.3750000000011691E-01     1.0000000000000000E+00     0.0000000000000000E+00 
    9.0625000000015765E-01     1.0000000000000000E+00     0.0000000000000000E+00 
    8.7500000000017863E-01     1.0000000000000000E+00     0.0000000000000000E+00 
    8.4375000000028044E-01     1.0000000000000000E+00     0.0000000000000000E+00 
    8.1250000000040856E-01     1.0000000000000000E+00     0.0000000000000000E+00 
    7.8125000000054956E-01     1.0000000000000000E+00     0.0000000000000000E+00 
    7.5000000000066480E-01     1.0000000000000000E+00     0.0000000000000000E+00 
    7.1875000000086831E-01     1.0000000000000000E+00     0.0000000000000000E+00 
    6.8750000000102829E-01     1.0000000000000000E+00     0.0000000000000000E+00 
    6.5625000000114431E-01     1.0000000000000000E+00     0.0000000000000000E+00 
    6.2500000000129829E-01     1.0000000000000000E+00     0.0000000000000000E+00 
    5.9375000000147926E-01     1.0000000000000000E+00     0.0000000000000000E+00 
    5.6250000000168354E-01     1.0000000000000000E+00     0.0000000000000000E+00 
    5.3125000000188671E-01     1.0000000000000000E+00     0.0000000000000000E+00 
    5.0000000000205835E-01     1.0000000000000000E+00     0.0000000000000000E+00 
    4.6875000000192979E-01     1.0000000000000000E+00     0.0000000000000000E+00 
    4.3750000000180111E-01     1.0000000000000000E+00     0.0000000000000000E+00 
    4.0625000000167238E-01     1.0000000000000000E+00     0.0000000000000000E+00 
    3.7500000000154382E-01     1.0000000000000000E+00     0.0000000000000000E+00 
    3.4375000000141509E-01     1.0000000000000000E+00     0.0000000000000000E+00 
    3.1250000000128642E-01     1.0000000000000000E+00     0.0000000000000000E+00 
    2.8125000000115769E-01     1.0000000000000000E+00     0.0000000000000000E+00 
    2.5000000000102918E-01     1.0000000000000000E+00     0.0000000000000000E+00 
    2.1875000000090050E-01     1.0000000000000000E+00     0.0000000000000000E+00 
    1.8750000000077180E-01     1.0000000000000000E+00     0.0000000000000000E+00 
    1.5625000000064329E-01     1.0000000000000000E+00     0.0000000000000000E+00 
    1.2500000000051459E-01     1.0000000000000000E+00     0.0000000000000000E+00 
    9.3750000000385914E-02     1.0000000000000000E+00     0.0000000000000000E+00 
    6.2500000000257239E-02     1.0000000000000000E+00     0.0000000000000000E+00 
    3.1250000000128557E-02     1.0000000000000000E+00     0.0000000000000000E+00 
    0.0000000000000000E+00     9.6875000000003686E-01     0.0000000000000000E+00 
    0.0000000000000000E+00     9.3750000000011691E-01     0.0000000000000000E+00 
    0.0000000000000000E+00     9.0625000000015765E-01     0.0000000000000000E+00 
    0.0000000000000000E+00     8.7500000000017863E-01     0.0000000000000000E+00 
    0.0000000000000000E+00     8.4375000000028044E-01     0.0000000000000000E+00 
    0.0000000000000000E+00     8.1250000000040856E-01     0.0000000000000000E+00 
    0.0000000000000000E+00     7.8125000000054956E-01     0.0000000000000000E+00 
    0.0000000000000000E+00     7.5000000000066480E-01     0.0000000000000000E+00 
    0.0000000000000000E+00     7.1875000000086831E-01     0.0000000000000000E+00 
    0.0000000000000000E+00     6.8750000000102829E-01     0.0000000000000000E+00 
    0.0000000000000000E+00     6.5625000000114431E-01     0.0000000000000000E+00 
    0.0000000000000000E+00     6.2500000000129829E-01     0.0000000000000000E+00 
    0.0000000000000000E+00     5.9375000000147926E-01     0.0000000000000000E+00 
    0.0000000000000000E+00     5.6250000000168354E-01     0.0000000000000000E+00 
    0.0000000000000000E+00     5.3125000000188671E-01     0.0000000000000000E+00 
    0.0000000000000000E+00     5.0000000000205835E-01     0.0000000000000000E+00 
    0.0000000000000000E+00     4.6875000000192979E-01     0.0000000000000000E+00 
    0.0000000000000000E+00     4.3750000000180111E-01     0.0000000000000000E+00 
    0.0000000000000000E+00     4.0625000000167238E-01     0.0000000000000000E+00 
[...]
CELL_DATA 2795 
SCALARS Pressure double 1 
LOOKUP_TABLE default 

    7.2958650192944976E+00 
    1.6495835165550059E+01 
    1.1570479133457733E+01 
    1.1225382448271162E+01 
    8.9494691400902120E+00 
    1.6341667913670115E+01 
    1.7152393504806085E+01 
    6.5230890357311910E+00 
    1.2122914483840903E+01 
    9.3227016425136995E+00 
    7.9522687297892212E+00 
    1.6051781150814207E+01 
    1.6399382911836710E+01 
    1.6306622994010514E+01 
    1.0670397458836774E+01 
    6.4151421295161839E+00 
    1.0336717886612554E+01 
    8.4672255728065888E+00 
    1.5637440509391141E+01 
    1.1552763617739986E+01 
    1.1449368135359579E+01 
    1.6232100622039880E+01 
    1.0922293458168387E+01 
    4.2557694390913681E-01 
    1.6041757367762433E+01 
    1.6360000074262718E+01 
    1.7186410586619637E+01 
    7.6649543800757280E+00 
    1.5961628001359802E+01 
    1.7176449698187042E+01 
    1.1695426872699032E+01 
    1.1757468477963505E+01 
    8.3343842401119925E+00 
    1.1533648423515558E+01 
    3.7477856350756791E+00 
    1.0341926155394921E+01 
    1.1519682951612268E+01 
    1.7219200014583006E+01 
    1.7126868463901371E+01 
    1.6066114654649311E+01 
    8.9234112936861063E+00 
    1.6032622633376704E+01 
    8.8422519888271900E-01 
    1.1495345359175667E+01 
    1.6928912838422516E+01 
    1.6699026586600969E+01 
    1.6039765887828977E+01 
    1.2572246880149724E+01 
    1.6105795813138403E+01 
    1.0573274862875072E+01 
    1.0078002492338079E+01 
    1.1721691773160236E+01 
    1.1383521977050352E+01 
    1.0401292484024847E+01 
    1.1768406470957023E+01 
    1.5397381002757969E+01 
    1.3597578403967900E+01 
    8.9972823374018969E+00 
    1.6238125929987319E+01 
    1.6148745091474034E+01 
    1.1195050159895048E+01 
    1.1133001831184258E+01 
    1.1115173681981926E+01 
    1.7069488905971308E+01 
    1.7351916385342200E+01 
    1.0350906875850109E+01 
    1.1720208791369197E+01 
    1.5864634450152211E+01 
    1.3573148067084043E+01 
    1.1186678740078840E+01 
    1.7357961560673637E+01 
    1.6185912497353712E+01 
    1.0204896146503321E+01 
    1.6823590061237542E+01 
    1.2018039843446294E+01 
    1.5881837972047755E+01 
    1.7231250159066814E+01 
    1.2113419998282367E+01 
    7.4403977791286104E+00 
    1.1738370660207874E+01 
    1.7137028345856773E+01 
    1.7387322890738378E+01 
    1.0365069288001155E+01 
    1.1663908175584547E+01 
    1.7438645452063358E+01 
    1.1518992553020311E+01 
    1.1020259992278714E+01 
    1.4066163221404928E+01 
    7.1135129161726498E+00 
    1.0103767054078531E+01 
    1.1661339159921891E+01 
    1.2280938382891676E+01 
    1.8995117426675890E+01 
    8.7002869627270627E+00 
    1.1728061545021186E+01 
    1.6014792619832960E+01 
    1.6343326103916944E+01 
    7.6787365805914787E+00 
    1.1380896126656246E+01 
    1.1694714499937280E+01 
    1.6367458247814614E+01 
    1.1686417775191629E+01 
    1.6287846233896481E+01 
    4.6555466434608546E+00 
    7.7328780915632942E+00 
    1.1945601951719732E+01 
    1.6504177693023479E+01 
    1.0302528871857291E+01 
    1.0945400626751669E+01 
    1.1665463296566557E+01 
    1.0981630397487651E+01 
    1.3179991181982713E+01 
    1.0654856139486496E+01 
    1.0214850416694100E+01 
    8.1634649361189631E+00 
    1.3855593039476762E+01 
    1.1762541464545173E+01 
    1.6972628639492573E+01 
    1.0113373823203911E+01 
    1.1202971586540160E+01 
    1.6174237130331203E+01 
    9.3892934724966644E+00 
    1.6672708045795609E+01 
    1.1591967490054266E+01 
    1.1125017247328998E+01 
    1.6346360446591845E+01 
    1.1750708774476506E+01 
    1.7246181278918172E+01 
    1.4093242694723937E+01 
    1.5216044767012486E+01 
    1.7204649104804265E+01 
    8.7175023499871038E+00 
    1.1968638871199982E+01 
    1.6344758904057226E+01 
    3.4755859630433430E+00 
    1.1745553993990853E+01 
    1.7167858134798475E+01 
    1.1156129050645944E+01 
    1.2877046094059306E+01 
    7.6633559976534515E+00 
    1.6011789856554326E+01 
    1.9507156272229793E+01 
    1.4638912100144509E+01 
    1.1156761755460671E+01 
    9.9904456197726983E+00 
    1.2450374314078896E+01 
    1.1608860684181856E+01 
    8.0381726179312523E+00 
    1.7200139209758792E+01 
    1.6374657923687501E+01 
    1.6016651521200085E+01 
    1.2286333566144123E+01 
    1.0176498648843404E+01 
    1.1446056515690573E+01 
    1.6859442834353136E+01 
    1.0461503898034801E+01 
    1.1683966909544347E+01 
    1.0649901466310244E+01 
    1.3555806749554323E+01 
    1.9494839145580496E+01 
    1.6007217391498635E+01 
    1.0190743973818099E+01 
    1.6562615000082030E+01 
    1.6459438185555435E+01 
    1.6547628606670834E+01 
    1.7652463870327889E+01 
    1.8233155695230824E+01 
    1.6692816011283174E+01 
    1.1711948146599916E+01 
    1.2697775174780668E+01 
    1.6508523204858992E+01 
    1.6986208145847115E+01 
    8.3927782748244883E+00 
    1.6039288842274939E+01 
    1.6819142713737751E+01 
    8.1666522233911749E+00 
    1.7571834172319814E+01 
    1.7542760217921561E+01 
    1.5715999825161653E+01 
    1.2046166614240660E+01 
    3.0530807044025559E+00 
    1.7168912999549299E+01 
    1.1885521197833899E+01 
    1.7298757126127004E+01 
    1.1077120304006128E+01 
    1.6980633330513324E+01 
    1.0927596914579727E+00 
    1.5224910655986337E+01 
    1.1181347656945693E+01 
    1.0124491396983959E+01 
    9.8707636157487393E+00 
    1.1560460882984195E+01 
    1.2767461914659387E+01 
    1.2158316216197401E+01 
    8.2547499027083227E+00 
    1.6979869986208403E+01 
    1.6370397141716047E+01 
    1.3690887585542050E+01 
    1.1937898067192128E+01 
    1.7662980405540434E+00 
    9.1149072765915715E+00 
    6.3488672905109986E+00 
    1.7187267830891535E+01 
    1.2952648372673877E+01 
    1.6402076845562458E+01 
    1.6444654539220938E+01 
    1.0549083825791943E+01 
    1.3531627573205949E+01 
    1.6011205902035204E+01 
    1.7524023740923596E+01 
    7.6379503555430803E+00 
    1.4493937163801807E+01 
    1.2145259131955543E+01 
    6.7663849610435802E+00 
    1.0541588151325046E+01 
    1.4187474583551897E+01 
    1.6401823228312235E+01 
    1.1611900095128075E+01 
    1.6523741168669456E+01 
    1.6264383851419655E+01 
    1.6206983215075599E+01 
    1.1450912525073633E+01 
    1.0046039801528165E+01 
    1.6025332404408502E+01 
    1.0200210731286967E+01 
    1.1694227245372831E+01 
    9.9998302791252112E+00 
    1.1633247108450668E+01 
    1.6454958278853105E+01 
    7.2751637836977778E+00 
    1.0436828789636056E+01 
    1.7095719221000834E+01 
    1.1460109159277950E+01 
    1.2848193551636099E+01 
    7.4633791286159665E+00 
    1.0271441342592878E+01 
    1.6239923669608899E+01 
    1.6585139792565300E+01 
    6.0942905121611197E+00 
    1.1471107930519242E+01 
    1.0065594405455439E+01 
    1.7983535392679514E+01 
    1.7396454170145972E+01 
    1.8263693792184107E+01 
    1.1491062901061811E+01 
    1.6424767998829562E+01 
    1.5959839903287547E+01 
    1.1349273656840730E+01 
    1.6017164924914173E+01 
    1.1939312603990185E+01 
    6.8466223824906800E+00 
    1.1821765760265460E+01 
    1.7078090335726340E+01 
    1.6013564574057348E+01 
    7.9172900107167790E+00 
    1.6047283033219465E+01 
    1.2793747487979406E+01 
    1.1723375725118697E+01 
    1.1236696807025137E+01 
    1.5861119900292078E+01 
    1.2282142181264090E+01 
    1.6031555836792698E+01 
    1.1421632850329134E+01 
    7.0703467455845184E+00 
    1.1771859055001913E+01 
    9.8845113127439443E+00 
    1.4655512734935462E+01 
    1.7299526218027356E+01 
    1.6023237780154435E+01 
    1.7161010302379115E+01 
    1.1402443614280322E+01 
    7.7059804233138847E+00 
    7.8141934107905486E+00 
    1.1924044127154511E+01 
    1.1666925413085362E+01 
    1.6983514091254539E+00 
    1.5447489778728233E+01 
    1.7685460070865535E+01 
    1.1093873820088385E+01 
    7.1526215798335775E+00 
    1.3491977435661310E+01 
    1.6045376955795451E+01 
    8.4414155145692806E+00 
    5.7372184699228486E+00 
    1.1649851194043288E+01 
    1.6126829772743527E+01 
    1.6874617248533863E+01 
    1.6740691783902747E+01 
    1.6588269791855591E+01 
    8.3066606305289064E+00 
    1.1718198996984480E+01 
    1.5511409258502175E+01 
    9.1508095175036903E+00 
    1.6384647396148299E+01 
    1.3785651293228542E+01 
    7.9315441942071292E+00 
    1.6156834410513966E+01 
    1.7203091583427433E+01 
    1.6187756916958669E+01 
    8.1271863641087965E+00 
    1.1716319208049354E+01 
    8.9206237869785472E+00 
    1.1065300608858342E+01 
    1.6035883285016105E+01 
    1.6022405839906313E+01 
    8.1739065828261683E+00 
    1.7026920641938045E+01 
    1.2294925839609570E+01 
    1.6056169750678382E+01 
    1.6995638884022718E+01 
    1.6043481745778443E+01 
    1.4911509414025362E+01 
    1.8045182398646293E+01 
    1.1038260540217395E+01 
    1.7126809790566757E+01 
    1.6085908215568345E+01 
    1.7207213333353931E+01 
    1.7019890570527952E+01 
    1.1151881463014519E+01 
    1.1559856671604734E+01 
    1.1083435795610125E+01 
    1.4318102264134286E+01 
    4.6753724554822282E+00 
    1.1854094921221552E+01 
    1.8178524003474312E+01 
    1.1942087306617301E+01 
    1.2153503427638109E+01 
    1.7177698071739339E+01 
    1.7428362687172669E+01 
    1.0943817372721224E+01 
    1.6052210010896243E+01 
    1.6017850206627585E+01 
    1.2139284656271132E+01 
    1.6970537166757826E+01 
    8.3287563970691227E+00 
    5.3194167057234907E+00 
    1.2460183205302938E+01 
    1.1955747728628539E+01 
    1.6024127455034446E+01 
    7.6526699091276749E+00 
    1.6650351058782217E+01 
    5.4108574020902598E+00 
    1.1890415477423590E+01 
    1.1172416223579299E+01 
    1.1693260858026784E+01 
    1.9547402102241751E+01 
    4.5316286057951913E+00 
    1.1764296226745497E+01 
    1.4089945652077450E+01 
    1.1293333117000451E+01 
    9.1074564611860307E+00 
    1.6783074563242657E+01 
    1.9086536362532719E+01 
    1.6945552971099374E+01 
    1.1697811771898571E+01 
    6.7282367603345472E+00 
    1.8931560274946673E+01 
    1.6359561543983055E+01 
    8.6587080599613433E+00 
    1.1326002336207196E+01 
    1.7634488202925972E+01 
    3.8584785397563652E+00 
    1.2014058874856275E+01 
    1.6918600542760672E+01 
    1.1708230150968902E+01 
    1.0208768630803306E+01 
    1.1807662660055890E+01 
    1.5702052629068065E+01 
    1.1690334623168145E+01 
    5.9905842297922041E+00 
    1.0673757711479992E+00 
    8.7359511871868012E+00 
    1.7876020451295236E+01 
    1.1082835967791500E+01 
    1.3151364807458563E+01 
    1.2608579957856088E+01 
    1.4527206875581541E+01 
    1.1721800732778751E+01 
    1.6257297589417082E+01 
    1.9562183128270394E+01 
    1.3974927838134997E+01 
    1.7096229036857057E+01 
    6.3391092061441423E-01 
    1.6024689411369952E+01 
    6.6150928283482422E+00 
    1.8357176555787028E+01 
    1.1779136425517416E+01 
    1.0406844090009022E+01 
    9.0959174005241792E+00 
    6.2833349145578401E+00 
    1.3122958968626163E+01 
    9.2662996111601235E+00 
    1.4535654461003169E+01 
    2.5694379964689347E+00 
    1.2835250581067337E+01 
    1.5946288608857285E+01 
    7.1012617931219637E+00 
    1.6536462693647284E+01 
    1.8140357708251045E+01 
    1.6366942679820845E+01 
    1.1629343262412569E+01 
    1.1687328885051114E+01 
    1.1771248498370928E+01 
    6.8119408853368739E+00 
    1.0776501230395873E+01 
    1.0596573725381816E+01 
    1.1759234390802838E+01 
    1.1003868795732762E+01 
    8.0597096470807350E-01 
    7.5740799130211975E+00 
    1.1457025765100854E+01 
    1.1731384747500798E+01 
    1.4935587638791720E+01 
    2.5333414168690140E+00 
    1.2093554573222663E+01 
    1.1963203996798763E+01 
    4.3658496569365424E+00 
    1.6216707859465203E+01 
    1.0221364669256648E+01 
    1.1820830011995824E+01 
    1.6357153168505192E+01 
    6.3121132629646830E+00 
    1.6338989685405661E+01 
    1.0355394854048681E+01 
    1.1537287419267346E+00 
    1.1153797859313920E+01 
    1.7043692391205404E+01 
    1.6024451495072810E+01 
    1.6044948276242085E+01 
    1.2144624338450001E+01 
    1.1893455086089817E+01 
    1.0196980160914396E+01 
    8.2691234370555460E+00 
    1.6482295617007026E+01 
    1.1320584651794162E+01 
    8.0260915589455823E+00 
    1.6040273024769800E+01 
    1.6810731846938332E+01 
    1.1950609379855639E+01 
    1.1508091608972268E+01 
    1.9435839411641428E+01 
    1.2140360315407849E+01 
    1.6498455792071457E+01 
    9.7028428323190319E+00 
    1.9591099524361372E+01 
    7.7689914333073808E+00 
    1.0656631779434916E+01 
    8.7011970742986886E+00 
    1.2403766795331885E+01 
    9.9745269783266721E+00 
    1.9574140600846668E+01 
    1.2195046805992229E+01 
    1.5656327748637997E+01 
    7.9893744715538864E+00 
    1.1716552222113931E+01 
    1.6321282270026582E+01 
    1.0014779753138502E+01 
    8.6603874718170601E+00 
    1.3112704678308628E+01 
    1.6567086895240067E+01 
    8.5673954322510362E+00 
    1.1196346617210848E+01 
    1.1543659654908298E+01 
    1.5996630217552081E+01 
    1.1320168967619217E+01 
    1.6544907616737031E+01 
    1.7238897840490566E+01 
    1.0229216788554528E+01 
    1.0029654404182454E+01 
    9.2862478421121839E+00 
    1.6154852086878062E+01 
    1.1992236701476518E+01 
    1.9127587321236643E+01 
    1.4977126654654224E+01 
    1.6275808773025201E+01 
    1.8797737877453894E+01 
    1.8147887509660755E+01 
    1.1763343939610596E+01 
    1.1742462817782670E+01 
    1.5746086045345933E+01 
    1.6067965164607031E+01 
    1.6676959237489559E+01 
    1.6382929623249904E+01 
    1.9459228105496546E+01 
    1.2139813783208991E+01 
    1.0345753291465332E+01 
    1.2132857399352753E+01 
    1.7143354258169701E+01 
    1.1858422351114903E+01 
    6.9398202771484261E+00 
    1.1611420154560379E+01 
    1.7599610626291646E+01 
    1.2003021083274215E+01 
    1.0358191135374536E+01 
    1.1484573382710447E+01 
    1.7720052853693911E+01 
    1.6097433697927340E+01 
    9.8781113643150675E+00 
    1.7867848929683515E+01 
    1.1791746546125678E+01 
    1.6661292432627736E+01 
    1.7734679567184990E+01 
    1.2459727274175274E+01 
    6.3196417520154800E+00 
    1.2987813453176130E+01 
    6.5367798408089470E+00 
    1.1908242868519739E+01 
    1.1712408638393860E+01 
    1.3702484921864965E+01 
    6.9181466323029461E+00 
    1.4557616892281455E+01 
    1.1729225571813702E+01 
    1.6371648172387633E+01 
    1.2542727643371567E+01 
    9.7150934419297954E+00 
    1.1343021670870749E+01 
    1.2315338684449335E+01 
    1.2258003425952541E+01 
    1.7288280102975524E+01 
    9.8855669937767026E+00 
    9.7177989816862986E+00 
    7.2869043626171033E+00 
    1.6701170529555426E+01 
    1.1390426738594494E+01 
    1.5858105823700244E+01 
    1.1681379270894652E+01 
    7.9736898438933030E+00 
    1.6129863020720805E+01 
    1.1657995206539265E+01 
    8.6775440577333800E+00 
    9.1765870756426438E+00 
    9.4933003627202552E+00 
    1.6406486382740844E+01 
    1.1761425183376916E+01 
    1.7109568143294826E+01 
    1.1618506743997333E+01 
    1.1558005421314597E+01 
    1.1106253288545402E+01 
    1.6224875650905908E+01 
    1.1472925956428456E+01 
    9.5364616332617445E+00 
    1.8135962153437834E+01 
    1.6316984360653390E+01 
    8.1368339095354223E+00 
    3.1938257318786767E+00 
    1.1750032586234184E+01 
    1.1017489054608221E+01 
    1.0015320117308754E+01 
    1.0884704595079056E+01 
    1.6256937299637165E+01 
    1.1425228307843470E+01 
    1.0405629381653466E+01 
    1.6092729287623172E+01 
    8.0668854883604677E+00 
    1.5703266520510464E+01 
    1.0629627956459725E+01 
    9.5422373710535382E+00 
    1.0112083875247569E+01 
    1.6755398403053718E+01 
    1.1695854218571132E+01 
    1.1704223601293501E+01 
    7.0070869398409430E+00 
    7.5717794837914987E+00 
    1.4844699079754596E+01 
    1.1714062111262850E+01 
    1.1793766311243981E+01 
    1.7853178842341787E+01 
    9.7230896463756817E+00 
    1.1726303055456356E+01 
    8.3447323047677351E+00 
    8.6141810222140567E+00 
    1.6214236553338626E+01 
    1.1348114835392254E+01 
    8.3437435921261383E+00 
    1.2285291670743764E+01 
    1.1614808277507171E+01 
    1.6219109435740531E+01 
    1.7953387884408574E+01 
    1.2080597089052727E+00 
    1.1755426147682956E+01 
    1.1954380703438014E+01 
    1.6293781124661848E+01 
    1.1234548006783688E+01 
    1.1668534973866198E+01 
    1.7348722092950684E+01 
    1.0154694837422355E+01 
    8.4192474821268988E+00 
    1.4049130894147133E+01 
    1.6040128146394320E+01 
    1.7205137651742259E+01 
    1.7497038421159509E+01 
    1.1581687387000700E+01 
    1.1745912990673173E+01 
    1.3128946275369580E+01 
    7.7376100937394874E+00 
    1.6187311838816122E+01 
    9.0644016704674311E+00 
    8.0526665351820235E+00 
    1.4655765252539579E+01 
    1.3818902277534761E+01 
    7.8994042395091553E+00 
    1.6080311574557651E+01 
    1.7190008229022276E+01 
    1.2157785392476267E+01 
    1.8063239399369603E+01 
    1.6118095737062703E+01 
    1.1296726446366900E+01 
    1.6896701606735860E+01 
    8.6086199654667137E+00 
    1.6061463625574035E+01 
    1.1754165446629761E+01 
    1.1712821861406136E+01 
    1.8038849419900913E+01 
    1.1431100090934731E+01 
    1.4405865452838109E+01 
    1.0095987057688848E+01 
    1.7319787439114300E+01 
    1.5954183613449052E+01 
    1.0527384274379200E+01 
    1.6011798882927938E+01 
    1.0655556678874515E+01 
    1.1675996663606169E+01 
    1.7145151469480755E+01 
    1.6380020546237965E+01 
    1.7193396283897300E+01 
    1.6297587054855430E+01 
    1.0782360747068848E+01 
    1.1023074440577046E+01 
    1.7201286545556297E+01 
    1.1164823621123034E+01 
    1.5866742846171720E+01 
    1.1415425250917593E+01 
    4.7016561963858408E+00 
    8.1378094694404162E+00 
    7.5389152809617421E+00 
    1.7149280251632138E+01 
    1.7961108867826194E+01 
    1.6032549803396094E+01 
    1.3426767196422205E+01 
    1.6359274633145528E+01 
    1.6090139205237485E+01 
    1.6755207535050133E+01 
    6.7722151845725538E+00 
    4.3783209395269775E+00 
    1.3177328017513926E+01 
    1.1409701769126535E+01 
    1.6259883912135436E+01 
    1.6257058242714869E+01 
    1.1976901816897431E+01 
    1.6299509240454448E+01 
    1.1739651389706896E+01 
    1.1658852341615793E+01 
    6.1096470661037880E+00 
    4.3665077698299530E+00 
    1.7716156501164306E+01 
    9.1462956548805305E+00 
    1.0461154592463343E+01 
    1.1869932136430872E+01 
    1.9438494766530781E+01 
    1.1964372181538803E+01 
    1.2096924433457431E+01 
    4.9740007586756709E+00 
    1.1964578271897206E+01 
    1.1979356196853384E+01 
    1.6588366882934373E+01 
    1.0119808970939957E+01 
    1.1223150786438449E+01 
    1.7899505872059223E+01 
    1.1764588097075002E+01 
    1.6050577657340412E+01 
    1.6309340814503791E+01 
    1.4330752217000747E+01 
    9.9539986413255264E+00 
    1.6297228729256414E+01 
    1.1545644553742919E+01 
    1.6232340504966523E+01 
    1.5980989271740834E+01 
    1.7170541992543157E+01 
    1.6294760653403902E+01 
    1.5255423608538226E+01 
    1.1752027964456074E+01 
    7.8385606031945523E+00 
    1.9305798595642223E+01 
    9.2475228335486754E+00 
    1.7088100509238277E+01 
    1.1749239654354602E+01 
    9.7745423265330054E+00 
    5.8421600166822625E+00 
    1.2018482948541017E+01 
    1.6282061579616879E+01 
    1.6277879459032981E+01 
    1.1656178053400343E+01 
    1.1742969800977894E+01 
    1.8121556957392688E+01 
    1.7434950441652294E+01 
    1.1984880808453520E+01 
    4.0705451364620977E+00 
    1.5125157007934629E+01 
    1.9570880663397354E+01 
    1.1755584109893391E+01 
    1.3863050728805687E+01 
    1.1233960359425957E+01 
    1.9154395605772297E+01 
    1.7523392104740719E+01 
    1.7240445599808581E+01 
    1.2008140664236503E+01 
    5.4218105372174108E+00 
    1.1186650910007153E+01 
    1.1260115442323682E+01 
    1.1302243910107874E+01 
    4.4389306448598855E+00 