# vtk DataFile Version 2.0
Pressure Field Data 
ASCII 
DATASET UNSTRUCTURED_GRID 

POINTS 2860 double 

    0.0000000000000000E+00     0.0000000000000000E+00     0.0000000000000000E+00 
    1.0000000000000000E+00     0.0000000000000000E+00     0.0000000000000000E+00 
    1.0000000000000000E+00     1.0000000000000000E+00     0.0000000000000000E+00 
    0.0000000000000000E+00     1.0000000000000000E+00     0.0000000000000000E+00 
    2.5000000000000000E-01     2.5000000000000000E-01     0.0000000000000000E+00 
    7.5000000000000000E-01     2.5000000000000000E-01     0.0000000000000000E+00 
    7.5000000000000000E-01     7.5000000000000000E-01     0.0000000000000000E+00 
    2.5000000000000000E-01     7.5000000000000000E-01     0.0000000000000000E+00 
    3.1249999999942091E-02     0.0000000000000000E+00     0.0000000000000000E+00 
    6.2499999999873469E-02     0.0000000000000000E+00     0.0000000000000000E+00 
    9.3749999999826514E-02     0.0000000000000000E+00     0.0000000000000000E+00 
    1.2499999999977961E-01     0.0000000000000000E+00     0.0000000000000000E+00 
    1.5624999999968961E-01     0.0000000000000000E+00     0.0000000000000000E+00 
    1.8749999999959971E-01     0.0000000000000000E+00     0.0000000000000000E+00 
    2.1874999999950970E-01     0.0000000000000000E+00     0.0000000000000000E+00 
    2.4999999999941969E-01     0.0000000000000000E+00     0.0000000000000000E+00 
    2.8124999999932920E-01     0.0000000000000000E+00     0.0000000000000000E+00 
    3.1249999999923850E-01     0.0000000000000000E+00     0.0000000000000000E+00 
    3.4374999999914790E-01     0.0000000000000000E+00     0.0000000000000000E+00 
    3.7499999999905720E-01     0.0000000000000000E+00     0.0000000000000000E+00 
    4.0624999999896660E-01     0.0000000000000000E+00     0.0000000000000000E+00 
    4.3749999999887590E-01     0.0000000000000000E+00     0.0000000000000000E+00 
    4.6874999999878530E-01     0.0000000000000000E+00     0.0000000000000000E+00 
    4.9999999999869471E-01     0.0000000000000000E+00     0.0000000000000000E+00 
    5.3124999999877620E-01     0.0000000000000000E+00     0.0000000000000000E+00 
    5.6249999999885780E-01     0.0000000000000000E+00     0.0000000000000000E+00 
    5.9374999999893940E-01     0.0000000000000000E+00     0.0000000000000000E+00 
    6.2499999999902101E-01     0.0000000000000000E+00     0.0000000000000000E+00 
    6.5624999999910261E-01     0.0000000000000000E+00     0.0000000000000000E+00 
    6.8749999999918421E-01     0.0000000000000000E+00     0.0000000000000000E+00 
    7.1874999999926570E-01     0.0000000000000000E+00     0.0000000000000000E+00 
    7.4999999999934730E-01     0.0000000000000000E+00     0.0000000000000000E+00 
    7.8124999999942890E-01     0.0000000000000000E+00     0.0000000000000000E+00 
    8.1249999999951039E-01     0.0000000000000000E+00     0.0000000000000000E+00 
    8.4374999999959199E-01     0.0000000000000000E+00     0.0000000000000000E+00 
    8.7499999999967359E-01     0.0000000000000000E+00     0.0000000000000000E+00 
    9.0624999999975520E-01     0.0000000000000000E+00     0.0000000000000000E+00 
    9.3749999999983680E-01     0.0000000000000000E+00     0.0000000000000000E+00 
    9.6874999999991840E-01     0.0000000000000000E+00     0.0000000000000000E+00 
    1.0000000000000000E+00     3.1249999999942091E-02     0.0000000000000000E+00 
    1.0000000000000000E+00     6.2499999999873469E-02     0.0000000000000000E+00 
    1.0000000000000000E+00     9.3749999999826514E-02     0.0000000000000000E+00 
    1.0000000000000000E+00     1.2499999999977961E-01     0.0000000000000000E+00 
    1.0000000000000000E+00     1.5624999999968961E-01     0.0000000000000000E+00 
    1.0000000000000000E+00     1.8749999999959971E-01     0.0000000000000000E+00 
    1.0000000000000000E+00     2.1874999999950970E-01     0.0000000000000000E+00 
    1.0000000000000000E+00     2.4999999999941969E-01     0.0000000000000000E+00 
    1.0000000000000000E+00     2.8124999999932920E-01     0.0000000000000000E+00 
    1.0000000000000000E+00     3.1249999999923850E-01     0.0000000000000000E+00 
    1.0000000000000000E+00     3.4374999999914790E-01     0.0000000000000000E+00 
    1.0000000000000000E+00     3.7499999999905720E-01     0.0000000000000000E+00 
    1.0000000000000000E+00     4.0624999999896660E-01     0.0000000000000000E+00 
    1.0000000000000000E+00     4.3749999999887590E-01     0.0000000000000000E+00 
    1.0000000000000000E+00     4.6874999999878530E-01     0.0000000000000000E+00 
    1.0000000000000000E+00     4.9999999999869471E-01     0.0000000000000000E+00 
    1.0000000000000000E+00     5.3124999999877620E-01     0.0000000000000000E+00 
    1.0000000000000000E+00     5.6249999999885780E-01     0.0000000000000000E+00 
    1.0000000000000000E+00     5.9374999999893940E-01     0.0000000000000000E+00 
    1.0000000000000000E+00     6.2499999999902101E-01     0.0000000000000000E+00 
    1.0000000000000000E+00     6.5624999999910261E-01     0.0000000000000000E+00 
    1.0000000000000000E+00     6.8749999999918421E-01     0.0000000000000000E+00 
    1.0000000000000000E+00     7.1874999999926570E-01     0.0000000000000000E+00 
    1.0000000000000000E+00     7.4999999999934730E-01     0.0000000000000000E+00 
    1.0000000000000000E+00     7.8124999999942890E-01     0.0000000000000000E+00 
    1.0000000000000000E+00     8.1249999999951039E-01     0.0000000000000000E+00 
    1.0000000000000000E+00     8.4374999999959199E-01     0.0000000000000000E+00 
    1.0000000000000000E+00     8.7499999999967359E-01     0.0000000000000000E+00 
    1.0000000000000000E+00     9.0624999999975520E-01     0.0000000000000000E+00 
    1.0000000000000000E+00     9.3749999999983680E-01     0.0000000000000000E+00 
    1.0000000000000000E+00     9.6874999999991840E-01     0.0000000000000000E+00 
    9.6875000000003686E-01     1.0000000000000000E+00     0.0000000000000000E+00 
    9.3750000000011691E-01     1.0000000000000000E+00     0.0000000000000000E+00 
    9.0625000000015765E-01     1.0000000000000000E+00     0.0000000000000000E+00 
    8.7500000000017863E-01     1.0000000000000000E+00     0.0000000000000000E+00 
    8.4375000000028044E-01     1.0000000000000000E+00     0.0000000000000000E+00 
    8.1250000000040856E-01     1.0000000000000000E+00     0.0000000000000000E+00 
    7.8125000000054956E-01     1.0000000000000000E+00     0.0000000000000000E+00 
    7.5000000000066480E-01     1.0000000000000000E+00     0.0000000000000000E+00 
    7.1875000000086831E-01     1.0000000000000000E+00     0.0000000000000000E+00 
    6.8750000000102829E-01     1.0000000000000000E+00     0.0000000000000000E+00 
    6.5625000000114431E-01     1.0000000000000000E+00     0.0000000000000000E+00 
    6.2500000000129829E-01     1.0000000000000000E+00     0.0000000000000000E+00 
    5.9375000000147926E-01     1.0000000000000000E+00     0.0000000000000000E+00 
    5.6250000000168354E-01     1.0000000000000000E+00     0.0000000000000000E+00 
    5.3125000000188671E-01     1.0000000000000000E+00     0.0000000000000000E+00 
    5.0000000000205835E-01     1.0000000000000000E+00     0.0000000000000000E+00 
    4.6875000000192979E-01     1.0000000000000000E+00     0.0000000000000000E+00 
    4.3750000000180111E-01     1.0000000000000000E+00     0.0000000000000000E+00 
    4.0625000000167238E-01     1.0000000000000000E+00     0.0000000000000000E+00 
    3.7500000000154382E-01     1.0000000000000000E+00     0.0000000000000000E+00 
    3.4375000000141509E-01     1.0000000000000000E+00     0.0000000000000000E+00 
    3.1250000000128642E-01     1.0000000000000000E+00     0.0000000000000000E+00 
    2.8125000000115769E-01     1.0000000000000000E+00     0.0000000000000000E+00 
    2.5000000000102918E-01     1.0000000000000000E+00     0.0000000000000000E+00 
    2.1875000000090050E-01     1.0000000000000000E+00     0.0000000000000000E+00 
    1.8750000000077180E-01     1.0000000000000000E+00     0.0000000000000000E+00 
    1.5625000000064329E-01     1.0000000000000000E+00     0.0000000000000000E+00 
    1.2500000000051459E-01     1.0000000000000000E+00     0.0000000000000000E+00 
    9.3750000000385914E-02     1.0000000000000000E+00     0.0000000000000000E+00 
    6.2500000000257239E-02     1.0000000000000000E+00     0.0000000000000000E+00 
    3.1250000000128557E-02     1.0000000000000000E+00     0.0000000000000000E+00 
    0.0000000000000000E+00     9.6875000000003686E-01     0.0000000000000000E+00 
    0.0000000000000000E+00     9.3750000000011691E-01     0.0000000000000000E+00 
    0.0000000000000000E+00     9.0625000000015765E-01     0.0000000000000000E+00 
    0.0000000000000000E+00     8.7500000000017863E-01     0.0000000000000000E+00 
    0.0000000000000000E+00     8.4375000000028044E-01     0.0000000000000000E+00 
    0.0000000000000000E+00     8.1250000000040856E-01     0.0000000000000000E+00 
    0.0000000000000000E+00     7.8125000000054956E-01     0.0000000000000000E+00 
    0.0000000000000000E+00     7.5000000000066480E-01     0.0000000000000000E+00 
    0.0000000000000000E+00     7.1875000000086831E-01     0.0000000000000000E+00 
    0.0000000000000000E+00     6.8750000000102829E-01     0.0000000000000000E+00 
    0.0000000000000000E+00     6.5625000000114431E-01     0.0000000000000000E+00 
    0.0000000000000000E+00     6.2500000000129829E-01     0.0000000000000000E+00 
    0.0000000000000000E+00     5.9375000000147926E-01     0.0000000000000000E+00 
    0.0000000000000000E+00     5.6250000000168354E-01     0.0000000000000000E+00 
    0.0000000000000000E+00     5.3125000000188671E-01     0.0000000000000000E+00 
    0.0000000000000000E+00     5.0000000000205835E-01     0.0000000000000000E+00 
    0.0000000000000000E+00     4.6875000000192979E-01     0.0000000000000000E+00 
    0.0000000000000000E+00     4.3750000000180111E-01     0.0000000000000000E+00 
    0.0000000000000000E+00     4.0625000000167238E-01     0.0000000000000000E+00 
[...]
CELL_DATA 2795 
SCALARS Pressure double 1 
LOOKUP_TABLE default 

    5.7770003742760219E+00 
    1.3281661943577337E+01 
    9.3794955041836374E+00 
    8.9816657595878713E+00 
    7.1199135377234004E+00 
    1.3165114603989942E+01 
    1.3843490393062641E+01 
    5.1530245488897881E+00 
    9.9256457092356349E+00 
    7.5803294033677684E+00 
    6.4563382907781808E+00 
    1.2927471608596903E+01 
    1.3191618063568104E+01 
    1.3136303340904741E+01 
    8.6524489730854821E+00 
    5.0663234073217565E+00 
    8.2529254335311713E+00 
    6.8795125238578008E+00 
    1.2592084145893349E+01 
    9.3703617168162303E+00 
    9.2642283893172852E+00 
    1.3075899766016063E+01 
    8.7318286568354395E+00 
    3.3867528916937645E-01 
    1.2914486654399617E+01 
    1.3166355713246093E+01 
    1.3873181588749780E+01 
    6.2056829881164273E+00 
    1.2853640658618486E+01 
    1.3869028926532250E+01 
    9.4218009039367914E+00 
    9.6010202655911865E+00 
    6.7064751722840006E+00 
    9.3412140248915563E+00 
    2.9856936881469642E+00 
    8.2580483174663115E+00 
    9.3313135268591925E+00 
    1.3906984621003662E+01 
    1.3822239897643943E+01 
    1.2939472544664127E+01 
    7.0523899540748856E+00 
    1.2891280312330693E+01 
    7.0533066403650579E-01 
    9.2160298798023366E+00 
    1.3644277242208693E+01 
    1.3489380658433829E+01 
    1.2917515999196054E+01 
    1.0253453145986759E+01 
    1.2984726413420443E+01 
    8.4468351903462917E+00 
    8.0407879759413134E+00 
    9.5674857672895399E+00 
    9.1081197798585833E+00 
    8.3014546773801214E+00 
    9.4906123303915511E+00 
    1.2398035899849972E+01 
    1.1191102531160562E+01 
    7.1588785047162178E+00 
    1.3079663312306897E+01 
    1.3008419712227612E+01 
    8.9868439200570229E+00 
    9.0177454290222823E+00 
    8.8899846000724327E+00 
    1.3776662911303685E+01 
    1.4013507329424323E+01 
    8.2624932324120479E+00 
    9.5654415374794137E+00 
    1.2833540299068849E+01 
    1.0988971489580203E+01 
    9.0571467232216953E+00 
    1.4024523601555130E+01 
    1.3018199802077088E+01 
    8.1453689682458759E+00 
    1.3582701334459101E+01 
    9.7292928217140311E+00 
    1.2776917182039686E+01 
    1.3916711054379947E+01 
    9.7087705997659643E+00 
    5.8885109019446888E+00 
    9.5845374106069468E+00 
    1.3830373660043488E+01 
    1.4054302639277084E+01 
    8.2737481070661651E+00 
    9.4930473340402077E+00 
    1.4094931784870692E+01 
    9.3349464852385307E+00 
    8.8121173405595528E+00 
    1.1372582117589186E+01 
    5.6149818047038602E+00 
    8.0623311351161178E+00 
    9.4924997716326853E+00 
    1.0060329766050650E+01 
    1.5512898580136900E+01 
    6.9166397916001463E+00 
    9.5735979894431633E+00 
    1.2896997893222641E+01 
    1.3146038611226261E+01 
    6.0796400236374746E+00 
    9.2089938956344195E+00 
    9.5231490642573053E+00 
    1.3165257285719893E+01 
    9.5275388836408599E+00 
    1.3101365330057583E+01 
    3.6892682319138648E+00 
    6.2760896879943946E+00 
    9.7968615181488623E+00 
    1.3289791475620087E+01 
    8.2247543646293071E+00 
    8.7804094076168564E+00 
    9.5142737761947043E+00 
    8.7810311426283345E+00 
    1.0828534384530593E+01 
    8.5340913640020073E+00 
    8.1528698491156000E+00 
    6.3955821265829798E+00 
    1.1112466368966812E+01 
    9.6006103068751649E+00 
    1.3693633064061894E+01 
    8.2323967881842837E+00 
    8.9659144753443929E+00 
    1.3007645121692168E+01 
    7.4573728799555585E+00 
    1.3428553014733200E+01 
    9.4129525913021190E+00 
    8.8980766555583433E+00 
    1.3148047388318027E+01 
    9.5982133866151909E+00 
    1.3925788505330216E+01 
    1.1383130187916509E+01 
    1.2258596397042288E+01 
    1.3889031714150885E+01 
    6.9308785887990148E+00 
    9.8168030665815689E+00 
    1.3150387108134419E+01 
    2.7662994718945515E+00 
    9.4694993535847338E+00 
    1.3857371257060732E+01 
    8.9266652939842075E+00 
    1.0321212520873935E+01 
    6.0262795840986252E+00 
    1.2895630332400536E+01 
    1.5994865682134813E+01 
    1.1816504846090973E+01 
    8.9242028981848431E+00 
    7.9686287742526920E+00 
    1.0175297427611772E+01 
    9.4302513165585218E+00 
    6.5253208563289080E+00 
    1.3885022982292366E+01 
    1.3241371987874828E+01 
    1.2898594640627850E+01 
    1.0063114003059654E+01 
    8.1173590263906519E+00 
    9.2631719202131286E+00 
    1.3608635917141296E+01 
    8.3544751218374742E+00 
    9.3662495792211971E+00 
    8.5093732919440370E+00 
    1.0871502961725302E+01 
    1.5983287946037452E+01 
    1.2890699083507865E+01 
    8.0718920368475473E+00 
    1.3329092074938258E+01 
    1.3251119937380714E+01 
    1.3326821455107938E+01 
    1.4285627712244468E+01 
    1.4809269197867984E+01 
    1.3487309039662476E+01 
    9.5567264640360374E+00 
    1.0200756127562618E+01 
    1.3324325911260726E+01 
    1.3703963246535052E+01 
    6.8134387027876162E+00 
    1.2917127057849431E+01 
    1.3572855469976529E+01 
    6.6328756304621255E+00 
    1.4203406614842685E+01 
    1.4189732294383594E+01 
    1.2656919881265981E+01 
    9.8780430528421164E+00 
    2.4275047937901859E+00 
    1.3857822057238078E+01 
    9.7393228478586948E+00 
    1.3973559389926546E+01 
    8.8615668242872143E+00 
    1.3701722499641878E+01 
    8.6291759200788432E-01 
    1.2276309731804739E+01 
    9.0609763590206427E+00 
    8.0799032338798824E+00 
    7.8712268264837633E+00 
    9.3832852325449494E+00 
    1.0505467352345436E+01 
    9.7342159602870790E+00 
    6.4912297269035824E+00 
    1.3699636055168524E+01 
    1.3173775141104329E+01 
    1.1106904951638001E+01 
    9.7902223749662660E+00 
    1.4143103713499805E+00 
    7.2550994473512453E+00 
    5.0057337767097509E+00 
    1.3879773049095956E+01 
    1.0660613529836859E+01 
    1.3226891282947504E+01 
    1.3235937181333354E+01 
    8.4282282880037211E+00 
    1.1151965457164087E+01 
    1.2894421646607835E+01 
    1.4172366675998280E+01 
    6.0046092272002403E+00 
    1.1636980181156188E+01 
    9.7683729646953772E+00 
    5.3407582259728761E+00 
    8.4212792302825257E+00 
    1.1638519406380203E+01 
    1.3200170345874266E+01 
    9.4383255908378239E+00 
    1.3305270053227590E+01 
    1.3082701715157306E+01 
    1.3035077944313088E+01 
    9.2698973284407948E+00 
    8.0246145978527625E+00 
    1.2906080253495460E+01 
    8.1397939030357840E+00 
    9.5316325071940540E+00 
    7.9771429060852483E+00 
    9.3124429238689235E+00 
    1.3244030086763789E+01 
    5.8994940729462249E+00 
    8.3357697209110526E+00 
    1.3796826582954644E+01 
    9.2834340844130665E+00 
    1.0550862121752766E+01 
    6.0539294490168754E+00 
    8.2001799653819880E+00 
    1.3061997935601401E+01 
    1.3358228241882596E+01 
    4.9287517778489951E+00 
    9.2866181292038750E+00 
    8.0145950216279420E+00 
    1.4581284695993128E+01 
    1.4061528504363030E+01 
    1.4835083582398472E+01 
    9.3069585118324198E+00 
    1.3219400272010629E+01 
    1.2854737508840270E+01 
    9.1844061344788948E+00 
    1.2898901325438672E+01 
    9.7912134403586162E+00 
    5.4095719007366627E+00 
    9.5162262698876869E+00 
    1.3784518136981745E+01 
    1.2895914843263249E+01 
    6.4227184557831896E+00 
    1.2923631454025456E+01 
    1.0499173500907547E+01 
    9.4510390496205741E+00 
    9.0013615357172725E+00 
    1.2771954603413231E+01 
    1.0006991942299274E+01 
    1.2911074928662673E+01 
    9.1581383230950681E+00 
    5.6074033060414692E+00 
    9.6010324937800942E+00 
    7.8802679612623194E+00 
    1.1817643947006347E+01 
    1.3971800583246241E+01 
    1.2904697316768559E+01 
    1.3851099006932364E+01 
    9.2337262548119945E+00 
    6.2525462915250136E+00 
    6.3424201576675001E+00 
    9.6411437540644727E+00 
    9.5078082434050621E+00 
    1.3413907780368406E+00 
    1.2445542166053093E+01 
    1.4310833862128181E+01 
    8.8733477287331208E+00 
    5.6395731240041309E+00 
    1.0830384196688316E+01 
    1.2922305298501499E+01 
    6.7015126517058174E+00 
    4.5326124585550218E+00 
    9.4802819632487889E+00 
    1.3011816183116773E+01 
    1.3608718336943662E+01 
    1.3503973017394312E+01 
    1.3362174455165041E+01 
    6.5354354862830357E+00 
    9.4439495097365995E+00 
    1.2463850252745203E+01 
    7.4409397270367919E+00 
    1.3179411187626101E+01 
    1.1366174045977335E+01 
    6.4406641838362626E+00 
    1.3024802385939571E+01 
    1.3879361229477187E+01 
    1.3026865953564714E+01 
    6.4510818544603339E+00 
    9.5613220773834104E+00 
    7.0956874017375018E+00 
    9.0180638050140995E+00 
    1.2914269395445070E+01 
    1.2903192458610521E+01 
    6.4889426992335908E+00 
    1.3739345247864680E+01 
    1.0087403251246641E+01 
    1.2938442579418478E+01 
    1.3709154627041707E+01 
    1.2923857334523545E+01 
    1.2045960509032872E+01 
    1.4632694871119149E+01 
    8.8348281391693710E+00 
    1.3822233839873228E+01 
    1.2967848483908758E+01 
    1.3890973471800523E+01 
    1.3732944130361094E+01 
    8.9295549679638793E+00 
    9.3720514888570854E+00 
    8.8640575136652746E+00 
    1.1587507928281209E+01 
    3.7002852251540728E+00 
    9.5698305685442442E+00 
    1.4755920816731388E+01 
    9.7927022919625362E+00 
    9.9703170054156534E+00 
    1.3865240794947868E+01 
    1.4087612760502390E+01 
    8.7803336550734290E+00 
    1.2927688497508287E+01 
    1.2899668997228359E+01 
    9.9586171655668227E+00 
    1.3690340359276496E+01 
    6.7669765649607747E+00 
    4.2864091780949165E+00 
    1.0224791116581294E+01 
    9.8066304666705335E+00 
    1.2905344690165835E+01 
    6.0629187803821987E+00 
    1.3424093866261774E+01 
    4.3637097115222447E+00 
    9.7414603322445892E+00 
    8.9759243493579302E+00 
    9.5360028571416748E+00 
    1.6034300778362184E+01 
    3.5963975350261603E+00 
    9.4870184580914856E+00 
    1.1300652754071605E+01 
    9.1397042888359135E+00 
    7.1467454506724852E+00 
    1.3533193364507628E+01 
    1.5598392079426660E+01 
    1.3672161863505982E+01 
    9.4289364019741182E+00 
    5.3129641245875314E+00 
    1.5455463307387488E+01 
    1.3162642657724064E+01 
    6.8484636090405706E+00 
    9.0627441791633760E+00 
    1.4270244180178752E+01 
    3.0576705028901499E+00 
    9.8542129341675384E+00 
    1.3638914168750821E+01 
    9.5500970639639000E+00 
    8.3118460465300128E+00 
    9.5264678154093509E+00 
    1.2671669960428948E+01 
    9.5287518506062057E+00 
    4.7305693822214741E+00 
    8.3354539507938663E-01 
    7.0915197966761614E+00 
    1.4478426299439766E+01 
    8.8634795333810299E+00 
    1.0845901565444537E+01 
    1.0333388649150141E+01 
    1.1882988305486734E+01 
    9.5640761264525285E+00 
    1.3076155605919844E+01 
    1.6048431379293898E+01 
    1.1284741862785530E+01 
    1.3796297236712363E+01 
    5.0284809413901621E-01 
    1.2905079411072510E+01 
    5.2348621945891836E+00 
    1.4921031085542479E+01 
    9.5005889146300024E+00 
    8.4381609704020732E+00 
    7.2389506797607446E+00 
    4.9636835500654710E+00 
    1.0666520776466095E+01 
    7.5135226744703703E+00 
    1.1718170800406408E+01 
    2.0289337799980429E+00 
    1.0529575936335506E+01 
    1.2842442002238814E+01 
    5.7522048376195292E+00 
    1.3368368312690595E+01 
    1.4729051122730530E+01 
    1.3223371716812562E+01 
    9.3696463119196025E+00 
    9.5307385732807628E+00 
    9.4932796347174957E+00 
    5.3842447119743220E+00 
    8.6123087930461200E+00 
    8.4649030614072664E+00 
    9.4824385334052135E+00 
    8.7993296608194953E+00 
    6.3475411491778477E-01 
    6.0106900357583779E+00 
    9.1728082979807013E+00 
    9.4580648209978619E+00 
    1.2040609696469314E+01 
    2.0128879836349260E+00 
    9.9205347927164773E+00 
    9.8112986757335587E+00 
    3.4578135108092236E+00 
    1.3100552513014833E+01 
    8.1588180865849385E+00 
    9.6699118990424218E+00 
    1.3158648467083697E+01 
    4.9846172069305146E+00 
    1.3210624172291736E+01 
    8.2678077293777079E+00 
    9.2464783467781020E-01 
    8.9223561581514570E+00 
    1.3750986368724812E+01 
    1.2905053243991345E+01 
    1.2923331861848537E+01 
    9.8536473017652320E+00 
    9.7457075964098756E+00 
    8.1393945023851781E+00 
    6.5267628658764369E+00 
    1.3262035164679451E+01 
    9.0609146461387144E+00 
    6.3681928032100785E+00 
    1.2918601864715415E+01 
    1.3569764725798308E+01 
    9.6720095977240312E+00 
    9.3291774915377914E+00 
    1.5929671846408663E+01 
    9.9594204730614049E+00 
    1.3280369631593258E+01 
    7.7265067794164022E+00 
    1.6076986800940247E+01 
    6.3052517895544860E+00 
    8.5368307947073809E+00 
    7.0722921617362857E+00 
    1.0176161341134634E+01 
    8.1012954280691023E+00 
    1.6060622642496220E+01 
    1.0004551941907085E+01 
    1.2613175646558378E+01 
    6.4870879996019779E+00 
    9.5619182204551745E+00 
    1.3130918527661576E+01 
    8.1308931711257433E+00 
    6.7854161566571136E+00 
    1.0505941286151739E+01 
    1.3352177122183859E+01 
    6.9623908370906440E+00 
    8.9950993474522605E+00 
    9.3560616082562991E+00 
    1.2881966901005740E+01 
    9.1663073848747185E+00 
    1.3325140282417061E+01 
    1.3918662346267835E+01 
    8.1646623747562099E+00 
    7.9975686434155451E+00 
    7.5528664506887404E+00 
    1.3015180921328815E+01 
    9.8228828391214194E+00 
    1.5637373171163125E+01 
    1.2256348389630453E+01 
    1.3091603087479754E+01 
    1.5331497952293031E+01 
    1.4736805556683505E+01 
    9.6107196876069860E+00 
    9.4676609965216549E+00 
    1.2687293398280113E+01 
    1.2940602650345255E+01 
    1.3426777744383870E+01 
    1.3181742265781846E+01 
    1.5949390441030603E+01 
    9.9589872094278444E+00 
    8.2609902296840865E+00 
    9.9509156544106254E+00 
    1.3836025338512911E+01 
    9.7125711025367973E+00 
    5.6123665366327957E+00 
    9.3540273287527089E+00 
    1.4237431456015580E+01 
    9.8453533025108904E+00 
    8.2707798871569693E+00 
    9.2976415074031600E+00 
    1.4344714860840194E+01 
    1.2944781098579282E+01 
    7.8375771365789273E+00 
    1.4477063433042362E+01 
    9.6428444370542152E+00 
    1.3423813736651690E+01 
    1.4357599178659941E+01 
    1.0073964828261843E+01 
    4.9879384766562920E+00 
    1.0476386175472731E+01 
    5.1623888980545471E+00 
    9.7621275103260139E+00 
    9.5496925137647963E+00 
    1.1027831174911437E+01 
    5.4599741922733225E+00 
    1.1705739171419765E+01 
    9.5745596321404829E+00 
    1.3172602970950271E+01 
    1.0044454584512367E+01 
    7.6433887492363768E+00 
    9.1791851379868774E+00 
    1.0040262274518552E+01 
    1.0057639966373177E+01 
    1.3960749844935044E+01 
    7.8843060498873623E+00 
    7.7467647449851542E+00 
    5.7461410059471190E+00 
    1.3450167840366305E+01 
    9.2177227257845207E+00 
    1.2749687243252811E+01 
    9.5188401162493079E+00 
    6.2937057883845213E+00 
    1.2971462678313076E+01 
    9.4920435263857144E+00 
    6.8750636203132531E+00 
    7.2939156724153742E+00 
    7.5586116515687580E+00 
    1.3200912250891188E+01 
    9.4843822433771994E+00 
    1.3806980678035153E+01 
    9.4497012314551352E+00 
    9.3876101350516308E+00 
    8.9154538888647554E+00 
    1.3049386110484317E+01 
    9.3057358123898908E+00 
    7.5979989893924467E+00 
    1.4724751139512163E+01 
    1.3125168031790235E+01 
    6.6093036032966923E+00 
    2.5391630522526665E+00 
    9.4739456261764143E+00 
    8.9227487534855072E+00 
    7.9908295878047104E+00 
    8.7263422971741864E+00 
    1.3096180633682993E+01 
    9.1908211149785330E+00 
    8.3146619082412183E+00 
    1.2961129679419624E+01 
    6.5493842175864945E+00 
    1.2649564854038758E+01 
    8.6245970728594550E+00 
    7.5278313917748196E+00 
    8.0695328900994436E+00 
    1.3504841511607884E+01 
    9.5395502601435123E+00 
    9.5484394985214447E+00 
    5.5420135319217785E+00 
    5.9993343764394034E+00 
    1.2021470108612988E+01 
    9.5591048989912153E+00 
    9.5136236378516799E+00 
    1.4462510830253935E+01 
    7.7495185572436611E+00 
    9.5722549710422768E+00 
    6.7745896144118793E+00 
    6.9890306324070623E+00 
    1.3042439618936697E+01 
    9.1981125889957998E+00 
    6.6262601794531637E+00 
    1.0069636083383431E+01 
    9.4329052188321487E+00 
    1.3045510006572671E+01 
    1.4553084596510715E+01 
    9.7447407880895665E-01 
    9.4787368975501014E+00 
    9.8050039977036860E+00 
    1.3106419164993488E+01 
    8.9933227345130344E+00 
    9.5123999278925755E+00 
    1.4010205761902697E+01 
    8.1036913128129768E+00 
    6.6863394439282979E+00 
    1.1559047505169309E+01 
    1.2917999072093021E+01 
    1.3889986061259751E+01 
    1.4150075616353838E+01 
    9.3248048298922814E+00 
    9.4705946827623038E+00 
    1.0732561351751517E+01 
    6.2764644947511590E+00 
    1.3038070655303700E+01 
    7.2138715359054810E+00 
    6.5397427210904384E+00 
    1.1963736947865204E+01 
    1.1252222745133398E+01 
    6.4121989669646213E+00 
    1.2951822682203860E+01 
    1.3876409798587064E+01 
    9.9738366984263624E+00 
    1.4651984394558168E+01 
    1.2982532591427747E+01 
    9.0624876326382093E+00 
    1.3626616282236402E+01 
    6.9937344740964118E+00 
    1.2935364430184080E+01 
    9.4777637556491818E+00 
    9.4394063334016955E+00 
    1.4627374226390122E+01 
    9.2492744168424128E+00 
    1.1690751790362695E+01 
    8.0546074981910429E+00 
    1.3989495917408986E+01 
    1.2848027961023586E+01 
    8.4106757576556621E+00 
    1.2895218082817026E+01 
    8.6357550465720383E+00 
    9.5238312066786861E+00 
    1.3837881591358101E+01 
    1.3175786220388847E+01 
    1.3879517128780632E+01 
    1.3109401334485538E+01 
    8.6178988889957733E+00 
    8.8290766196804196E+00 
    1.3885994066572202E+01 
    8.9492647564968042E+00 
    1.2785141651172765E+01 
    9.2402258010744287E+00 
    3.7312876616411201E+00 
    6.6099699881875580E+00 
    6.1160977521102655E+00 
    1.3841208545335256E+01 
    1.4558997889984205E+01 
    1.2912432553804274E+01 
    1.1060642116532387E+01 
    1.3182314206860060E+01 
    1.2958706174962622E+01 
    1.3509956089634017E+01 
    5.3496182591302928E+00 
    3.4786731638072141E+00 
    1.0863636994181574E+01 
    9.1490415431507195E+00 
    1.3097604537287996E+01 
    1.3095235259425301E+01 
    9.8242649904632025E+00 
    1.3130215985707705E+01 
    9.4650849563070043E+00 
    9.3863488638183785E+00 
    4.8255828187817977E+00 
    3.4650352428955964E+00 
    1.4341851587562957E+01 
    7.4264915754407363E+00 
    8.3545419755997035E+00 
    9.7211006567832143E+00 
    1.5931019209914632E+01 
    9.8141669191976462E+00 
    9.7883960560795558E+00 
    3.9426777030751428E+00 
    9.8150441292089141E+00 
    9.8283239487969993E+00 
    1.3397446346156629E+01 
    8.0740641704018081E+00 
    9.1105828534449884E+00 
    1.4504910292400723E+01 
    9.4868676506225107E+00 
    1.2927561565172903E+01 
    1.3171583863440674E+01 
    1.1787323845194997E+01 
    8.0683282687539624E+00 
    1.3108827078635928E+01 
    9.2844745242666580E+00 
    1.3114864884137660E+01 
    1.2869157030513431E+01 
    1.3859489743758500E+01 
    1.3107748519558703E+01 
    1.2318574730839703E+01 
    9.4759188501462521E+00 
    6.3626472435410166E+00 
    1.5805220143181499E+01 
    7.3626460334625783E+00 
    1.3793554419685428E+01 
    9.4733768204695608E+00 
    7.7889212766979385E+00 
    4.6625609582429206E+00 
    9.8619715020464351E+00 
    1.3096592260952054E+01 
    1.3092677177462486E+01 
    9.5037627674789640E+00 
    9.4676554065265339E+00 
    1.4706834728253144E+01 
    1.4094934849614184E+01 
    9.8316891440289584E+00 
    3.2371154337641377E+00 
    1.2284301747395254E+01 
    1.6058448999320586E+01 
    9.4791807888420951E+00 
    1.1417137370679701E+01 
    8.9905035874029764E+00 
    1.5663997408191578E+01 
    1.4171160595473637E+01 
    1.3914750210193535E+01 
    9.8521280899325436E+00 
    4.3463621861306505E+00 
    8.9491766138867561E+00 
    9.0156346054150962E+00 
    9.0584552720575395E+00 
    3.5230435501625643E+00 