# vtk DataFile Version 2.0
Pressure Field Data 
ASCII 
DATASET UNSTRUCTURED_GRID 

POINTS 289 double 

    0.0000000000000000E+00     0.0000000000000000E+00     0.0000000000000000E+00 
    1.0000000000000000E+00     0.0000000000000000E+00     0.0000000000000000E+00 
    1.0000000000000000E+00     1.0000000000000000E+00     0.0000000000000000E+00 
    0.0000000000000000E+00     1.0000000000000000E+00     0.0000000000000000E+00 
    6.2499999999872928E-02     0.0000000000000000E+00     0.0000000000000000E+00 
    1.2499999999977310E-01     0.0000000000000000E+00     0.0000000000000000E+00 
    1.8749999999959341E-01     0.0000000000000000E+00     0.0000000000000000E+00 
    2.4999999999941089E-01     0.0000000000000000E+00     0.0000000000000000E+00 
    3.1249999999922851E-01     0.0000000000000000E+00     0.0000000000000000E+00 
    3.7499999999904610E-01     0.0000000000000000E+00     0.0000000000000000E+00 
    4.3749999999886358E-01     0.0000000000000000E+00     0.0000000000000000E+00 
    4.9999999999869210E-01     0.0000000000000000E+00     0.0000000000000000E+00 
    5.6249999999884603E-01     0.0000000000000000E+00     0.0000000000000000E+00 
    6.2499999999901090E-01     0.0000000000000000E+00     0.0000000000000000E+00 
    6.8749999999917577E-01     0.0000000000000000E+00     0.0000000000000000E+00 
    7.4999999999934064E-01     0.0000000000000000E+00     0.0000000000000000E+00 
    8.1249999999950551E-01     0.0000000000000000E+00     0.0000000000000000E+00 
    8.7499999999967026E-01     0.0000000000000000E+00     0.0000000000000000E+00 
    9.3749999999983513E-01     0.0000000000000000E+00     0.0000000000000000E+00 
    1.0000000000000000E+00     6.2499999999872928E-02     0.0000000000000000E+00 
    1.0000000000000000E+00     1.2499999999977310E-01     0.0000000000000000E+00 
    1.0000000000000000E+00     1.8749999999959341E-01     0.0000000000000000E+00 
    1.0000000000000000E+00     2.4999999999941089E-01     0.0000000000000000E+00 
    1.0000000000000000E+00     3.1249999999922851E-01     0.0000000000000000E+00 
    1.0000000000000000E+00     3.7499999999904610E-01     0.0000000000000000E+00 
    1.0000000000000000E+00     4.3749999999886358E-01     0.0000000000000000E+00 
    1.0000000000000000E+00     4.9999999999869210E-01     0.0000000000000000E+00 
    1.0000000000000000E+00     5.6249999999884603E-01     0.0000000000000000E+00 
    1.0000000000000000E+00     6.2499999999901090E-01     0.0000000000000000E+00 
    1.0000000000000000E+00     6.8749999999917577E-01     0.0000000000000000E+00 
    1.0000000000000000E+00     7.4999999999934064E-01     0.0000000000000000E+00 
    1.0000000000000000E+00     8.1249999999950551E-01     0.0000000000000000E+00 
    1.0000000000000000E+00     8.7499999999967026E-01     0.0000000000000000E+00 
    1.0000000000000000E+00     9.3749999999983513E-01     0.0000000000000000E+00 
    9.3749999999973976E-01     1.0000000000000000E+00     0.0000000000000000E+00 
    8.7499999999950118E-01     1.0000000000000000E+00     0.0000000000000000E+00 
    8.1249999999991318E-01     1.0000000000000000E+00     0.0000000000000000E+00 
    7.5000000000034706E-01     1.0000000000000000E+00     0.0000000000000000E+00 
    6.8750000000078049E-01     1.0000000000000000E+00     0.0000000000000000E+00 
    6.2500000000121403E-01     1.0000000000000000E+00     0.0000000000000000E+00 
    5.6250000000164757E-01     1.0000000000000000E+00     0.0000000000000000E+00 
    5.0000000000205946E-01     1.0000000000000000E+00     0.0000000000000000E+00 
    4.3750000000182099E-01     1.0000000000000000E+00     0.0000000000000000E+00 
    3.7500000000156092E-01     1.0000000000000000E+00     0.0000000000000000E+00 
    3.1250000000130068E-01     1.0000000000000000E+00     0.0000000000000000E+00 
    2.5000000000104050E-01     1.0000000000000000E+00     0.0000000000000000E+00 
    1.8750000000078040E-01     1.0000000000000000E+00     0.0000000000000000E+00 
    1.2500000000052031E-01     1.0000000000000000E+00     0.0000000000000000E+00 
    6.2500000000260125E-02     1.0000000000000000E+00     0.0000000000000000E+00 
    0.0000000000000000E+00     9.3749999999973976E-01     0.0000000000000000E+00 
    0.0000000000000000E+00     8.7499999999950118E-01     0.0000000000000000E+00 
    0.0000000000000000E+00     8.1249999999991318E-01     0.0000000000000000E+00 
    0.0000000000000000E+00     7.5000000000034706E-01     0.0000000000000000E+00 
    0.0000000000000000E+00     6.8750000000078049E-01     0.0000000000000000E+00 
    0.0000000000000000E+00     6.2500000000121403E-01     0.0000000000000000E+00 
    0.0000000000000000E+00     5.6250000000164757E-01     0.0000000000000000E+00 
    0.0000000000000000E+00     5.0000000000205946E-01     0.0000000000000000E+00 
    0.0000000000000000E+00     4.3750000000182099E-01     0.0000000000000000E+00 
    0.0000000000000000E+00     3.7500000000156092E-01     0.0000000000000000E+00 
    0.0000000000000000E+00     3.1250000000130068E-01     0.0000000000000000E+00 
    0.0000000000000000E+00     2.5000000000104050E-01     0.0000000000000000E+00 
    0.0000000000000000E+00     1.8750000000078040E-01     0.0000000000000000E+00 
    0.0000000000000000E+00     1.2500000000052031E-01     0.0000000000000000E+00 
    0.0000000000000000E+00     6.2500000000260125E-02     0.0000000000000000E+00 
    6.2499999999897131E-02     6.2500000000235922E-02     0.0000000000000000E+00 
    6.2499999999921327E-02     1.2500000000047351E-01     0.0000000000000000E+00 
    6.2499999999945530E-02     1.8750000000070621E-01     0.0000000000000000E+00 
    6.2499999999969733E-02     2.5000000000093858E-01     0.0000000000000000E+00 
    6.2499999999993928E-02     3.1250000000117117E-01     0.0000000000000000E+00 
    6.2500000000018124E-02     3.7500000000140382E-01     0.0000000000000000E+00 
    6.2500000000042327E-02     4.3750000000163619E-01     0.0000000000000000E+00 
    6.2500000000066530E-02     5.0000000000184897E-01     0.0000000000000000E+00 
    6.2500000000090733E-02     5.6250000000147260E-01     0.0000000000000000E+00 
    6.2500000000114922E-02     6.2500000000107636E-01     0.0000000000000000E+00 
    6.2500000000139125E-02     6.8750000000068034E-01     0.0000000000000000E+00 
    6.2500000000163328E-02     7.5000000000028411E-01     0.0000000000000000E+00 
    6.2500000000187531E-02     8.1249999999988787E-01     0.0000000000000000E+00 
    6.2500000000211720E-02     8.7499999999951172E-01     0.0000000000000000E+00 
    6.2500000000235922E-02     9.3749999999974565E-01     0.0000000000000000E+00 
    1.2499999999981980E-01     6.2500000000211733E-02     0.0000000000000000E+00 
    1.2499999999986650E-01     1.2500000000042691E-01     0.0000000000000000E+00 
    1.2499999999991319E-01     1.8750000000063199E-01     0.0000000000000000E+00 
    1.2499999999995989E-01     2.5000000000083678E-01     0.0000000000000000E+00 
    1.2500000000000661E-01     3.1250000000104172E-01     0.0000000000000000E+00 
    1.2500000000005329E-01     3.7500000000124661E-01     0.0000000000000000E+00 
    1.2500000000010000E-01     4.3750000000145117E-01     0.0000000000000000E+00 
    1.2500000000014669E-01     5.0000000000163858E-01     0.0000000000000000E+00 
    1.2500000000019340E-01     5.6250000000129741E-01     0.0000000000000000E+00 
    1.2500000000024011E-01     6.2500000000093847E-01     0.0000000000000000E+00 
    1.2500000000028680E-01     6.8750000000057998E-01     0.0000000000000000E+00 
    1.2500000000033351E-01     7.5000000000022127E-01     0.0000000000000000E+00 
    1.2500000000038020E-01     8.1249999999986211E-01     0.0000000000000000E+00 
    1.2500000000042691E-01     8.7499999999952238E-01     0.0000000000000000E+00 
    1.2500000000047359E-01     9.3749999999975164E-01     0.0000000000000000E+00 
    1.8749999999966760E-01     6.2500000000187531E-02     0.0000000000000000E+00 
    1.8749999999974179E-01     1.2500000000038020E-01     0.0000000000000000E+00 
    1.8749999999981601E-01     1.8750000000055780E-01     0.0000000000000000E+00 
    1.8749999999989009E-01     2.5000000000073502E-01     0.0000000000000000E+00 
    1.8749999999996431E-01     3.1250000000091221E-01     0.0000000000000000E+00 
    1.8750000000003850E-01     3.7500000000108941E-01     0.0000000000000000E+00 
    1.8750000000011269E-01     4.3750000000126649E-01     0.0000000000000000E+00 
    1.8750000000018691E-01     5.0000000000142808E-01     0.0000000000000000E+00 
    1.8750000000026110E-01     5.6250000000112244E-01     0.0000000000000000E+00 
    1.8750000000033529E-01     6.2500000000080080E-01     0.0000000000000000E+00 
    1.8750000000040951E-01     6.8750000000047962E-01     0.0000000000000000E+00 
    1.8750000000048361E-01     7.5000000000015843E-01     0.0000000000000000E+00 
    1.8750000000055780E-01     8.1249999999983680E-01     0.0000000000000000E+00 
    1.8750000000063199E-01     8.7499999999953304E-01     0.0000000000000000E+00 
    1.8750000000070621E-01     9.3749999999975764E-01     0.0000000000000000E+00 
    2.4999999999951281E-01     6.2500000000163314E-02     0.0000000000000000E+00 
    2.4999999999961461E-01     1.2500000000033351E-01     0.0000000000000000E+00 
    2.4999999999971650E-01     1.8750000000048361E-01     0.0000000000000000E+00 
    2.4999999999981831E-01     2.5000000000063310E-01     0.0000000000000000E+00 
    2.4999999999992020E-01     3.1250000000078260E-01     0.0000000000000000E+00 
    2.5000000000002198E-01     3.7500000000093209E-01     0.0000000000000000E+00 
    2.5000000000012390E-01     4.3750000000108180E-01     0.0000000000000000E+00 
    2.5000000000022571E-01     5.0000000000121769E-01     0.0000000000000000E+00 
    2.5000000000032763E-01     5.6250000000094724E-01     0.0000000000000000E+00 
    2.5000000000042938E-01     6.2500000000066314E-01     0.0000000000000000E+00 
    2.5000000000053119E-01     6.8750000000037925E-01     0.0000000000000000E+00 
[...]
CELL_DATA 256 
SCALARS Pressure double 1 
LOOKUP_TABLE default 

    1.8054441664138163E+00 
    1.7000446436802303E+00 
    1.6317381114543761E+00 
    1.5807765597507943E+00 
    1.5391059365257278E+00 
    1.5031485343445223E+00 
    1.4711889791097692E+00 
    1.4423863387666387E+00 
    1.4163630861202747E+00 
    1.3930119317931686E+00 
    1.3723900876761483E+00 
    1.3546475999297067E+00 
    1.3399618909140736E+00 
    1.3284679462887599E+00 
    1.3201491878199232E+00 
    1.3152601284205372E+00 
    1.7000446436807897E+00 
    1.6562965996644239E+00 
    1.6097816139405883E+00 
    1.5676573451671620E+00 
    1.5300752818356376E+00 
    1.4962086962917611E+00 
    1.4653791494848389E+00 
    1.4371870993787474E+00 
    1.4114671321423167E+00 
    1.3882259224859250E+00 
    1.3675902583220363E+00 
    1.3497597685919644E+00 
    1.3349522415169830E+00 
    1.3233345882003711E+00 
    1.3149135563420982E+00 
    1.3099608629299424E+00 
    1.6317381114551583E+00 
    1.6097816139409633E+00 
    1.5789777588708169E+00 
    1.5461794470973507E+00 
    1.5139907622353526E+00 
    1.4832623573600359E+00 
    1.4542520219830493E+00 
    1.4270712961601475E+00 
    1.4018443739639557E+00 
    1.3787530533366545E+00 
    1.3580413466724757E+00 
    1.3399978283266059E+00 
    1.3249162735709077E+00 
    1.3130263150262211E+00 
    1.3043834754606787E+00 
    1.2992943771989458E+00 
    1.5807765597517300E+00 
    1.5676573451677882E+00 
    1.5461794470976442E+00 
    1.5205353568284417E+00 
    1.4932574341105196E+00 
    1.4657169449043619E+00 
    1.4386687755629615E+00 
    1.4125887995496009E+00 
    1.3878530292963254E+00 
    1.3648214680790847E+00 
    1.3438740126121023E+00 
    1.3254134013209600E+00 
    1.3098366889343960E+00 
    1.2974672308010939E+00 
    1.2884418030288531E+00 
    1.2831207098123290E+00 
    1.5391059365267836E+00 
    1.5300752818364376E+00 
    1.5139907622358650E+00 
    1.4932574341107578E+00 
    1.4697915646074120E+00 
    1.4449273001756335E+00 
    1.4195764989801050E+00 
    1.3944043014146272E+00 
    1.3699576528954209E+00 
    1.3467443170964375E+00 
    1.3252768680061120E+00 
    1.3060853894772755E+00 
    1.2896931814253370E+00 
    1.2765520119910356E+00 
    1.2669160771199020E+00 
    1.2612210802215125E+00 
    1.5031485343456821E+00 
    1.4962086962926950E+00 
    1.4832623573607167E+00 
    1.4657169449047915E+00 
    1.4449273001758351E+00 
    1.4220132082868269E+00 
    1.3978625775418718E+00 
    1.3732014134737662E+00 
    1.3486700911110279E+00 
    1.3248832474823289E+00 
    1.3024718124615298E+00 
    1.2820989809525252E+00 
    1.2644401971399513E+00 
    1.2501154666801164E+00 
    1.2395380820692945E+00 
    1.2332550431592662E+00 
    1.4711889791110202E+00 
    1.4653791494858805E+00 
    1.4542520219838615E+00 
    1.4386687755635454E+00 
    1.4195764989804764E+00 
    1.3978625775420506E+00 
    1.3743150682733067E+00 
    1.3496427107433357E+00 
    1.3245188721815246E+00 
    1.2996254908172620E+00 
    1.2756934420631840E+00 
    1.2535226197726677E+00 
    1.2339699511374329E+00 
    1.2178727670389802E+00 
    1.2058701548520347E+00 
    1.1986857220112737E+00 
    1.4423863387679552E+00 
    1.4371870993798654E+00 
    1.4270712961610574E+00 
    1.4125887995503073E+00 
    1.3944043014151419E+00 
    1.3732014134741042E+00 
    1.3496427107435045E+00 
    1.3243742742799176E+00 
    1.2980559092627024E+00 
    1.2713990890857374E+00 
    1.2452115291254386E+00 
    1.2204304182150463E+00 
    1.1981244992371247E+00 
    1.1794168162991172E+00 
    1.1652794947577214E+00 
    1.1567218031934505E+00 
    1.4163630861214114E+00 
    1.4114671321432970E+00 
    1.4018443739647808E+00 
    1.3878530292970046E+00 
    1.3699576528959654E+00 
    1.3486700911114464E+00 
    1.3245188721818204E+00 
    1.2980559092628674E+00 
    1.2698859632130293E+00 
    1.2407079087862918E+00 
    1.2113717223747520E+00 
    1.1829400994010446E+00 
    1.1567213676460573E+00 
    1.1342176209216766E+00 
    1.1168948723178040E+00 
    1.1062319969835464E+00 
    1.3930119317939829E+00 
    1.3882259224866393E+00 
    1.3787530533372798E+00 
    1.3648214680796358E+00 
    1.3467443170969284E+00 
    1.3248832474827699E+00 
    1.2996254908176565E+00 
    1.2713990890860780E+00 
    1.2407079087865094E+00 
    1.2081813822578014E+00 
    1.1746525167484680E+00 
    1.1412664108491084E+00 
    1.1095787653001372E+00 
    1.0815769541262985E+00 
    1.0594622466790968E+00 
    1.0455200271129048E+00 
    1.3723900876766806E+00 
    1.3675902583225159E+00 
    1.3580413466729213E+00 
    1.3438740126125388E+00 
    1.3252768680065588E+00 
    1.3024718124620034E+00 
    1.2756934420636949E+00 
    1.2452115291259864E+00 
    1.2113717223752376E+00 
    1.1746525167487487E+00 
    1.1357665451290095E+00 
    1.0958344587084714E+00 
    1.0565964915100008E+00 
    1.0205990341740216E+00 
    9.9113011287730790E-01 
    9.7192227779153562E-01 
    1.3546475999300038E+00 
    1.3497597685922478E+00 
    1.3399978283269032E+00 
    1.3254134013213048E+00 
    1.3060853894776976E+00 
    1.2820989809530514E+00 
    1.2535226197733214E+00 
    1.2204304182158423E+00 
    1.1829400994018575E+00 
    1.1412664108497408E+00 
    1.0958344587088373E+00 
    1.0475195215857875E+00 
    9.9801486836776787E-01 
    9.5033679520497583E-01 
    9.0924818234567439E-01 
    8.8112068793628151E-01 
    1.3399618909141850E+00 
    1.3349522415171127E+00 
    1.3249162735710920E+00 
    1.3098366889346791E+00 
    1.2896931814257606E+00 
    1.2644401971405559E+00 
    1.2339699511382609E+00 
    1.1981244992382141E+00 
    1.1567213676472607E+00 
    1.1095787653011973E+00 
    1.0565964915108235E+00 
    9.9801486836824471E-01 
    9.3492032131284419E-01 
    8.7020950531958619E-01 
    8.1012567788480838E-01 
    7.6566977808320213E-01 
    1.3284679462887421E+00 
    1.3233345882003955E+00 
    1.3130263150263333E+00 
    1.2974672308013508E+00 
    1.2765520119914917E+00 
    1.2501154666808290E+00 
    1.2178727670400131E+00 
    1.1794168163005381E+00 
    1.1342176209233215E+00 
    1.0815769541278455E+00 
    1.0205990341753743E+00 
    9.5033679520602554E-01 
    8.7020950532019148E-01 
    7.8122085640278749E-01 
    6.8914599809287591E-01 
    6.1130651677961501E-01 
    1.3201491878198872E+00 
    1.3149135563421162E+00 
    1.3043834754608055E+00 
    1.2884418030291573E+00 
    1.2669160771204520E+00 
    1.2395380820701642E+00 
    1.2058701548533115E+00 
    1.1652794947595024E+00 
    1.1168948723199064E+00 
    1.0594622466811259E+00 
    9.9113011287915753E-01 
    9.0924818234722316E-01 
    8.1012567788588397E-01 
    6.8914599809324584E-01 
    5.4333201793079178E-01 
    3.8629808574223279E-01 
    1.3152601284205154E+00 
    1.3099608629299822E+00 
    1.2992943771991106E+00 
    1.2831207098127002E+00 
    1.2612210802221715E+00 
    1.2332550431603038E+00 
    1.1986857220127989E+00 
    1.1567218031955875E+00 
    1.1062319969860905E+00 
    1.0455200271153906E+00 
    9.7192227779384388E-01 
    8.8112068793826648E-01 
    7.6566977808463033E-01 
    6.1130651678005510E-01 
    3.8629808574171365E-01 
    0.0000000000000000E+00 

SCALARS Saturarion double 1 
LOOKUP_TABLE default 

    1.0000000000000000E+00 
    9.6310890378509240E-01 
    9.2951289621074340E-01 
    8.9292220987694826E-01 
    8.5510030900257739E-01 
    8.1749756551650521E-01 
    7.8049838737155597E-01 
    7.4420615811075308E-01 
    7.0823217015177764E-01 
    6.7219769360008730E-01 
    6.3506196120111269E-01 
    5.9533833773143785E-01 
    5.4951886520679805E-01 
    4.9040774253850611E-01 
    3.9359951876737792E-01 
    1.7907437185768196E-01 
    9.6310890378527503E-01 
    9.3755069592741513E-01 
    9.0712755211735829E-01 
    8.7390452726429757E-01 
    8.3925129039944968E-01 
    8.0444865994577996E-01 
    7.6986075576713542E-01 
    7.3567414378942542E-01 
    7.0153430745080747E-01 
    6.6707126346090262E-01 
    6.3129469191277576E-01 
    5.9276395110529156E-01 
    5.4800271821889768E-01 
    4.8967641985555516E-01 
    3.9340460035658498E-01 
    1.7886169699043344E-01 
    9.2951289621124478E-01 
    9.0712755211756213E-01 
    8.7995058649200142E-01 
    8.5026500462987709E-01 
    8.1915885125095833E-01 
    7.8762532141726627E-01 
    7.5601119941422190E-01 
    7.2453147244819682E-01 
    6.9286176091378615E-01 
    6.6052083319198163E-01 
    6.2660756777860560E-01 
    5.8970310879848875E-01 
    5.4644084053143904E-01 
    4.8915948259225733E-01 
    3.9373887072514024E-01 
    1.7982307707228379E-01 
    8.9292220987771287E-01 
    8.7390452726481693E-01 
    8.5026500463012367E-01 
    8.2419972617367199E-01 
    7.9676763845991427E-01 
    7.6877001199433670E-01 
    7.4049200173814433E-01 
    7.1201499339298369E-01 
    6.8310179573298324E-01 
    6.5322679054629262E-01 
    6.2155313750350594E-01 
    5.8651197691116663E-01 
    5.4509349517184336E-01 
    4.8892669149231521E-01 
    3.9477245161426711E-01 
    1.8232076268706404E-01 
    8.5510030900349954E-01 
    8.3925129040019386E-01 
    8.1915885125145493E-01 
    7.9676763846016407E-01 
    7.7303224387531011E-01 
    7.4859930509944095E-01 
    7.2371165462868348E-01 
    6.9849527861399163E-01 
    6.7261166420092644E-01 
    6.4563433645457546E-01 
    6.1656386081336334E-01 
    5.8397366283442387E-01 
    5.4438159314866652E-01 
    4.9057568256293138E-01 
    3.9819640807720463E-01 
    1.8936670522263316E-01 
    8.1749756551767983E-01 
    8.0444865994673387E-01 
    7.8762532141796515E-01 
    7.6877001199475892E-01 
    7.4859930509963846E-01 
    7.2775331594603987E-01 
    7.0629123905904834E-01 
    6.8438397144456831E-01 
    6.6161334417114759E-01 
    6.3763899921942813E-01 
    6.1139289826521959E-01 
    5.8141751670220942E-01 
    5.4422276597927954E-01 
    4.9264482845314572E-01 
    4.0271030042756240E-01 
    1.9893253639619721E-01 
    7.8049838737296606E-01 
    7.6986075576826618E-01 
    7.5601119941508432E-01 
    7.4049200173872620E-01 
    7.2371165462906362E-01 
    7.0629123905922175E-01 
    6.8822339299302127E-01 
    6.6967504695158431E-01 
    6.5018071223613183E-01 
    6.2932881837983146E-01 
    6.0610413532875251E-01 
    5.7900826592078125E-01 
    5.4466879447552441E-01 
    4.9565742858563339E-01 
    4.0879852826620078E-01 
    2.1137775618886492E-01 
    7.4420615811233837E-01 
    7.3567414379074891E-01 
    7.2453147244922567E-01 
    7.1201499339375462E-01 
    6.9849527861451755E-01 
    6.8438397144487417E-01 
    6.6967504695171298E-01 
    6.5444651660110542E-01 
    6.3830219951535339E-01 
    6.2073639600693475E-01 
    6.0076403499233855E-01 
    5.7678778461806690E-01 
    5.4573458609400949E-01 
    4.9969896428763400E-01 
    4.1673355874557427E-01 
    2.2690963503581596E-01 
    7.0823217015302120E-01 
    7.0153430745189549E-01 
    6.9286176091464913E-01 
    6.8310179573362317E-01 
    6.7261166420136920E-01 
    6.6161334417143924E-01 
    6.5018071223627893E-01 
    6.3830219951540224E-01 
    6.2563290352102274E-01 
    6.1157722626469735E-01 
    5.9517114877436827E-01 
    5.7484786386261277E-01 
    5.4739129439030620E-01 
    5.0564056266747548E-01 
    4.2770786546626210E-01 
    2.4696724086159993E-01 
    6.7219769360106885E-01 
    6.6707126346174528E-01 
    6.6052083319264721E-01 
    6.5322679054680821E-01 
    6.4563433645494539E-01 
    6.3763899921967104E-01 
    6.2932881837998655E-01 
    6.2073639600700170E-01 
    6.1157722626470690E-01 
    6.0120856881339368E-01 
    5.8865855589531202E-01 
    5.7238638889756466E-01 
    5.4925602231437820E-01 
    5.1234155471087450E-01 
    4.4081266441777123E-01 
    2.7039321208488748E-01 
    6.3506196120184844E-01 
    6.3129469191339671E-01 
    6.2660756777911020E-01 
    6.2155313750388996E-01 
    6.1656386081363790E-01 
    6.1139289826540100E-01 
    6.0610413532885943E-01 
    6.0076403499237474E-01 
    5.9517114877434629E-01 
    5.8865855589527760E-01 
    5.8030223160819794E-01 
    5.6860919776569063E-01 
    5.5058310684706357E-01 
    5.1955056696087998E-01 
    4.5609631707611381E-01 
    2.9761773207051123E-01 
    5.9533833773190803E-01 
    5.9276395110569136E-01 
    5.8970310879880738E-01 
    5.8651197691140433E-01 
    5.8397366283456964E-01 
    5.8141751670227104E-01 
    5.7900826592078969E-01 
    5.7678778461802416E-01 
    5.7484786386251674E-01 
    5.7238638889745608E-01 
    5.6860919776561525E-01 
    5.6210863119081000E-01 
    5.5005850559127090E-01 
    5.2623346847884056E-01 
    4.7285021612494099E-01 
    3.2847141784349854E-01 
    5.4951886520697790E-01 
    5.4800271821902780E-01 
    5.4644084053152353E-01 
    5.4509349517188277E-01 
    5.4438159314863765E-01 
    5.4422276597919550E-01 
    5.4466879447538308E-01 
    5.4573458609382985E-01 
    5.4739129439007672E-01 
    5.4925602231414161E-01 
    5.5058310684686695E-01 
    5.5005850559115554E-01 
    5.4514975609689376E-01 
    5.3028043684831383E-01 
    4.8971582066369318E-01 
    3.6382777301517411E-01 
    4.9040774253826036E-01 
    4.8967641985530136E-01 
    4.8915948259199332E-01 
    4.8892669149203716E-01 
    4.9057568256262429E-01 
    4.9264482845280483E-01 
    4.9565742858524625E-01 
    4.9969896428719573E-01 
    5.0564056266702695E-01 
    5.1234155471044962E-01 
    5.1955056696052160E-01 
    5.2623346847858388E-01 
    5.3028043684818804E-01 
    5.2675465400377564E-01 
    5.0238341764916539E-01 
    4.0171463988721601E-01 
    3.9359951876722588E-01 
    3.9340460035642899E-01 
    3.9373887072497915E-01 
    3.9477245161408081E-01 
    3.9819640807697865E-01 
    4.0271030042727429E-01 
    4.0879852826582436E-01 
    4.1673355874507462E-01 
    4.2770786546572798E-01 
    4.4081266441724132E-01 
    4.5609631707562748E-01 
    4.7285021612454459E-01 
    4.8971582066343777E-01 
    5.0238341764905659E-01 
    5.0006634615816770E-01 
    4.3614427713317411E-01 
    1.7907437185764469E-01 
    1.7886169699039103E-01 
    1.7982307707223852E-01 
    1.8232076268698277E-01 
    1.8936670522246041E-01 
    1.9893253639589223E-01 
    2.1137775618837731E-01 
    2.2690963503510750E-01 
    2.4696724086089472E-01 
    2.7039321208422823E-01 
    2.9761773206995529E-01 
    3.2847141784309164E-01 
    3.6382777301497504E-01 
    4.0171463988725675E-01 
    4.3614427713319281E-01 
    4.3533729784894587E-01 
