# vtk DataFile Version 2.0
Pressure Field Data 
ASCII 
DATASET UNSTRUCTURED_GRID 

POINTS 289 double 

    0.0000000000000000E+00     0.0000000000000000E+00     0.0000000000000000E+00 
    1.0000000000000000E+00     0.0000000000000000E+00     0.0000000000000000E+00 
    1.0000000000000000E+00     1.0000000000000000E+00     0.0000000000000000E+00 
    0.0000000000000000E+00     1.0000000000000000E+00     0.0000000000000000E+00 
    6.2499999999872928E-02     0.0000000000000000E+00     0.0000000000000000E+00 
    1.2499999999977310E-01     0.0000000000000000E+00     0.0000000000000000E+00 
    1.8749999999959341E-01     0.0000000000000000E+00     0.0000000000000000E+00 
    2.4999999999941089E-01     0.0000000000000000E+00     0.0000000000000000E+00 
    3.1249999999922851E-01     0.0000000000000000E+00     0.0000000000000000E+00 
    3.7499999999904610E-01     0.0000000000000000E+00     0.0000000000000000E+00 
    4.3749999999886358E-01     0.0000000000000000E+00     0.0000000000000000E+00 
    4.9999999999869210E-01     0.0000000000000000E+00     0.0000000000000000E+00 
    5.6249999999884603E-01     0.0000000000000000E+00     0.0000000000000000E+00 
    6.2499999999901090E-01     0.0000000000000000E+00     0.0000000000000000E+00 
    6.8749999999917577E-01     0.0000000000000000E+00     0.0000000000000000E+00 
    7.4999999999934064E-01     0.0000000000000000E+00     0.0000000000000000E+00 
    8.1249999999950551E-01     0.0000000000000000E+00     0.0000000000000000E+00 
    8.7499999999967026E-01     0.0000000000000000E+00     0.0000000000000000E+00 
    9.3749999999983513E-01     0.0000000000000000E+00     0.0000000000000000E+00 
    1.0000000000000000E+00     6.2499999999872928E-02     0.0000000000000000E+00 
    1.0000000000000000E+00     1.2499999999977310E-01     0.0000000000000000E+00 
    1.0000000000000000E+00     1.8749999999959341E-01     0.0000000000000000E+00 
    1.0000000000000000E+00     2.4999999999941089E-01     0.0000000000000000E+00 
    1.0000000000000000E+00     3.1249999999922851E-01     0.0000000000000000E+00 
    1.0000000000000000E+00     3.7499999999904610E-01     0.0000000000000000E+00 
    1.0000000000000000E+00     4.3749999999886358E-01     0.0000000000000000E+00 
    1.0000000000000000E+00     4.9999999999869210E-01     0.0000000000000000E+00 
    1.0000000000000000E+00     5.6249999999884603E-01     0.0000000000000000E+00 
    1.0000000000000000E+00     6.2499999999901090E-01     0.0000000000000000E+00 
    1.0000000000000000E+00     6.8749999999917577E-01     0.0000000000000000E+00 
    1.0000000000000000E+00     7.4999999999934064E-01     0.0000000000000000E+00 
    1.0000000000000000E+00     8.1249999999950551E-01     0.0000000000000000E+00 
    1.0000000000000000E+00     8.7499999999967026E-01     0.0000000000000000E+00 
    1.0000000000000000E+00     9.3749999999983513E-01     0.0000000000000000E+00 
    9.3749999999973976E-01     1.0000000000000000E+00     0.0000000000000000E+00 
    8.7499999999950118E-01     1.0000000000000000E+00     0.0000000000000000E+00 
    8.1249999999991318E-01     1.0000000000000000E+00     0.0000000000000000E+00 
    7.5000000000034706E-01     1.0000000000000000E+00     0.0000000000000000E+00 
    6.8750000000078049E-01     1.0000000000000000E+00     0.0000000000000000E+00 
    6.2500000000121403E-01     1.0000000000000000E+00     0.0000000000000000E+00 
    5.6250000000164757E-01     1.0000000000000000E+00     0.0000000000000000E+00 
    5.0000000000205946E-01     1.0000000000000000E+00     0.0000000000000000E+00 
    4.3750000000182099E-01     1.0000000000000000E+00     0.0000000000000000E+00 
    3.7500000000156092E-01     1.0000000000000000E+00     0.0000000000000000E+00 
    3.1250000000130068E-01     1.0000000000000000E+00     0.0000000000000000E+00 
    2.5000000000104050E-01     1.0000000000000000E+00     0.0000000000000000E+00 
    1.8750000000078040E-01     1.0000000000000000E+00     0.0000000000000000E+00 
    1.2500000000052031E-01     1.0000000000000000E+00     0.0000000000000000E+00 
    6.2500000000260125E-02     1.0000000000000000E+00     0.0000000000000000E+00 
    0.0000000000000000E+00     9.3749999999973976E-01     0.0000000000000000E+00 
    0.0000000000000000E+00     8.7499999999950118E-01     0.0000000000000000E+00 
    0.0000000000000000E+00     8.1249999999991318E-01     0.0000000000000000E+00 
    0.0000000000000000E+00     7.5000000000034706E-01     0.0000000000000000E+00 
    0.0000000000000000E+00     6.8750000000078049E-01     0.0000000000000000E+00 
    0.0000000000000000E+00     6.2500000000121403E-01     0.0000000000000000E+00 
    0.0000000000000000E+00     5.6250000000164757E-01     0.0000000000000000E+00 
    0.0000000000000000E+00     5.0000000000205946E-01     0.0000000000000000E+00 
    0.0000000000000000E+00     4.3750000000182099E-01     0.0000000000000000E+00 
    0.0000000000000000E+00     3.7500000000156092E-01     0.0000000000000000E+00 
    0.0000000000000000E+00     3.1250000000130068E-01     0.0000000000000000E+00 
    0.0000000000000000E+00     2.5000000000104050E-01     0.0000000000000000E+00 
    0.0000000000000000E+00     1.8750000000078040E-01     0.0000000000000000E+00 
    0.0000000000000000E+00     1.2500000000052031E-01     0.0000000000000000E+00 
    0.0000000000000000E+00     6.2500000000260125E-02     0.0000000000000000E+00 
    6.2499999999897131E-02     6.2500000000235922E-02     0.0000000000000000E+00 
    6.2499999999921327E-02     1.2500000000047351E-01     0.0000000000000000E+00 
    6.2499999999945530E-02     1.8750000000070621E-01     0.0000000000000000E+00 
    6.2499999999969733E-02     2.5000000000093858E-01     0.0000000000000000E+00 
    6.2499999999993928E-02     3.1250000000117117E-01     0.0000000000000000E+00 
    6.2500000000018124E-02     3.7500000000140382E-01     0.0000000000000000E+00 
    6.2500000000042327E-02     4.3750000000163619E-01     0.0000000000000000E+00 
    6.2500000000066530E-02     5.0000000000184897E-01     0.0000000000000000E+00 
    6.2500000000090733E-02     5.6250000000147260E-01     0.0000000000000000E+00 
    6.2500000000114922E-02     6.2500000000107636E-01     0.0000000000000000E+00 
    6.2500000000139125E-02     6.8750000000068034E-01     0.0000000000000000E+00 
    6.2500000000163328E-02     7.5000000000028411E-01     0.0000000000000000E+00 
    6.2500000000187531E-02     8.1249999999988787E-01     0.0000000000000000E+00 
    6.2500000000211720E-02     8.7499999999951172E-01     0.0000000000000000E+00 
    6.2500000000235922E-02     9.3749999999974565E-01     0.0000000000000000E+00 
    1.2499999999981980E-01     6.2500000000211733E-02     0.0000000000000000E+00 
    1.2499999999986650E-01     1.2500000000042691E-01     0.0000000000000000E+00 
    1.2499999999991319E-01     1.8750000000063199E-01     0.0000000000000000E+00 
    1.2499999999995989E-01     2.5000000000083678E-01     0.0000000000000000E+00 
    1.2500000000000661E-01     3.1250000000104172E-01     0.0000000000000000E+00 
    1.2500000000005329E-01     3.7500000000124661E-01     0.0000000000000000E+00 
    1.2500000000010000E-01     4.3750000000145117E-01     0.0000000000000000E+00 
    1.2500000000014669E-01     5.0000000000163858E-01     0.0000000000000000E+00 
    1.2500000000019340E-01     5.6250000000129741E-01     0.0000000000000000E+00 
    1.2500000000024011E-01     6.2500000000093847E-01     0.0000000000000000E+00 
    1.2500000000028680E-01     6.8750000000057998E-01     0.0000000000000000E+00 
    1.2500000000033351E-01     7.5000000000022127E-01     0.0000000000000000E+00 
    1.2500000000038020E-01     8.1249999999986211E-01     0.0000000000000000E+00 
    1.2500000000042691E-01     8.7499999999952238E-01     0.0000000000000000E+00 
    1.2500000000047359E-01     9.3749999999975164E-01     0.0000000000000000E+00 
    1.8749999999966760E-01     6.2500000000187531E-02     0.0000000000000000E+00 
    1.8749999999974179E-01     1.2500000000038020E-01     0.0000000000000000E+00 
    1.8749999999981601E-01     1.8750000000055780E-01     0.0000000000000000E+00 
    1.8749999999989009E-01     2.5000000000073502E-01     0.0000000000000000E+00 
    1.8749999999996431E-01     3.1250000000091221E-01     0.0000000000000000E+00 
    1.8750000000003850E-01     3.7500000000108941E-01     0.0000000000000000E+00 
    1.8750000000011269E-01     4.3750000000126649E-01     0.0000000000000000E+00 
    1.8750000000018691E-01     5.0000000000142808E-01     0.0000000000000000E+00 
    1.8750000000026110E-01     5.6250000000112244E-01     0.0000000000000000E+00 
    1.8750000000033529E-01     6.2500000000080080E-01     0.0000000000000000E+00 
    1.8750000000040951E-01     6.8750000000047962E-01     0.0000000000000000E+00 
    1.8750000000048361E-01     7.5000000000015843E-01     0.0000000000000000E+00 
    1.8750000000055780E-01     8.1249999999983680E-01     0.0000000000000000E+00 
    1.8750000000063199E-01     8.7499999999953304E-01     0.0000000000000000E+00 
    1.8750000000070621E-01     9.3749999999975764E-01     0.0000000000000000E+00 
    2.4999999999951281E-01     6.2500000000163314E-02     0.0000000000000000E+00 
    2.4999999999961461E-01     1.2500000000033351E-01     0.0000000000000000E+00 
    2.4999999999971650E-01     1.8750000000048361E-01     0.0000000000000000E+00 
    2.4999999999981831E-01     2.5000000000063310E-01     0.0000000000000000E+00 
    2.4999999999992020E-01     3.1250000000078260E-01     0.0000000000000000E+00 
    2.5000000000002198E-01     3.7500000000093209E-01     0.0000000000000000E+00 
    2.5000000000012390E-01     4.3750000000108180E-01     0.0000000000000000E+00 
    2.5000000000022571E-01     5.0000000000121769E-01     0.0000000000000000E+00 
    2.5000000000032763E-01     5.6250000000094724E-01     0.0000000000000000E+00 
    2.5000000000042938E-01     6.2500000000066314E-01     0.0000000000000000E+00 
    2.5000000000053119E-01     6.8750000000037925E-01     0.0000000000000000E+00 
[...]
CELL_DATA 256 
SCALARS Pressure double 1 
LOOKUP_TABLE default 

    1.6126091186470455E+00 
    1.5082026214930686E+00 
    1.4413401207204948E+00 
    1.3920249884545566E+00 
    1.3521383184377818E+00 
    1.3180525978351425E+00 
    1.2880061828382980E+00 
    1.2611136667219067E+00 
    1.2369525698799184E+00 
    1.2153695551223413E+00 
    1.1963760627917486E+00 
    1.1800817688560350E+00 
    1.1666421244526688E+00 
    1.1562119094975256E+00 
    1.1488638403369247E+00 
    1.1445664146114105E+00 
    1.5082026214936184E+00 
    1.4652259478963068E+00 
    1.4199822198360603E+00 
    1.3794090800890759E+00 
    1.3435585492067124E+00 
    1.3115368353313843E+00 
    1.2826108898017110E+00 
    1.2563319610035717E+00 
    1.2324863723547554E+00 
    1.2110321874681707E+00 
    1.1920479642696620E+00 
    1.1756900581704479E+00 
    1.1621508454132972E+00 
    1.1516143996131927E+00 
    1.1441764401243646E+00 
    1.1398210297816249E+00 
    1.4413401207212546E+00 
    1.4199822198364227E+00 
    1.3902656606060380E+00 
    1.3588900232820116E+00 
    1.3283524569586744E+00 
    1.2994260068360728E+00 
    1.2723057141316469E+00 
    1.2470476343268451E+00 
    1.2237225053328096E+00 
    1.2024588933444769E+00 
    1.1834477339269813E+00 
    1.1669286302713719E+00 
    1.1531630738685301E+00 
    1.1423921410619198E+00 
    1.1347580165989684E+00 
    1.1302768022827712E+00 
    1.3920249884554565E+00 
    1.3794090800896772E+00 
    1.3588900232822925E+00 
    1.3345595126501058E+00 
    1.3088586204349424E+00 
    1.2830826001970459E+00 
    1.2579208759185236E+00 
    1.2337895923494413E+00 
    1.2110064721910210E+00 
    1.1898727245360945E+00 
    1.1707084173952591E+00 
    1.1538589485799062E+00 
    1.1396792214955838E+00 
    1.1284941759010436E+00 
    1.1205198827288603E+00 
    1.1158226564756530E+00 
    1.3521383184387887E+00 
    1.3435585492074746E+00 
    1.3283524569591603E+00 
    1.3088586204351671E+00 
    1.2869210306271388E+00 
    1.2638057207297684E+00 
    1.2403611805821557E+00 
    1.2171914996350708E+00 
    1.1947818507698369E+00 
    1.1735755938315648E+00 
    1.1540174934358363E+00 
    1.1365695433277685E+00 
    1.1216998661601969E+00 
    1.1098465786473797E+00 
    1.1013305700665541E+00 
    1.0962895469528089E+00 
    1.3180525978362394E+00 
    1.3115368353322649E+00 
    1.2994260068367114E+00 
    1.2830826001974469E+00 
    1.2638057207299558E+00 
    1.2426570970983650E+00 
    1.2204662873135945E+00 
    1.1978994663478539E+00 
    1.1755333374706411E+00 
    1.1539131700546965E+00 
    1.1335935199644238E+00 
    1.1151568116151016E+00 
    1.0992059093260076E+00 
    1.0863260929331211E+00 
    1.0769809923566198E+00 
    1.0714117985006419E+00 
    1.2880061828394695E+00 
    1.2826108898026838E+00 
    1.2723057141324030E+00 
    1.2579208759190654E+00 
    1.2403611805824988E+00 
    1.2204662873137584E+00 
    1.1989727361644857E+00 
    1.1765329736211305E+00 
    1.1537567580495443E+00 
    1.1312529790898329E+00 
    1.1096676488698065E+00 
    1.0897054559625647E+00 
    1.0721284917534821E+00 
    1.0577118210138223E+00 
    1.0471210993220481E+00 
    1.0407562044544547E+00 
    1.2611136667231295E+00 
    1.2563319610046084E+00 
    1.2470476343276864E+00 
    1.2337895923500919E+00 
    1.2171914996355435E+00 
    1.1978994663481626E+00 
    1.1765329736212846E+00 
    1.1536877450142873E+00 
    1.1299627010995648E+00 
    1.1059948603651477E+00 
    1.0824999023707826E+00 
    1.0603042434545973E+00 
    1.0403553042822071E+00 
    1.0236776007582511E+00 
    1.0112331278496582E+00 
    1.0036735844495748E+00 
    1.2369525698809680E+00 
    1.2324863723556585E+00 
    1.2237225053335674E+00 
    1.2110064721916429E+00 
    1.1947818507703338E+00 
    1.1755333374710217E+00 
    1.1537567580498125E+00 
    1.1299627010997138E+00 
    1.1047014973209728E+00 
    1.0786000276722525E+00 
    1.0524125020737467E+00 
    1.0270762289207687E+00 
    1.0037483473006668E+00 
    9.8378441657165461E-01 
    9.6858646873703358E-01 
    9.5921975064057063E-01 
    1.2153695551230888E+00 
    1.2110321874688241E+00 
    1.2024588933450473E+00 
    1.1898727245365961E+00 
    1.1735755938320096E+00 
    1.1539131700550944E+00 
    1.1312529790901877E+00 
    1.1059948603654512E+00 
    1.0786000276724454E+00 
    1.0496348889007008E+00 
    1.0198400133120540E+00 
    9.9022591919296399E-01 
    9.6216649217726646E-01 
    9.3744210076218526E-01 
    9.1811188203039995E-01 
    9.0595496599397052E-01 
    1.1963760627922326E+00 
    1.1920479642700965E+00 
    1.1834477339273850E+00 
    1.1707084173956528E+00 
    1.1540174934362371E+00 
    1.1335935199648475E+00 
    1.1096676488702621E+00 
    1.0824999023712687E+00 
    1.0524125020741770E+00 
    1.0198400133123022E+00 
    9.8541899974805036E-01 
    9.5014001986373120E-01 
    9.1553946552545229E-01 
    8.8388902998543162E-01 
    8.5821805370355997E-01 
    8.4159397987649709E-01 
    1.1800817688563012E+00 
    1.1756900581707010E+00 
    1.1669286302716371E+00 
    1.1538589485802129E+00 
    1.1365695433281431E+00 
    1.1151568116155692E+00 
    1.0897054559631452E+00 
    1.0603042434553027E+00 
    1.0270762289214879E+00 
    9.9022591919352265E-01 
    9.5014001986405339E-01 
    9.0759632324667394E-01 
    8.6409236091885133E-01 
    8.2231560925101310E-01 
    7.8661219632821544E-01 
    7.6241488392424650E-01 
    1.1666421244527647E+00 
    1.1621508454134093E+00 
    1.1531630738686913E+00 
    1.1396792214958331E+00 
    1.1216998661605715E+00 
    1.0992059093265436E+00 
    1.0721284917542162E+00 
    1.0403553042831715E+00 
    1.0037483473017292E+00 
    9.6216649217820083E-01 
    9.1553946552617538E-01 
    8.6409236091927000E-01 
    8.0879485080613678E-01 
    7.5223615228280638E-01 
    7.0009326558769713E-01 
    6.6197814243209607E-01 
    1.1562119094975047E+00 
    1.1516143996132100E+00 
    1.1423921410620159E+00 
    1.1284941759012694E+00 
    1.1098465786477829E+00 
    1.0863260929337524E+00 
    1.0577118210147376E+00 
    1.0236776007595079E+00 
    9.8378441657310478E-01 
    9.3744210076354617E-01 
    8.8388902998661889E-01 
    8.2231560925193325E-01 
    7.5223615228333551E-01 
    6.7459011821749759E-01 
    5.9469155065062762E-01 
    5.2794646574026893E-01 
    1.1488638403368878E+00 
    1.1441764401243761E+00 
    1.1347580165990769E+00 
    1.1205198827291276E+00 
    1.1013305700670408E+00 
    1.0769809923573912E+00 
    1.0471210993231792E+00 
    1.0112331278512314E+00 
    9.6858646873888488E-01 
    9.1811188203218241E-01 
    8.5821805370518167E-01 
    7.8661219632957113E-01 
    7.0009326558863705E-01 
    5.9469155065095058E-01 
    4.6811741738107360E-01 
    3.3301637014701302E-01 
    1.1445664146113859E+00 
    1.1398210297816556E+00 
    1.1302768022829142E+00 
    1.1158226564759803E+00 
    1.0962895469533931E+00 
    1.0714117985015617E+00 
    1.0407562044558043E+00 
    1.0036735844514606E+00 
    9.5921975064280851E-01 
    9.0595496599615077E-01 
    8.4159397987851636E-01 
    7.6241488392597945E-01 
    6.6197814243334019E-01 
    5.2794646574065274E-01 
    3.3301637014656887E-01 
    0.0000000000000000E+00 

SCALARS Saturarion double 1 
LOOKUP_TABLE default 

    1.0000000000000000E+00 
    9.6985613173582996E-01 
    9.4155148593477211E-01 
    9.0991144029570914E-01 
    8.7646977906353540E-01 
    8.4257950569469076E-01 
    8.0872735709363974E-01 
    7.7512221040641782E-01 
    7.4151831577021043E-01 
    7.0764612638167679E-01 
    6.7266007702890462E-01 
    6.3537809264384737E-01 
    5.9317377358203593E-01 
    5.4115576452530378E-01 
    4.6281621858961786E-01 
    2.9155934339183498E-01 
    9.6985613173596086E-01 
    9.4843101552698228E-01 
    9.2236749393829143E-01 
    8.9327645132474531E-01 
    8.6235690006178423E-01 
    8.3078325143825316E-01 
    7.9898926441900886E-01 
    7.6722979199434282E-01 
    7.3527167406991545E-01 
    7.0284084740791419E-01 
    6.6912599690337993E-01 
    6.3297813734433395E-01 
    5.9179696515403635E-01 
    5.4058710361256479E-01 
    4.6291243589109599E-01 
    2.9221828479567691E-01 
    9.4155148593519622E-01 
    9.2236749393848050E-01 
    8.9867858810084145E-01 
    8.7232476962825578E-01 
    8.4427665549350006E-01 
    8.1544808205185615E-01 
    7.8622636059553075E-01 
    7.5686696392144837E-01 
    7.2714458075653299E-01 
    6.9667455787135768E-01 
    6.6471046298026726E-01 
    6.3011257055052239E-01 
    5.9036473523795074E-01 
    5.4021160464063600E-01 
    4.6347147393945509E-01 
    2.9379572567592233E-01 
    9.0991144029640014E-01 
    8.9327645132522948E-01 
    8.7232476962847438E-01 
    8.4887788701403954E-01 
    8.2388370468242433E-01 
    7.9808603674976775E-01 
    7.7179644298596406E-01 
    7.4513697974358772E-01 
    7.1793837971374674E-01 
    6.8976557794649751E-01 
    6.5991373949183074E-01 
    6.2710483488432223E-01 
    5.8910537898463500E-01 
    5.4009681944332888E-01 
    4.6462493561291668E-01 
    2.9650053266103221E-01 
    8.7646977906445445E-01 
    8.6235690006246202E-01 
    8.4427665549392661E-01 
    8.2388370468261829E-01 
    8.0204147269814130E-01 
    7.7935993092053923E-01 
    7.5609807975758481E-01 
    7.3240101911932154E-01 
    7.0799731649561681E-01 
    6.8252379219938075E-01 
    6.5512292906711111E-01 
    6.2462351000943583E-01 
    5.8837836202369687E-01 
    5.4147214783089270E-01 
    4.6756654126275632E-01 
    3.0162375476379266E-01 
    8.4257950569577300E-01 
    8.3078325143911669E-01 
    8.1544808205249186E-01 
    7.9808603675016354E-01 
    7.7935993092072531E-01 
    7.5987111766569748E-01 
    7.3971123305384379E-01 
    7.1905353524901294E-01 
    6.9754571194732440E-01 
    6.7488897568993134E-01 
    6.5015349315162929E-01 
    6.2212529759787749E-01 
    5.8812391323660429E-01 
    5.4322398561989849E-01 
    4.7136599146228225E-01 
    3.0833853243261800E-01 
    8.0872735709494903E-01 
    7.9898926442008134E-01 
    7.8622636059634066E-01 
    7.7179644298652628E-01 
    7.5609807975793497E-01 
    7.3971123305398845E-01 
    7.2266234527864570E-01 
    7.0511487962421315E-01 
    6.8666703599652334E-01 
    6.6694998511467252E-01 
    6.4506895361438155E-01 
    6.1975712884585077E-01 
    5.8839387445796154E-01 
    5.4577184893960662E-01 
    4.7638864769750622E-01 
    3.1703242868990633E-01 
    7.7512221040791307E-01 
    7.6722979199557217E-01 
    7.5686696392240549E-01 
    7.4513697974429349E-01 
    7.3240101911981070E-01 
    7.1905353524932247E-01 
    7.0511487962434938E-01 
    6.9066589323101490E-01 
    6.7535964874082099E-01 
    6.5873982293524336E-01 
    6.3992878401285846E-01 
    6.1755669288131998E-01 
    5.8920390659477584E-01 
    5.4919204612685169E-01 
    4.8285091754971488E-01 
    3.2794790785015804E-01 
    7.4151831577140392E-01 
    7.3527167407091087E-01 
    7.2714458075733357E-01 
    7.1793837971436003E-01 
    7.0799731649604991E-01 
    6.9754571194760018E-01 
    6.8666703599667089E-01 
    6.7535964874086452E-01 
    6.6331695293042303E-01 
    6.5000067867779387E-01 
    6.3454375184012546E-01 
    6.1558238317673875E-01 
    5.9052314693312469E-01 
    5.5415526483183530E-01 
    4.9163176322905122E-01 
    3.4217686816981158E-01 
    7.0764612638261737E-01 
    7.0284084740869857E-01 
    6.9667455787201171E-01 
    6.8976557794697724E-01 
    6.8252379219972692E-01 
    6.7488897569015582E-01 
    6.6694998511480008E-01 
    6.5873982293529187E-01 
    6.5000067867780953E-01 
    6.4015254606363103E-01 
    6.2831538714090363E-01 
    6.1313029874742220E-01 
    5.9200829616706396E-01 
    5.5977299800651603E-01 
    5.0211163695717409E-01 
    3.5929932268300258E-01 
    6.7266007702960140E-01 
    6.6912599690396490E-01 
    6.6471046298074687E-01 
    6.5991373949217347E-01 
    6.5512292906736125E-01 
    6.5015349315179927E-01 
    6.4506895361446381E-01 
    6.3992878401289377E-01 
    6.3454375184011269E-01 
    6.2831538714087987E-01 
    6.2040261959100407E-01 
    6.0947285351987368E-01 
    5.9299326129160990E-01 
    5.6581306407466625E-01 
    5.1434376439703655E-01 
    3.7990635775995840E-01 
    6.3537809264430822E-01 
    6.3297813734472119E-01 
    6.3011257055080638E-01 
    6.2710483488454172E-01 
    6.2462351000958716E-01 
    6.2212529759795321E-01 
    6.1975712884586498E-01 
    6.1755669288129578E-01 
    6.1558238317666081E-01 
    6.1313029874732150E-01 
    6.0947285351981140E-01 
    6.0334274731501658E-01 
    5.9230114235419407E-01 
    5.7137887697851719E-01 
    5.2779957535509836E-01 
    4.0413967783627652E-01 
    5.9317377358222168E-01 
    5.9179696515418068E-01 
    5.9036473523804767E-01 
    5.8910537898467086E-01 
    5.8837836202369431E-01 
    5.8812391323654378E-01 
    5.8839387445784819E-01 
    5.8920390659461608E-01 
    5.9052314693292485E-01 
    5.9200829616686024E-01 
    5.9299326129143715E-01 
    5.9230114235409081E-01 
    5.8771357420061388E-01 
    5.7462776474192367E-01 
    5.4133464088044569E-01 
    4.3279888664649435E-01 
    5.4115576452511638E-01 
    5.4058710361237994E-01 
    5.4021160464044693E-01 
    5.4009681944311350E-01 
    5.4147214783064856E-01 
    5.4322398561962471E-01 
    5.4577184893929565E-01 
    5.4919204612648964E-01 
    5.5415526483146016E-01 
    5.5977299800615277E-01 
    5.6581306407435983E-01 
    5.7137887697829215E-01 
    5.7462776474181509E-01 
    5.7139902001507259E-01 
    5.5140558017862562E-01 
    4.6441874776658532E-01 
    4.6281621858948468E-01 
    4.6291243589094966E-01 
    4.6347147393931099E-01 
    4.6462493561275858E-01 
    4.6756654126256253E-01 
    4.7136599146204344E-01 
    4.7638864769719197E-01 
    4.8285091754931125E-01 
    4.9163176322861785E-01 
    5.0211163695674044E-01 
    5.1434376439663565E-01 
    5.2779957535476552E-01 
    5.4133464088022809E-01 
    5.5140558017852881E-01 
    5.4937065898142878E-01 
    4.9391704369341061E-01 
    2.9155934339180667E-01 
    2.9221828479563994E-01 
    2.9379572567588247E-01 
    2.9650053266097237E-01 
    3.0162375476367453E-01 
    3.0833853243241782E-01 
    3.1703242868959269E-01 
    3.2794790784969591E-01 
    3.4217686816934012E-01 
    3.5929932268254910E-01 
    3.7990635775956344E-01 
    4.0413967783598159E-01 
    4.3279888664635352E-01 
    4.6441874776663600E-01 
    4.9391704369343764E-01 
    4.9317585015402837E-01 
