# vtk DataFile Version 2.0
Pressure Field Data 
ASCII 
DATASET UNSTRUCTURED_GRID 

POINTS 289 double 

    0.0000000000000000E+00     0.0000000000000000E+00     0.0000000000000000E+00 
    1.0000000000000000E+00     0.0000000000000000E+00     0.0000000000000000E+00 
    1.0000000000000000E+00     1.0000000000000000E+00     0.0000000000000000E+00 
    0.0000000000000000E+00     1.0000000000000000E+00     0.0000000000000000E+00 
    6.2499999999872928E-02     0.0000000000000000E+00     0.0000000000000000E+00 
    1.2499999999977310E-01     0.0000000000000000E+00     0.0000000000000000E+00 
    1.8749999999959341E-01     0.0000000000000000E+00     0.0000000000000000E+00 
    2.4999999999941089E-01     0.0000000000000000E+00     0.0000000000000000E+00 
    3.1249999999922851E-01     0.0000000000000000E+00     0.0000000000000000E+00 
    3.7499999999904610E-01     0.0000000000000000E+00     0.0000000000000000E+00 
    4.3749999999886358E-01     0.0000000000000000E+00     0.0000000000000000E+00 
    4.9999999999869210E-01     0.0000000000000000E+00     0.0000000000000000E+00 
    5.6249999999884603E-01     0.0000000000000000E+00     0.0000000000000000E+00 
    6.2499999999901090E-01     0.0000000000000000E+00     0.0000000000000000E+00 
    6.8749999999917577E-01     0.0000000000000000E+00     0.0000000000000000E+00 
    7.4999999999934064E-01     0.0000000000000000E+00     0.0000000000000000E+00 
    8.1249999999950551E-01     0.0000000000000000E+00     0.0000000000000000E+00 
    8.7499999999967026E-01     0.0000000000000000E+00     0.0000000000000000E+00 
    9.3749999999983513E-01     0.0000000000000000E+00     0.0000000000000000E+00 
    1.0000000000000000E+00     6.2499999999872928E-02     0.0000000000000000E+00 
    1.0000000000000000E+00     1.2499999999977310E-01     0.0000000000000000E+00 
    1.0000000000000000E+00     1.8749999999959341E-01     0.0000000000000000E+00 
    1.0000000000000000E+00     2.4999999999941089E-01     0.0000000000000000E+00 
    1.0000000000000000E+00     3.1249999999922851E-01     0.0000000000000000E+00 
    1.0000000000000000E+00     3.7499999999904610E-01     0.0000000000000000E+00 
    1.0000000000000000E+00     4.3749999999886358E-01     0.0000000000000000E+00 
    1.0000000000000000E+00     4.9999999999869210E-01     0.0000000000000000E+00 
    1.0000000000000000E+00     5.6249999999884603E-01     0.0000000000000000E+00 
    1.0000000000000000E+00     6.2499999999901090E-01     0.0000000000000000E+00 
    1.0000000000000000E+00     6.8749999999917577E-01     0.0000000000000000E+00 
    1.0000000000000000E+00     7.4999999999934064E-01     0.0000000000000000E+00 
    1.0000000000000000E+00     8.1249999999950551E-01     0.0000000000000000E+00 
    1.0000000000000000E+00     8.7499999999967026E-01     0.0000000000000000E+00 
    1.0000000000000000E+00     9.3749999999983513E-01     0.0000000000000000E+00 
    9.3749999999973976E-01     1.0000000000000000E+00     0.0000000000000000E+00 
    8.7499999999950118E-01     1.0000000000000000E+00     0.0000000000000000E+00 
    8.1249999999991318E-01     1.0000000000000000E+00     0.0000000000000000E+00 
    7.5000000000034706E-01     1.0000000000000000E+00     0.0000000000000000E+00 
    6.8750000000078049E-01     1.0000000000000000E+00     0.0000000000000000E+00 
    6.2500000000121403E-01     1.0000000000000000E+00     0.0000000000000000E+00 
    5.6250000000164757E-01     1.0000000000000000E+00     0.0000000000000000E+00 
    5.0000000000205946E-01     1.0000000000000000E+00     0.0000000000000000E+00 
    4.3750000000182099E-01     1.0000000000000000E+00     0.0000000000000000E+00 
    3.7500000000156092E-01     1.0000000000000000E+00     0.0000000000000000E+00 
    3.1250000000130068E-01     1.0000000000000000E+00     0.0000000000000000E+00 
    2.5000000000104050E-01     1.0000000000000000E+00     0.0000000000000000E+00 
    1.8750000000078040E-01     1.0000000000000000E+00     0.0000000000000000E+00 
    1.2500000000052031E-01     1.0000000000000000E+00     0.0000000000000000E+00 
    6.2500000000260125E-02     1.0000000000000000E+00     0.0000000000000000E+00 
    0.0000000000000000E+00     9.3749999999973976E-01     0.0000000000000000E+00 
    0.0000000000000000E+00     8.7499999999950118E-01     0.0000000000000000E+00 
    0.0000000000000000E+00     8.1249999999991318E-01     0.0000000000000000E+00 
    0.0000000000000000E+00     7.5000000000034706E-01     0.0000000000000000E+00 
    0.0000000000000000E+00     6.8750000000078049E-01     0.0000000000000000E+00 
    0.0000000000000000E+00     6.2500000000121403E-01     0.0000000000000000E+00 
    0.0000000000000000E+00     5.6250000000164757E-01     0.0000000000000000E+00 
    0.0000000000000000E+00     5.0000000000205946E-01     0.0000000000000000E+00 
    0.0000000000000000E+00     4.3750000000182099E-01     0.0000000000000000E+00 
    0.0000000000000000E+00     3.7500000000156092E-01     0.0000000000000000E+00 
    0.0000000000000000E+00     3.1250000000130068E-01     0.0000000000000000E+00 
    0.0000000000000000E+00     2.5000000000104050E-01     0.0000000000000000E+00 
    0.0000000000000000E+00     1.8750000000078040E-01     0.0000000000000000E+00 
    0.0000000000000000E+00     1.2500000000052031E-01     0.0000000000000000E+00 
    0.0000000000000000E+00     6.2500000000260125E-02     0.0000000000000000E+00 
    6.2499999999897131E-02     6.2500000000235922E-02     0.0000000000000000E+00 
    6.2499999999921327E-02     1.2500000000047351E-01     0.0000000000000000E+00 
    6.2499999999945530E-02     1.8750000000070621E-01     0.0000000000000000E+00 
    6.2499999999969733E-02     2.5000000000093858E-01     0.0000000000000000E+00 
    6.2499999999993928E-02     3.1250000000117117E-01     0.0000000000000000E+00 
    6.2500000000018124E-02     3.7500000000140382E-01     0.0000000000000000E+00 
    6.2500000000042327E-02     4.3750000000163619E-01     0.0000000000000000E+00 
    6.2500000000066530E-02     5.0000000000184897E-01     0.0000000000000000E+00 
    6.2500000000090733E-02     5.6250000000147260E-01     0.0000000000000000E+00 
    6.2500000000114922E-02     6.2500000000107636E-01     0.0000000000000000E+00 
    6.2500000000139125E-02     6.8750000000068034E-01     0.0000000000000000E+00 
    6.2500000000163328E-02     7.5000000000028411E-01     0.0000000000000000E+00 
    6.2500000000187531E-02     8.1249999999988787E-01     0.0000000000000000E+00 
    6.2500000000211720E-02     8.7499999999951172E-01     0.0000000000000000E+00 
    6.2500000000235922E-02     9.3749999999974565E-01     0.0000000000000000E+00 
    1.2499999999981980E-01     6.2500000000211733E-02     0.0000000000000000E+00 
    1.2499999999986650E-01     1.2500000000042691E-01     0.0000000000000000E+00 
    1.2499999999991319E-01     1.8750000000063199E-01     0.0000000000000000E+00 
    1.2499999999995989E-01     2.5000000000083678E-01     0.0000000000000000E+00 
    1.2500000000000661E-01     3.1250000000104172E-01     0.0000000000000000E+00 
    1.2500000000005329E-01     3.7500000000124661E-01     0.0000000000000000E+00 
    1.2500000000010000E-01     4.3750000000145117E-01     0.0000000000000000E+00 
    1.2500000000014669E-01     5.0000000000163858E-01     0.0000000000000000E+00 
    1.2500000000019340E-01     5.6250000000129741E-01     0.0000000000000000E+00 
    1.2500000000024011E-01     6.2500000000093847E-01     0.0000000000000000E+00 
    1.2500000000028680E-01     6.8750000000057998E-01     0.0000000000000000E+00 
    1.2500000000033351E-01     7.5000000000022127E-01     0.0000000000000000E+00 
    1.2500000000038020E-01     8.1249999999986211E-01     0.0000000000000000E+00 
    1.2500000000042691E-01     8.7499999999952238E-01     0.0000000000000000E+00 
    1.2500000000047359E-01     9.3749999999975164E-01     0.0000000000000000E+00 
    1.8749999999966760E-01     6.2500000000187531E-02     0.0000000000000000E+00 
    1.8749999999974179E-01     1.2500000000038020E-01     0.0000000000000000E+00 
    1.8749999999981601E-01     1.8750000000055780E-01     0.0000000000000000E+00 
    1.8749999999989009E-01     2.5000000000073502E-01     0.0000000000000000E+00 
    1.8749999999996431E-01     3.1250000000091221E-01     0.0000000000000000E+00 
    1.8750000000003850E-01     3.7500000000108941E-01     0.0000000000000000E+00 
    1.8750000000011269E-01     4.3750000000126649E-01     0.0000000000000000E+00 
    1.8750000000018691E-01     5.0000000000142808E-01     0.0000000000000000E+00 
    1.8750000000026110E-01     5.6250000000112244E-01     0.0000000000000000E+00 
    1.8750000000033529E-01     6.2500000000080080E-01     0.0000000000000000E+00 
    1.8750000000040951E-01     6.8750000000047962E-01     0.0000000000000000E+00 
    1.8750000000048361E-01     7.5000000000015843E-01     0.0000000000000000E+00 
    1.8750000000055780E-01     8.1249999999983680E-01     0.0000000000000000E+00 
    1.8750000000063199E-01     8.7499999999953304E-01     0.0000000000000000E+00 
    1.8750000000070621E-01     9.3749999999975764E-01     0.0000000000000000E+00 
    2.4999999999951281E-01     6.2500000000163314E-02     0.0000000000000000E+00 
    2.4999999999961461E-01     1.2500000000033351E-01     0.0000000000000000E+00 
    2.4999999999971650E-01     1.8750000000048361E-01     0.0000000000000000E+00 
    2.4999999999981831E-01     2.5000000000063310E-01     0.0000000000000000E+00 
    2.4999999999992020E-01     3.1250000000078260E-01     0.0000000000000000E+00 
    2.5000000000002198E-01     3.7500000000093209E-01     0.0000000000000000E+00 
    2.5000000000012390E-01     4.3750000000108180E-01     0.0000000000000000E+00 
    2.5000000000022571E-01     5.0000000000121769E-01     0.0000000000000000E+00 
    2.5000000000032763E-01     5.6250000000094724E-01     0.0000000000000000E+00 
    2.5000000000042938E-01     6.2500000000066314E-01     0.0000000000000000E+00 
    2.5000000000053119E-01     6.8750000000037925E-01     0.0000000000000000E+00 
[...]
CELL_DATA 256 
SCALARS Pressure double 1 
LOOKUP_TABLE default 

    2.3181263053293408E+00 
    2.2103687782245878E+00 
    2.1386022042302031E+00 
    2.0837113481608496E+00 
    2.0377926210439452E+00 
    1.9973742423862069E+00 
    1.9608343471147942E+00 
    1.9274175140901311E+00 
    1.8968288648247007E+00 
    1.8690391479679058E+00 
    1.8441675143976155E+00 
    1.8223742887683401E+00 
    1.8037010489889247E+00 
    1.7878697813500433E+00 
    1.7750193659910833E+00 
    1.7682168142054635E+00 
    2.2103687782251673E+00 
    2.1647815213963204E+00 
    2.1152273141133899E+00 
    2.0694109389364486E+00 
    2.0277162444008217E+00 
    1.9894636960228738E+00 
    1.9540884191531818E+00 
    1.9212879372390232E+00 
    1.8909876729984312E+00 
    1.8632786826469967E+00 
    1.8383554307928431E+00 
    1.8164333885458477E+00 
    1.7975964350050244E+00 
    1.7815828618930010E+00 
    1.7685646631660750E+00 
    1.7616771122530839E+00 
    2.1386022042310375E+00 
    2.1152273141137945E+00 
    2.0818455540775394E+00 
    2.0456827675674480E+00 
    2.0095940886217338E+00 
    1.9746036507931406E+00 
    1.9411029787942029E+00 
    1.9093162787185396E+00 
    1.8794714936945316E+00 
    1.8518462517325149E+00 
    1.8267637014870992E+00 
    1.8045394400812067E+00 
    1.7853398083882366E+00 
    1.7689449926163845E+00 
    1.7555896471942689E+00 
    1.7485304713731957E+00 
    2.0837113481618714E+00 
    2.0694109389371369E+00 
    2.0456827675677749E+00 
    2.0169597506578074E+00 
    1.9859862125580847E+00 
    1.9543032372694200E+00 
    1.9228063631749543E+00 
    1.8920948315377288E+00 
    1.8626605055896737E+00 
    1.8349731430581153E+00 
    1.8095082307211943E+00 
    1.7867137022397666E+00 
    1.7668715665762329E+00 
    1.7498433797505859E+00 
    1.7359552519207633E+00 
    1.7286215802099325E+00 
    2.0377926210451234E+00 
    2.0277162444017196E+00 
    2.0095940886223125E+00 
    1.9859862125583572E+00 
    1.9589737285068265E+00 
    1.9300413324319261E+00 
    1.9002365555961702E+00 
    1.8703514414190803E+00 
    1.8410577925747684E+00 
    1.8129877206206908E+00 
    1.7867699343264083E+00 
    1.7630057671836272E+00 
    1.7421238607602223E+00 
    1.7241171099338439E+00 
    1.7094204952317245E+00 
    1.7016556245687238E+00 
    1.9973742423875243E+00 
    1.9894636960239374E+00 
    1.9746036507939191E+00 
    1.9543032372699161E+00 
    1.9300413324321619E+00 
    1.9030635859621723E+00 
    1.8743812844202927E+00 
    1.8448445807979397E+00 
    1.8152241602777972E+00 
    1.7862730062716656E+00 
    1.7587622296516241E+00 
    1.7334602196719617E+00 
    1.7109834405395805E+00 
    1.6915082711391376E+00 
    1.6755946445457170E+00 
    1.6671683213819422E+00 
    1.9608343471162357E+00 
    1.9540884191543835E+00 
    1.9411029787951444E+00 
    1.9228063631756371E+00 
    1.9002365555966101E+00 
    1.8743812844205054E+00 
    1.8461349019619353E+00 
    1.8163214430759345E+00 
    1.7857451663848163E+00 
    1.7552379904964237E+00 
    1.7256973261764952E+00 
    1.6980715489919898E+00 
    1.6732170717920822E+00 
    1.6515651831019127E+00 
    1.6338678787359737E+00 
    1.6244854116146523E+00 
    1.9274175140916676E+00 
    1.9212879372403309E+00 
    1.9093162787196090E+00 
    1.8920948315385662E+00 
    1.8703514414196964E+00 
    1.8448445807983471E+00 
    1.8163214430761390E+00 
    1.7855276275320371E+00 
    1.7532469073665000E+00 
    1.7203464746069590E+00 
    1.6878253589018581E+00 
    1.6568218202712126E+00 
    1.6284875795216867E+00 
    1.6036225754660658E+00 
    1.5833253503987503E+00 
    1.5725678418059286E+00 
    1.8968288648260447E+00 
    1.8909876729995920E+00 
    1.8794714936955141E+00 
    1.8626605055904875E+00 
    1.8410577925754243E+00 
    1.8152241602783048E+00 
    1.7857451663851769E+00 
    1.7532469073667036E+00 
    1.7184396526145482E+00 
    1.6821718997567976E+00 
    1.6455002961641685E+00 
    1.6097435933241122E+00 
    1.5763999442294527E+00 
    1.5467923680049351E+00 
    1.5226047088289041E+00 
    1.5097215925836835E+00 
    1.8690391479688828E+00 
    1.8632786826478545E+00 
    1.8518462517332683E+00 
    1.8349731430587819E+00 
    1.8129877206212865E+00 
    1.7862730062722039E+00 
    1.7552379904969084E+00 
    1.7203464746073804E+00 
    1.6821718997570698E+00 
    1.6414655029746377E+00 
    1.5992587991690799E+00 
    1.5569926181862996E+00 
    1.5165322647544850E+00 
    1.4798873719672614E+00 
    1.4496648297755530E+00 
    1.4332145067163671E+00 
    1.8441675143982657E+00 
    1.8383554307934284E+00 
    1.8267637014876450E+00 
    1.8095082307217285E+00 
    1.7867699343269554E+00 
    1.7587622296522056E+00 
    1.7256973261771262E+00 
    1.6878253589025400E+00 
    1.6455002961647787E+00 
    1.5992587991694351E+00 
    1.5499564471138170E+00 
    1.4990012664633936E+00 
    1.4485380638060870E+00 
    1.4013661286090660E+00 
    1.3614609387827199E+00 
    1.3386123722616774E+00 
    1.8223742887687122E+00 
    1.8164333885462010E+00 
    1.8045394400815753E+00 
    1.7867137022401922E+00 
    1.7630057671841468E+00 
    1.7334602196726112E+00 
    1.6980715489928009E+00 
    1.6568218202722083E+00 
    1.6097435933251387E+00 
    1.5569926181871057E+00 
    1.4990012664638652E+00 
    1.4368203035215257E+00 
    1.3725368657879848E+00 
    1.3095962191007013E+00 
    1.2537213555427549E+00 
    1.2187911715909741E+00 
    1.8037010489890688E+00 
    1.7975964350051876E+00 
    1.7853398083884642E+00 
    1.7668715665765806E+00 
    1.7421238607607419E+00 
    1.7109834405403264E+00 
    1.6732170717931107E+00 
    1.6284875795230516E+00 
    1.5763999442309764E+00 
    1.5165322647558421E+00 
    1.4485380638071548E+00 
    1.3725368657886130E+00 
    1.2897596405460214E+00 
    1.2034748376753603E+00 
    1.1209724159404693E+00 
    1.0626954736108765E+00 
    1.7878697813500128E+00 
    1.7815828618930210E+00 
    1.7689449926165117E+00 
    1.7498433797508903E+00 
    1.7241171099343942E+00 
    1.6915082711400093E+00 
    1.6515651831031914E+00 
    1.6036225754678428E+00 
    1.5467923680070164E+00 
    1.4798873719692476E+00 
    1.4013661286108339E+00 
    1.3095962191020996E+00 
    1.2034748376761795E+00 
    1.0837204515535646E+00 
    9.5651133009794720E-01 
    8.5053342746141780E-01 
    1.7750193659910227E+00 
    1.7685646631660807E+00 
    1.7555896471944075E+00 
    1.7359552519211212E+00 
    1.7094204952323877E+00 
    1.6755946445467820E+00 
    1.6338678787375536E+00 
    1.5833253504009761E+00 
    1.5226047088315577E+00 
    1.4496648297781565E+00 
    1.3614609387851453E+00 
    1.2537213555448299E+00 
    1.1209724159419312E+00 
    9.5651133009844824E-01 
    7.5456666219020530E-01 
    5.3746703690487097E-01 
    1.7682168142054226E+00 
    1.7616771122531181E+00 
    1.7485304713733836E+00 
    1.7286215802103746E+00 
    1.7016556245695229E+00 
    1.6671683213832134E+00 
    1.6244854116165359E+00 
    1.5725678418085860E+00 
    1.5097215925868692E+00 
    1.4332145067195374E+00 
    1.3386123722647032E+00 
    1.2187911715936544E+00 
    1.0626954736128402E+00 
    8.5053342746201421E-01 
    5.3746703690412867E-01 
    0.0000000000000000E+00 

SCALARS Saturarion double 1 
LOOKUP_TABLE default 

    1.0000000000000000E+00 
    9.4720246168868494E-01 
    9.0215278138017585E-01 
    8.5557061843852011E-01 
    8.0940811339301699E-01 
    7.6506290611314820E-01 
    7.2252400367785619E-01 
    6.8156838329168745E-01 
    6.4143208162411958E-01 
    6.0139469782426436E-01 
    5.5973555201657033E-01 
    5.1344928602257134E-01 
    4.5408634027942391E-01 
    3.6038910347236280E-01 
    1.7651365856948611E-01 
    1.2229453029117900E-02 
    9.4720246168896005E-01 
    9.1261430771831886E-01 
    8.7319993216705871E-01 
    8.3192589513324144E-01 
    7.9032897183463091E-01 
    7.4974426581423270E-01 
    7.1026403775527525E-01 
    6.7185274652488425E-01 
    6.3383849349724974E-01 
    5.9554201135385498E-01 
    5.5531987096559809E-01 
    5.1021268414793763E-01 
    4.5166722346143040E-01 
    3.5770798911742263E-01 
    1.7173399039530457E-01 
    1.1135428265589744E-02 
    9.0215278138080979E-01 
    8.7319993216734271E-01 
    8.3916136665691499E-01 
    8.0321042037442791E-01 
    7.6654907437505093E-01 
    7.3022728549287652E-01 
    6.9442441586804171E-01 
    6.5921568767506322E-01 
    6.2401934677540738E-01 
    5.8804910033029412E-01 
    5.4979446191895642E-01 
    5.0631782986108487E-01 
    4.4911245489179258E-01 
    3.5504585857097792E-01 
    1.6713432155486921E-01 
    1.0176551973826378E-02 
    8.5557061843942428E-01 
    8.3192589513385284E-01 
    8.0321042037472401E-01 
    7.7235683406335187E-01 
    7.4056619419693048E-01 
    7.0868709419111309E-01 
    6.7689698720943015E-01 
    6.4515468768243434E-01 
    6.1303946986072222E-01 
    5.7974311554162017E-01 
    5.4385964422768363E-01 
    5.0222520657295000E-01 
    4.4681887502211026E-01 
    3.5243819940665289E-01 
    1.6310275252414838E-01 
    9.4363546716139685E-03 
    8.0940811339420948E-01 
    7.9032897183544071E-01 
    7.6654907437562025E-01 
    7.4056619419717007E-01 
    7.1346016013264990E-01 
    6.8590452684661818E-01 
    6.5807493104293080E-01 
    6.3003359365703759E-01 
    6.0126906113515366E-01 
    5.7114085247313429E-01 
    5.3807534056860706E-01 
    4.9915114242844483E-01 
    4.4547536451003539E-01 
    3.5399280925857868E-01 
    1.6798520650728690E-01 
    1.0841760900755863E-02 
    7.6506290611452299E-01 
    7.4974426581520437E-01 
    7.3022728549361382E-01 
    7.0868709419159526E-01 
    6.8590452684681869E-01 
    6.6256865029410261E-01 
    6.3864774512497047E-01 
    6.1429391581589377E-01 
    5.8892021922828308E-01 
    5.6203085309613299E-01 
    5.3199687656978478E-01 
    4.9591964355088730E-01 
    4.4485312889898021E-01 
    3.5593302397471543E-01 
    1.7350263741653901E-01 
    1.2083652786050151E-02 
    7.2252400367943193E-01 
    7.1026403775654501E-01 
    6.9442441586900205E-01 
    6.7689698721010583E-01 
    6.5807493104333548E-01 
    6.3864774512513978E-01 
    6.1852035722476240E-01 
    5.9786285030199438E-01 
    5.7604618984444744E-01 
    5.5250571448777497E-01 
    5.2571098772299329E-01 
    4.9277904574573628E-01 
    4.4505127317007248E-01 
    3.5928358166522217E-01 
    1.8155577147560659E-01 
    1.4363952173443988E-02 
    6.8156838329346570E-01 
    6.7185274652633464E-01 
    6.5921568767622118E-01 
    6.4515468768328588E-01 
    6.3003359365759326E-01 
    6.1429391581622184E-01 
    5.9786285030215469E-01 
    5.8081322674852587E-01 
    5.6262362098002117E-01 
    5.4262309640134521E-01 
    5.1935092257069582E-01 
    4.8984366775458643E-01 
    4.4618537655698143E-01 
    3.6429325038706056E-01 
    1.9370166132168598E-01 
    1.8734142311034784E-02 
    6.4143208162551180E-01 
    6.3383849349846255E-01 
    6.2401934677637216E-01 
    6.1303946986143099E-01 
    6.0126906113565293E-01 
    5.8892021922861260E-01 
    5.7604618984462863E-01 
    5.6262362098009422E-01 
    5.4821591678237203E-01 
    5.3204893873037684E-01 
    5.1273738326935769E-01 
    4.8747361343373524E-01 
    4.4839925713092299E-01 
    3.7361096744637090E-01 
    2.1502609056895486E-01 
    3.0336016664028742E-02 
    6.0139469782537491E-01 
    5.9554201135480833E-01 
    5.8804910033106383E-01 
    5.7974311554219593E-01 
    5.7114085247355795E-01 
    5.6203085309642153E-01 
    5.5250571448795183E-01 
    5.4262309640144146E-01 
    5.3204893873040371E-01 
    5.1995017612733974E-01 
    5.0497938766452011E-01 
    4.8450813492244033E-01 
    4.5124626656964151E-01 
    3.8468358685768567E-01 
    2.4098837661855393E-01 
    4.9761821163519751E-02 
    5.5973555201738534E-01 
    5.5531987096629154E-01 
    5.4979446191950843E-01 
    5.4385964422809951E-01 
    5.3807534056891670E-01 
    5.3199687656999384E-01 
    5.2571098772311731E-01 
    5.1935092257075077E-01 
    5.1273738326934704E-01 
    5.0497938766448880E-01 
    4.9483800662172972E-01 
    4.7991419964984094E-01 
    4.5370249539842517E-01 
    3.9743131791861769E-01 
    2.7114030017855323E-01 
    8.2876441413196569E-02 
    5.1344928602308726E-01 
    5.1021268414836307E-01 
    5.0631782986141827E-01 
    5.0222520657318870E-01 
    4.9915114242859976E-01 
    4.9591964355096985E-01 
    4.9277904574574766E-01 
    4.8984366775454530E-01 
    4.8747361343362960E-01 
    4.8450813492231715E-01 
    4.7991419964975007E-01 
    4.7155102231440660E-01 
    4.5375653366985558E-01 
    4.1016165469789567E-01 
    3.0407840493797728E-01 
    1.3042957080042417E-01 
    4.5408634027957950E-01 
    4.5166722346153876E-01 
    4.4911245489184293E-01 
    4.4681887502210799E-01 
    4.4547536450996589E-01 
    4.4485312889885109E-01 
    4.4505127316988086E-01 
    4.4618537655673146E-01 
    4.4839925713061685E-01 
    4.5124626656932521E-01 
    4.5370249539815882E-01 
    4.5375653366969593E-01 
    4.4666127002595241E-01 
    4.1898243924573281E-01 
    3.3774833188135395E-01 
    1.8595770082079929E-01 
    3.6038910347198561E-01 
    3.5770798911704516E-01 
    3.5504585857059251E-01 
    3.5243819940624649E-01 
    3.5399280925814208E-01 
    3.5593302397422849E-01 
    3.5928358166466218E-01 
    3.6429325038640270E-01 
    3.7361096744567063E-01 
    3.8468358685699761E-01 
    3.9743131791802067E-01 
    4.1016165469746318E-01 
    4.1898243924552436E-01 
    4.1278444531089864E-01 
    3.6330433290333786E-01 
    2.4102967487779534E-01 
    1.7651365856946344E-01 
    1.7173399039524939E-01 
    1.6713432155478608E-01 
    1.6310275252399811E-01 
    1.6798520650701543E-01 
    1.7350263741609334E-01 
    1.8155577147491792E-01 
    1.9370166132069747E-01 
    2.1502609056783945E-01 
    2.4098837661741460E-01 
    2.7114030017750784E-01 
    3.0407840493712318E-01 
    3.3774833188079101E-01 
    3.6330433290307867E-01 
    3.5872442859315229E-01 
    2.8447415875028120E-01 
    1.2229453029138646E-02 
    1.1135428265600331E-02 
    1.0176551973828871E-02 
    9.4363546715999572E-03 
    1.0841760900709315E-02 
    1.2083652785950586E-02 
    1.4363952173249451E-02 
    1.8734142310668660E-02 
    3.0336016663329420E-02 
    4.9761821162432815E-02 
    8.2876441411825735E-02 
    1.3042957079921569E-01 
    1.8595770082007140E-01 
    2.4102967487753912E-01 
    2.8447415875012022E-01 
    2.8270902295755240E-01 
