# vtk DataFile Version 2.0
Pressure Field Data 
ASCII 
DATASET UNSTRUCTURED_GRID 

POINTS 289 double 

    0.0000000000000000E+00     0.0000000000000000E+00     0.0000000000000000E+00 
    1.0000000000000000E+00     0.0000000000000000E+00     0.0000000000000000E+00 
    1.0000000000000000E+00     1.0000000000000000E+00     0.0000000000000000E+00 
    0.0000000000000000E+00     1.0000000000000000E+00     0.0000000000000000E+00 
    6.2499999999872928E-02     0.0000000000000000E+00     0.0000000000000000E+00 
    1.2499999999977310E-01     0.0000000000000000E+00     0.0000000000000000E+00 
    1.8749999999959341E-01     0.0000000000000000E+00     0.0000000000000000E+00 
    2.4999999999941089E-01     0.0000000000000000E+00     0.0000000000000000E+00 
    3.1249999999922851E-01     0.0000000000000000E+00     0.0000000000000000E+00 
    3.7499999999904610E-01     0.0000000000000000E+00     0.0000000000000000E+00 
    4.3749999999886358E-01     0.0000000000000000E+00     0.0000000000000000E+00 
    4.9999999999869210E-01     0.0000000000000000E+00     0.0000000000000000E+00 
    5.6249999999884603E-01     0.0000000000000000E+00     0.0000000000000000E+00 
    6.2499999999901090E-01     0.0000000000000000E+00     0.0000000000000000E+00 
    6.8749999999917577E-01     0.0000000000000000E+00     0.0000000000000000E+00 
    7.4999999999934064E-01     0.0000000000000000E+00     0.0000000000000000E+00 
    8.1249999999950551E-01     0.0000000000000000E+00     0.0000000000000000E+00 
    8.7499999999967026E-01     0.0000000000000000E+00     0.0000000000000000E+00 
    9.3749999999983513E-01     0.0000000000000000E+00     0.0000000000000000E+00 
    1.0000000000000000E+00     6.2499999999872928E-02     0.0000000000000000E+00 
    1.0000000000000000E+00     1.2499999999977310E-01     0.0000000000000000E+00 
    1.0000000000000000E+00     1.8749999999959341E-01     0.0000000000000000E+00 
    1.0000000000000000E+00     2.4999999999941089E-01     0.0000000000000000E+00 
    1.0000000000000000E+00     3.1249999999922851E-01     0.0000000000000000E+00 
    1.0000000000000000E+00     3.7499999999904610E-01     0.0000000000000000E+00 
    1.0000000000000000E+00     4.3749999999886358E-01     0.0000000000000000E+00 
    1.0000000000000000E+00     4.9999999999869210E-01     0.0000000000000000E+00 
    1.0000000000000000E+00     5.6249999999884603E-01     0.0000000000000000E+00 
    1.0000000000000000E+00     6.2499999999901090E-01     0.0000000000000000E+00 
    1.0000000000000000E+00     6.8749999999917577E-01     0.0000000000000000E+00 
    1.0000000000000000E+00     7.4999999999934064E-01     0.0000000000000000E+00 
    1.0000000000000000E+00     8.1249999999950551E-01     0.0000000000000000E+00 
    1.0000000000000000E+00     8.7499999999967026E-01     0.0000000000000000E+00 
    1.0000000000000000E+00     9.3749999999983513E-01     0.0000000000000000E+00 
    9.3749999999973976E-01     1.0000000000000000E+00     0.0000000000000000E+00 
    8.7499999999950118E-01     1.0000000000000000E+00     0.0000000000000000E+00 
    8.1249999999991318E-01     1.0000000000000000E+00     0.0000000000000000E+00 
    7.5000000000034706E-01     1.0000000000000000E+00     0.0000000000000000E+00 
    6.8750000000078049E-01     1.0000000000000000E+00     0.0000000000000000E+00 
    6.2500000000121403E-01     1.0000000000000000E+00     0.0000000000000000E+00 
    5.6250000000164757E-01     1.0000000000000000E+00     0.0000000000000000E+00 
    5.0000000000205946E-01     1.0000000000000000E+00     0.0000000000000000E+00 
    4.3750000000182099E-01     1.0000000000000000E+00     0.0000000000000000E+00 
    3.7500000000156092E-01     1.0000000000000000E+00     0.0000000000000000E+00 
    3.1250000000130068E-01     1.0000000000000000E+00     0.0000000000000000E+00 
    2.5000000000104050E-01     1.0000000000000000E+00     0.0000000000000000E+00 
    1.8750000000078040E-01     1.0000000000000000E+00     0.0000000000000000E+00 
    1.2500000000052031E-01     1.0000000000000000E+00     0.0000000000000000E+00 
    6.2500000000260125E-02     1.0000000000000000E+00     0.0000000000000000E+00 
    0.0000000000000000E+00     9.3749999999973976E-01     0.0000000000000000E+00 
    0.0000000000000000E+00     8.7499999999950118E-01     0.0000000000000000E+00 
    0.0000000000000000E+00     8.1249999999991318E-01     0.0000000000000000E+00 
    0.0000000000000000E+00     7.5000000000034706E-01     0.0000000000000000E+00 
    0.0000000000000000E+00     6.8750000000078049E-01     0.0000000000000000E+00 
    0.0000000000000000E+00     6.2500000000121403E-01     0.0000000000000000E+00 
    0.0000000000000000E+00     5.6250000000164757E-01     0.0000000000000000E+00 
    0.0000000000000000E+00     5.0000000000205946E-01     0.0000000000000000E+00 
    0.0000000000000000E+00     4.3750000000182099E-01     0.0000000000000000E+00 
    0.0000000000000000E+00     3.7500000000156092E-01     0.0000000000000000E+00 
    0.0000000000000000E+00     3.1250000000130068E-01     0.0000000000000000E+00 
    0.0000000000000000E+00     2.5000000000104050E-01     0.0000000000000000E+00 
    0.0000000000000000E+00     1.8750000000078040E-01     0.0000000000000000E+00 
    0.0000000000000000E+00     1.2500000000052031E-01     0.0000000000000000E+00 
    0.0000000000000000E+00     6.2500000000260125E-02     0.0000000000000000E+00 
    6.2499999999897131E-02     6.2500000000235922E-02     0.0000000000000000E+00 
    6.2499999999921327E-02     1.2500000000047351E-01     0.0000000000000000E+00 
    6.2499999999945530E-02     1.8750000000070621E-01     0.0000000000000000E+00 
    6.2499999999969733E-02     2.5000000000093858E-01     0.0000000000000000E+00 
    6.2499999999993928E-02     3.1250000000117117E-01     0.0000000000000000E+00 
    6.2500000000018124E-02     3.7500000000140382E-01     0.0000000000000000E+00 
    6.2500000000042327E-02     4.3750000000163619E-01     0.0000000000000000E+00 
    6.2500000000066530E-02     5.0000000000184897E-01     0.0000000000000000E+00 
    6.2500000000090733E-02     5.6250000000147260E-01     0.0000000000000000E+00 
    6.2500000000114922E-02     6.2500000000107636E-01     0.0000000000000000E+00 
    6.2500000000139125E-02     6.8750000000068034E-01     0.0000000000000000E+00 
    6.2500000000163328E-02     7.5000000000028411E-01     0.0000000000000000E+00 
    6.2500000000187531E-02     8.1249999999988787E-01     0.0000000000000000E+00 
    6.2500000000211720E-02     8.7499999999951172E-01     0.0000000000000000E+00 
    6.2500000000235922E-02     9.3749999999974565E-01     0.0000000000000000E+00 
    1.2499999999981980E-01     6.2500000000211733E-02     0.0000000000000000E+00 
    1.2499999999986650E-01     1.2500000000042691E-01     0.0000000000000000E+00 
    1.2499999999991319E-01     1.8750000000063199E-01     0.0000000000000000E+00 
    1.2499999999995989E-01     2.5000000000083678E-01     0.0000000000000000E+00 
    1.2500000000000661E-01     3.1250000000104172E-01     0.0000000000000000E+00 
    1.2500000000005329E-01     3.7500000000124661E-01     0.0000000000000000E+00 
    1.2500000000010000E-01     4.3750000000145117E-01     0.0000000000000000E+00 
    1.2500000000014669E-01     5.0000000000163858E-01     0.0000000000000000E+00 
    1.2500000000019340E-01     5.6250000000129741E-01     0.0000000000000000E+00 
    1.2500000000024011E-01     6.2500000000093847E-01     0.0000000000000000E+00 
    1.2500000000028680E-01     6.8750000000057998E-01     0.0000000000000000E+00 
    1.2500000000033351E-01     7.5000000000022127E-01     0.0000000000000000E+00 
    1.2500000000038020E-01     8.1249999999986211E-01     0.0000000000000000E+00 
    1.2500000000042691E-01     8.7499999999952238E-01     0.0000000000000000E+00 
    1.2500000000047359E-01     9.3749999999975164E-01     0.0000000000000000E+00 
    1.8749999999966760E-01     6.2500000000187531E-02     0.0000000000000000E+00 
    1.8749999999974179E-01     1.2500000000038020E-01     0.0000000000000000E+00 
    1.8749999999981601E-01     1.8750000000055780E-01     0.0000000000000000E+00 
    1.8749999999989009E-01     2.5000000000073502E-01     0.0000000000000000E+00 
    1.8749999999996431E-01     3.1250000000091221E-01     0.0000000000000000E+00 
    1.8750000000003850E-01     3.7500000000108941E-01     0.0000000000000000E+00 
    1.8750000000011269E-01     4.3750000000126649E-01     0.0000000000000000E+00 
    1.8750000000018691E-01     5.0000000000142808E-01     0.0000000000000000E+00 
    1.8750000000026110E-01     5.6250000000112244E-01     0.0000000000000000E+00 
    1.8750000000033529E-01     6.2500000000080080E-01     0.0000000000000000E+00 
    1.8750000000040951E-01     6.8750000000047962E-01     0.0000000000000000E+00 
    1.8750000000048361E-01     7.5000000000015843E-01     0.0000000000000000E+00 
    1.8750000000055780E-01     8.1249999999983680E-01     0.0000000000000000E+00 
    1.8750000000063199E-01     8.7499999999953304E-01     0.0000000000000000E+00 
    1.8750000000070621E-01     9.3749999999975764E-01     0.0000000000000000E+00 
    2.4999999999951281E-01     6.2500000000163314E-02     0.0000000000000000E+00 
    2.4999999999961461E-01     1.2500000000033351E-01     0.0000000000000000E+00 
    2.4999999999971650E-01     1.8750000000048361E-01     0.0000000000000000E+00 
    2.4999999999981831E-01     2.5000000000063310E-01     0.0000000000000000E+00 
    2.4999999999992020E-01     3.1250000000078260E-01     0.0000000000000000E+00 
    2.5000000000002198E-01     3.7500000000093209E-01     0.0000000000000000E+00 
    2.5000000000012390E-01     4.3750000000108180E-01     0.0000000000000000E+00 
    2.5000000000022571E-01     5.0000000000121769E-01     0.0000000000000000E+00 
    2.5000000000032763E-01     5.6250000000094724E-01     0.0000000000000000E+00 
    2.5000000000042938E-01     6.2500000000066314E-01     0.0000000000000000E+00 
    2.5000000000053119E-01     6.8750000000037925E-01     0.0000000000000000E+00 
[...]
CELL_DATA 256 
SCALARS Pressure double 1 
LOOKUP_TABLE default 

    2.0811921990096098E+00 
    1.9744609117230814E+00 
    1.9042066055038658E+00 
    1.8510317232875246E+00 
    1.8069680951546145E+00 
    1.7685002681165660E+00 
    1.7339688863065967E+00 
    1.7025852966960755E+00 
    1.6740235270430872E+00 
    1.6482268336240102E+00 
    1.6252974089218541E+00 
    1.6054104324734317E+00 
    1.5887111646341370E+00 
    1.5751838961494060E+00 
    1.5646191476449254E+00 
    1.5586472007038474E+00 
    1.9744609117236513E+00 
    1.9296757547728489E+00 
    1.8814490625215261E+00 
    1.8372436075060377E+00 
    1.7973431005578144E+00 
    1.7610063575621373E+00 
    1.7276222922231548E+00 
    1.6968502007574151E+00 
    1.6685809295313927E+00 
    1.6428754492405140E+00 
    1.6199091231561746E+00 
    1.5999107076131456E+00 
    1.5830695107366137E+00 
    1.5694003718401373E+00 
    1.5587083600472362E+00 
    1.5526637471797280E+00 
    1.9042066055046769E+00 
    1.8814490625219185E+00 
    1.8491899545875632E+00 
    1.8144915761543785E+00 
    1.7801005903809530E+00 
    1.7469678490482246E+00 
    1.7154298224388052E+00 
    1.6856657394064472E+00 
    1.6578635150086147E+00 
    1.6322660528307313E+00 
    1.6091731025435203E+00 
    1.5889103316399298E+00 
    1.5717511325851334E+00 
    1.5577735860780475E+00 
    1.5468214443473496E+00 
    1.5406349337510092E+00 
    1.8510317232885083E+00 
    1.8372436075067000E+00 
    1.8144915761546914E+00 
    1.7871038992639685E+00 
    1.7577337125705672E+00 
    1.7278503949730131E+00 
    1.6982914241766194E+00 
    1.6696065015344501E+00 
    1.6422424589751436E+00 
    1.6166287629642777E+00 
    1.5932112744794293E+00 
    1.5724421530078909E+00 
    1.5547108272556833E+00 
    1.5401963655174640E+00 
    1.5288239378159318E+00 
    1.5224202020389608E+00 
    1.8069680951557381E+00 
    1.7973431005586700E+00 
    1.7801005903815030E+00 
    1.7577337125708243E+00 
    1.7322531469320301E+00 
    1.7050803237438370E+00 
    1.6772069374907521E+00 
    1.6493740807856758E+00 
    1.6222048861552552E+00 
    1.5962853291056633E+00 
    1.5722065294418117E+00 
    1.5505648557484120E+00 
    1.5318944363818119E+00 
    1.5165199442919641E+00 
    1.5044945777075081E+00 
    1.4977458724623711E+00 
    1.7685002681178137E+00 
    1.7610063575631441E+00 
    1.7469678490489600E+00 
    1.7278503949734794E+00 
    1.7050803237440564E+00 
    1.6798507962207432E+00 
    1.6531226598763165E+00 
    1.6256964188094991E+00 
    1.5982919050263358E+00 
    1.5716101973130014E+00 
    1.5463750366034152E+00 
    1.5233370567837425E+00 
    1.5032099764542788E+00 
    1.4865149830308908E+00 
    1.4734788034082025E+00 
    1.4661691922353259E+00 
    1.7339688863079534E+00 
    1.7276222922242850E+00 
    1.7154298224396887E+00 
    1.6982914241772578E+00 
    1.6772069374911600E+00 
    1.6531226598765136E+00 
    1.6268899371508057E+00 
    1.5992870768434369E+00 
    1.5710673148523300E+00 
    1.5430056514605779E+00 
    1.5159407231080242E+00 
    1.4907853296873061E+00 
    1.4684732876790298E+00 
    1.4497866187834123E+00 
    1.4352103110842234E+00 
    1.4270332320435786E+00 
    1.7025852966975132E+00 
    1.6968502007586366E+00 
    1.6856657394074430E+00 
    1.6696065015352264E+00 
    1.6493740807862458E+00 
    1.6256964188098748E+00 
    1.5992870768436256E+00 
    1.5708528641049528E+00 
    1.5411296026647110E+00 
    1.5109249248702257E+00 
    1.4811676174608048E+00 
    1.4529363401124307E+00 
    1.4274252175873954E+00 
    1.4057661012984999E+00 
    1.3888424936529078E+00 
    1.3793019708837853E+00 
    1.6740235270443344E+00 
    1.6685809295324687E+00 
    1.6578635150095224E+00 
    1.6422424589758937E+00 
    1.6222048861558604E+00 
    1.5982919050268041E+00 
    1.5710673148526626E+00 
    1.5411296026648984E+00 
    1.5091493344534543E+00 
    1.4759180869180060E+00 
    1.4424145014675855E+00 
    1.4098700244074982E+00 
    1.3797731214600186E+00 
    1.3537191054579127E+00 
    1.3331733633190279E+00 
    1.3213791692868084E+00 
    1.6482268336249069E+00 
    1.6428754492413002E+00 
    1.6322660528314212E+00 
    1.6166287629648892E+00 
    1.5962853291062120E+00 
    1.5716101973134968E+00 
    1.5430056514610235E+00 
    1.5109249248706125E+00 
    1.4759180869182547E+00 
    1.4386924824646410E+00 
    1.4002051389812471E+00 
    1.3617875131924320E+00 
    1.3252298695024518E+00 
    1.2927105161422836E+00 
    1.2665245619863843E+00 
    1.2509381277649010E+00 
    1.6252974089224432E+00 
    1.6199091231567049E+00 
    1.6091731025440155E+00 
    1.5932112744799165E+00 
    1.5722065294423133E+00 
    1.5463750366039495E+00 
    1.5159407231086031E+00 
    1.4811676174614297E+00 
    1.4424145014681431E+00 
    1.4002051389815706E+00 
    1.3553491476779076E+00 
    1.3091479959173582E+00 
    1.2636151365086503E+00 
    1.2215894278736670E+00 
    1.1865709137274616E+00 
    1.1646260345254549E+00 
    1.6054104324737615E+00 
    1.5999107076134598E+00 
    1.5889103316402615E+00 
    1.5724421530082777E+00 
    1.5505648557488882E+00 
    1.5233370567843389E+00 
    1.4907853296880507E+00 
    1.4529363401133424E+00 
    1.4098700244084355E+00 
    1.3617875131931654E+00 
    1.3091479959177845E+00 
    1.2529570099397096E+00 
    1.1951723183944603E+00 
    1.1391809125508792E+00 
    1.0901110885291383E+00 
    1.0572155216407759E+00 
    1.5887111646342591E+00 
    1.5830695107367561E+00 
    1.5717511325853377E+00 
    1.5547108272560008E+00 
    1.5318944363822908E+00 
    1.5032099764549662E+00 
    1.4684732876799758E+00 
    1.4274252175886462E+00 
    1.3797731214614093E+00 
    1.3252298695036842E+00 
    1.2636151365096122E+00 
    1.1951723183950209E+00 
    1.1211386006415673E+00 
    1.0447519777045295E+00 
    9.7275134758610526E-01 
    9.1981001263400852E-01 
    1.5751838961493760E+00 
    1.5694003718401557E+00 
    1.5577735860781667E+00 
    1.5401963655177482E+00 
    1.5165199442924768E+00 
    1.4865149830316990E+00 
    1.4497866187845918E+00 
    1.4057661013001321E+00 
    1.3537191054598157E+00 
    1.2927105161440857E+00 
    1.2215894278752539E+00 
    1.1391809125521184E+00 
    1.0447519777052470E+00 
    9.3930539426014414E-01 
    8.2888351397778071E-01 
    7.3530596819514338E-01 
    1.5646191476448728E+00 
    1.5587083600472453E+00 
    1.5468214443474828E+00 
    1.5288239378162676E+00 
    1.5044945777081256E+00 
    1.4734788034091877E+00 
    1.4352103110856795E+00 
    1.3888424936549535E+00 
    1.3331733633214606E+00 
    1.2665245619887526E+00 
    1.1865709137296376E+00 
    1.0901110885309706E+00 
    9.7275134758738169E-01 
    8.2888351397821902E-01 
    6.5412245998243723E-01 
    4.6510260772333578E-01 
    1.5586472007038126E+00 
    1.5526637471797626E+00 
    1.5406349337511855E+00 
    1.5224202020393718E+00 
    1.4977458724631101E+00 
    1.4661691922364981E+00 
    1.4270332320453127E+00 
    1.3793019708862355E+00 
    1.3213791692897472E+00 
    1.2509381277678051E+00 
    1.1646260345281783E+00 
    1.0572155216431329E+00 
    9.1981001263570861E-01 
    7.3530596819566152E-01 
    4.6510260772270018E-01 
    0.0000000000000000E+00 

SCALARS Saturarion double 1 
LOOKUP_TABLE default 

    1.0000000000000000E+00 
    9.5410242839779547E-01 
    9.1386095588793037E-01 
    8.7136161462816686E-01 
    8.2853278925883356E-01 
    7.8683655343010905E-01 
    7.4645379544118218E-01 
    7.0731329201013726E-01 
    6.6882146634748474E-01 
    6.3042693668388183E-01 
    5.9076348228060882E-01 
    5.4769219691980620E-01 
    4.9564554931332505E-01 
    4.2178163950511016E-01 
    2.8431633766411485E-01 
    5.8407533638824671E-02 
    9.5410242839803483E-01 
    9.2331709971733356E-01 
    8.8760660946848113E-01 
    8.4957795093101141E-01 
    8.1073211647455279E-01 
    7.7240888608156089E-01 
    7.3483232969141365E-01 
    6.9807163624341317E-01 
    6.6159969594337054E-01 
    6.2489281081911086E-01 
    5.8665375977549650E-01 
    5.4480007647705075E-01 
    4.9376803260029350E-01 
    4.2042282784189894E-01 
    2.8256138405536468E-01 
    5.6829742368793484E-02 
    9.1386095588850458E-01 
    8.8760660946876224E-01 
    8.5634340662526698E-01 
    8.2288449880266890E-01 
    7.8840648734946650E-01 
    7.5395292250170709E-01 
    7.1978506775160533E-01 
    6.8604528495691142E-01 
    6.5226990540706054E-01 
    6.1782647767980226E-01 
    5.8153544345521047E-01 
    5.4134732957878551E-01 
    4.9181837497274389E-01 
    4.1925529152257662E-01 
    2.8138001196888401E-01 
    5.5879945544254607E-02 
    8.7136161462902095E-01 
    8.4957795093159605E-01 
    8.2288449880294112E-01 
    7.9391742443327840E-01 
    7.6383316338086926E-01 
    7.3347183024776275E-01 
    7.0306368106396644E-01 
    6.7262533701371086E-01 
    6.4182249734549723E-01 
    6.0999010383628816E-01 
    5.7603910029742789E-01 
    5.3774436197565711E-01 
    4.9012021832813735E-01 
    4.1834777351172847E-01 
    2.8104964804561239E-01 
    5.5824527471497153E-02 
    8.2853278925991958E-01 
    8.1073211647533883E-01 
    7.8840648734998731E-01 
    7.6383316338109830E-01 
    7.3805016507414667E-01 
    7.1172737131329566E-01 
    6.8507386125874681E-01 
    6.5818324451906651E-01 
    6.3062513902660666E-01 
    6.0187115608434805E-01 
    5.7066426173403229E-01 
    5.3497594811570037E-01 
    4.8921770808717513E-01 
    4.2019431818395708E-01 
    2.8520197640667105E-01 
    6.1457843311466288E-02 
    7.8683655343141390E-01 
    7.7240888608253733E-01 
    7.5395292250243251E-01 
    7.3347183024821261E-01 
    7.1172737131349406E-01 
    6.8939293897899878E-01 
    6.6647916706206833E-01 
    6.4314921301627270E-01 
    6.1889592784432290E-01 
    5.9330880677554176E-01 
    5.6507032787846512E-01 
    5.3214998383530132E-01 
    4.8897529833134096E-01 
    4.2249829065222633E-01 
    2.9110642018729288E-01 
    6.8222810515227328E-02 
    7.4645379544270107E-01 
    7.3483232969261425E-01 
    7.1978506775252993E-01 
    7.0306368106460426E-01 
    6.8507386125912950E-01 
    6.6647916706223920E-01 
    6.4722502139300875E-01 
    6.2748172382313450E-01 
    6.0669804960994211E-01 
    5.8439328663884316E-01 
    5.5932900687507325E-01 
    5.2946560280507338E-01 
    4.8945492305928973E-01 
    4.2600163825968879E-01 
    2.9924162475120197E-01 
    7.8193887992641126E-02 
    7.0731329201184068E-01 
    6.9807163624481394E-01 
    6.8604528495801154E-01 
    6.7262533701452432E-01 
    6.5818324451960719E-01 
    6.4314921301658701E-01 
    6.2748172382326417E-01 
    6.1125667984639331E-01 
    5.9401261318286780E-01 
    5.7516743151229799E-01 
    5.5353404871972722E-01 
    5.2699069908131368E-01 
    4.9069725854346474E-01 
    4.3083365510678545E-01 
    3.0993460389845451E-01 
    9.3141404222182853E-02 
    6.6882146634878226E-01 
    6.6159969594451051E-01 
    6.5226990540797858E-01 
    6.4182249734619456E-01 
    6.3062513902708839E-01 
    6.1889592784462677E-01 
    6.0669804961009843E-01 
    5.9401261318293230E-01 
    5.8044640351365506E-01 
    5.6531873394986332E-01 
    5.4748619167620893E-01 
    5.2491393271096687E-01 
    4.9272023302228651E-01 
    4.3843848631508819E-01 
    3.2529359579517247E-01 
    1.1815843027214404E-01 
    6.3042693668493965E-01 
    6.2489281082000825E-01 
    6.1782647768054166E-01 
    6.0999010383685603E-01 
    6.0187115608474584E-01 
    5.9330880677577991E-01 
    5.8439328663899182E-01 
    5.7516743151238214E-01 
    5.6531873394988175E-01 
    5.5411354615549591E-01 
    5.4041670557685584E-01 
    5.2227812353231418E-01 
    4.9510014775182309E-01 
    4.4713761177924183E-01 
    3.4378529724279405E-01 
    1.4966144284369945E-01 
    5.9076348228139342E-01 
    5.8665375977615464E-01 
    5.8153544345574848E-01 
    5.7603910029783745E-01 
    5.7066426173431883E-01 
    5.6507032787864520E-01 
    5.5932900687518472E-01 
    5.5353404871977774E-01 
    5.4748619167619839E-01 
    5.4041670557682608E-01 
    5.3126167606702601E-01 
    5.1818233504346900E-01 
    4.9696268232663676E-01 
    4.5670330526839503E-01 
    3.6553549648736350E-01 
    1.8670299085332159E-01 
    5.4769219692030491E-01 
    5.4480007647746698E-01 
    5.4134732957911980E-01 
    5.3774436197589137E-01 
    5.3497594811584337E-01 
    5.3214998383536594E-01 
    5.2946560280507760E-01 
    5.2699069908126905E-01 
    5.2491393271087150E-01 
    5.2227812353219716E-01 
    5.1818233504338496E-01 
    5.1093181697894841E-01 
    4.9671559097825818E-01 
    4.6581789447930066E-01 
    3.8947351010753689E-01 
    2.2755701737991091E-01 
    4.9564554931348004E-01 
    4.9376803260040097E-01 
    4.9181837497280206E-01 
    4.9012021832813357E-01 
    4.8921770808711240E-01 
    4.8897529833121728E-01 
    4.8945492305910632E-01 
    4.9069725854323343E-01 
    4.9272023302201490E-01 
    4.9510014775155042E-01 
    4.9696268232641100E-01 
    4.9671559097812595E-01 
    4.9105222484418454E-01 
    4.7172004101591170E-01 
    4.1381302063459813E-01 
    2.7265605922859532E-01 
    4.2178163950476505E-01 
    4.2042282784155693E-01 
    4.1925529152222835E-01 
    4.1834777351136182E-01 
    4.2019431818356190E-01 
    4.2249829065178990E-01 
    4.2600163825920118E-01 
    4.3083365510623650E-01 
    4.3843848631452564E-01 
    4.4713761177870837E-01 
    4.5670330526794056E-01 
    4.6581789447897687E-01 
    4.7172004101575754E-01 
    4.6736977852679923E-01 
    4.3238602783219965E-01 
    3.1893010937812388E-01 
    2.8431633766398101E-01 
    2.8256138405521802E-01 
    2.8138001196872753E-01 
    2.8104964804541960E-01 
    2.8520197640641026E-01 
    2.9110642018692445E-01 
    2.9924162475069194E-01 
    3.0993460389776550E-01 
    3.2529359579442496E-01 
    3.4378529724204387E-01 
    3.6553549648668171E-01 
    3.8947351010698794E-01 
    4.1381302063424746E-01 
    4.3238602783205415E-01 
    4.2933405945583702E-01 
    3.5854719718538264E-01 
    5.8407533638825906E-02 
    5.6829742368782431E-02 
    5.5879945544232319E-02 
    5.5824527471433495E-02 
    6.1457843311317560E-02 
    6.8222810514920670E-02 
    7.8193887992094036E-02 
    9.3141404221277563E-02 
    1.1815843027105530E-01 
    1.4966144284259503E-01 
    1.8670299085238182E-01 
    2.2755701737922263E-01 
    2.7265605922822411E-01 
    3.1893010937808042E-01 
    3.5854719718534650E-01 
    3.5751622711883502E-01 
