# vtk DataFile Version 2.0
Pressure Field Data 
ASCII 
DATASET UNSTRUCTURED_GRID 

POINTS 289 double 

    0.0000000000000000E+00     0.0000000000000000E+00     0.0000000000000000E+00 
    1.0000000000000000E+00     0.0000000000000000E+00     0.0000000000000000E+00 
    1.0000000000000000E+00     1.0000000000000000E+00     0.0000000000000000E+00 
    0.0000000000000000E+00     1.0000000000000000E+00     0.0000000000000000E+00 
    6.2499999999872928E-02     0.0000000000000000E+00     0.0000000000000000E+00 
    1.2499999999977310E-01     0.0000000000000000E+00     0.0000000000000000E+00 
    1.8749999999959341E-01     0.0000000000000000E+00     0.0000000000000000E+00 
    2.4999999999941089E-01     0.0000000000000000E+00     0.0000000000000000E+00 
    3.1249999999922851E-01     0.0000000000000000E+00     0.0000000000000000E+00 
    3.7499999999904610E-01     0.0000000000000000E+00     0.0000000000000000E+00 
    4.3749999999886358E-01     0.0000000000000000E+00     0.0000000000000000E+00 
    4.9999999999869210E-01     0.0000000000000000E+00     0.0000000000000000E+00 
    5.6249999999884603E-01     0.0000000000000000E+00     0.0000000000000000E+00 
    6.2499999999901090E-01     0.0000000000000000E+00     0.0000000000000000E+00 
    6.8749999999917577E-01     0.0000000000000000E+00     0.0000000000000000E+00 
    7.4999999999934064E-01     0.0000000000000000E+00     0.0000000000000000E+00 
    8.1249999999950551E-01     0.0000000000000000E+00     0.0000000000000000E+00 
    8.7499999999967026E-01     0.0000000000000000E+00     0.0000000000000000E+00 
    9.3749999999983513E-01     0.0000000000000000E+00     0.0000000000000000E+00 
    1.0000000000000000E+00     6.2499999999872928E-02     0.0000000000000000E+00 
    1.0000000000000000E+00     1.2499999999977310E-01     0.0000000000000000E+00 
    1.0000000000000000E+00     1.8749999999959341E-01     0.0000000000000000E+00 
    1.0000000000000000E+00     2.4999999999941089E-01     0.0000000000000000E+00 
    1.0000000000000000E+00     3.1249999999922851E-01     0.0000000000000000E+00 
    1.0000000000000000E+00     3.7499999999904610E-01     0.0000000000000000E+00 
    1.0000000000000000E+00     4.3749999999886358E-01     0.0000000000000000E+00 
    1.0000000000000000E+00     4.9999999999869210E-01     0.0000000000000000E+00 
    1.0000000000000000E+00     5.6249999999884603E-01     0.0000000000000000E+00 
    1.0000000000000000E+00     6.2499999999901090E-01     0.0000000000000000E+00 
    1.0000000000000000E+00     6.8749999999917577E-01     0.0000000000000000E+00 
    1.0000000000000000E+00     7.4999999999934064E-01     0.0000000000000000E+00 
    1.0000000000000000E+00     8.1249999999950551E-01     0.0000000000000000E+00 
    1.0000000000000000E+00     8.7499999999967026E-01     0.0000000000000000E+00 
    1.0000000000000000E+00     9.3749999999983513E-01     0.0000000000000000E+00 
    9.3749999999973976E-01     1.0000000000000000E+00     0.0000000000000000E+00 
    8.7499999999950118E-01     1.0000000000000000E+00     0.0000000000000000E+00 
    8.1249999999991318E-01     1.0000000000000000E+00     0.0000000000000000E+00 
    7.5000000000034706E-01     1.0000000000000000E+00     0.0000000000000000E+00 
    6.8750000000078049E-01     1.0000000000000000E+00     0.0000000000000000E+00 
    6.2500000000121403E-01     1.0000000000000000E+00     0.0000000000000000E+00 
    5.6250000000164757E-01     1.0000000000000000E+00     0.0000000000000000E+00 
    5.0000000000205946E-01     1.0000000000000000E+00     0.0000000000000000E+00 
    4.3750000000182099E-01     1.0000000000000000E+00     0.0000000000000000E+00 
    3.7500000000156092E-01     1.0000000000000000E+00     0.0000000000000000E+00 
    3.1250000000130068E-01     1.0000000000000000E+00     0.0000000000000000E+00 
    2.5000000000104050E-01     1.0000000000000000E+00     0.0000000000000000E+00 
    1.8750000000078040E-01     1.0000000000000000E+00     0.0000000000000000E+00 
    1.2500000000052031E-01     1.0000000000000000E+00     0.0000000000000000E+00 
    6.2500000000260125E-02     1.0000000000000000E+00     0.0000000000000000E+00 
    0.0000000000000000E+00     9.3749999999973976E-01     0.0000000000000000E+00 
    0.0000000000000000E+00     8.7499999999950118E-01     0.0000000000000000E+00 
    0.0000000000000000E+00     8.1249999999991318E-01     0.0000000000000000E+00 
    0.0000000000000000E+00     7.5000000000034706E-01     0.0000000000000000E+00 
    0.0000000000000000E+00     6.8750000000078049E-01     0.0000000000000000E+00 
    0.0000000000000000E+00     6.2500000000121403E-01     0.0000000000000000E+00 
    0.0000000000000000E+00     5.6250000000164757E-01     0.0000000000000000E+00 
    0.0000000000000000E+00     5.0000000000205946E-01     0.0000000000000000E+00 
    0.0000000000000000E+00     4.3750000000182099E-01     0.0000000000000000E+00 
    0.0000000000000000E+00     3.7500000000156092E-01     0.0000000000000000E+00 
    0.0000000000000000E+00     3.1250000000130068E-01     0.0000000000000000E+00 
    0.0000000000000000E+00     2.5000000000104050E-01     0.0000000000000000E+00 
    0.0000000000000000E+00     1.8750000000078040E-01     0.0000000000000000E+00 
    0.0000000000000000E+00     1.2500000000052031E-01     0.0000000000000000E+00 
    0.0000000000000000E+00     6.2500000000260125E-02     0.0000000000000000E+00 
    6.2499999999897131E-02     6.2500000000235922E-02     0.0000000000000000E+00 
    6.2499999999921327E-02     1.2500000000047351E-01     0.0000000000000000E+00 
    6.2499999999945530E-02     1.8750000000070621E-01     0.0000000000000000E+00 
    6.2499999999969733E-02     2.5000000000093858E-01     0.0000000000000000E+00 
    6.2499999999993928E-02     3.1250000000117117E-01     0.0000000000000000E+00 
    6.2500000000018124E-02     3.7500000000140382E-01     0.0000000000000000E+00 
    6.2500000000042327E-02     4.3750000000163619E-01     0.0000000000000000E+00 
    6.2500000000066530E-02     5.0000000000184897E-01     0.0000000000000000E+00 
    6.2500000000090733E-02     5.6250000000147260E-01     0.0000000000000000E+00 
    6.2500000000114922E-02     6.2500000000107636E-01     0.0000000000000000E+00 
    6.2500000000139125E-02     6.8750000000068034E-01     0.0000000000000000E+00 
    6.2500000000163328E-02     7.5000000000028411E-01     0.0000000000000000E+00 
    6.2500000000187531E-02     8.1249999999988787E-01     0.0000000000000000E+00 
    6.2500000000211720E-02     8.7499999999951172E-01     0.0000000000000000E+00 
    6.2500000000235922E-02     9.3749999999974565E-01     0.0000000000000000E+00 
    1.2499999999981980E-01     6.2500000000211733E-02     0.0000000000000000E+00 
    1.2499999999986650E-01     1.2500000000042691E-01     0.0000000000000000E+00 
    1.2499999999991319E-01     1.8750000000063199E-01     0.0000000000000000E+00 
    1.2499999999995989E-01     2.5000000000083678E-01     0.0000000000000000E+00 
    1.2500000000000661E-01     3.1250000000104172E-01     0.0000000000000000E+00 
    1.2500000000005329E-01     3.7500000000124661E-01     0.0000000000000000E+00 
    1.2500000000010000E-01     4.3750000000145117E-01     0.0000000000000000E+00 
    1.2500000000014669E-01     5.0000000000163858E-01     0.0000000000000000E+00 
    1.2500000000019340E-01     5.6250000000129741E-01     0.0000000000000000E+00 
    1.2500000000024011E-01     6.2500000000093847E-01     0.0000000000000000E+00 
    1.2500000000028680E-01     6.8750000000057998E-01     0.0000000000000000E+00 
    1.2500000000033351E-01     7.5000000000022127E-01     0.0000000000000000E+00 
    1.2500000000038020E-01     8.1249999999986211E-01     0.0000000000000000E+00 
    1.2500000000042691E-01     8.7499999999952238E-01     0.0000000000000000E+00 
    1.2500000000047359E-01     9.3749999999975164E-01     0.0000000000000000E+00 
    1.8749999999966760E-01     6.2500000000187531E-02     0.0000000000000000E+00 
    1.8749999999974179E-01     1.2500000000038020E-01     0.0000000000000000E+00 
    1.8749999999981601E-01     1.8750000000055780E-01     0.0000000000000000E+00 
    1.8749999999989009E-01     2.5000000000073502E-01     0.0000000000000000E+00 
    1.8749999999996431E-01     3.1250000000091221E-01     0.0000000000000000E+00 
    1.8750000000003850E-01     3.7500000000108941E-01     0.0000000000000000E+00 
    1.8750000000011269E-01     4.3750000000126649E-01     0.0000000000000000E+00 
    1.8750000000018691E-01     5.0000000000142808E-01     0.0000000000000000E+00 
    1.8750000000026110E-01     5.6250000000112244E-01     0.0000000000000000E+00 
    1.8750000000033529E-01     6.2500000000080080E-01     0.0000000000000000E+00 
    1.8750000000040951E-01     6.8750000000047962E-01     0.0000000000000000E+00 
    1.8750000000048361E-01     7.5000000000015843E-01     0.0000000000000000E+00 
    1.8750000000055780E-01     8.1249999999983680E-01     0.0000000000000000E+00 
    1.8750000000063199E-01     8.7499999999953304E-01     0.0000000000000000E+00 
    1.8750000000070621E-01     9.3749999999975764E-01     0.0000000000000000E+00 
    2.4999999999951281E-01     6.2500000000163314E-02     0.0000000000000000E+00 
    2.4999999999961461E-01     1.2500000000033351E-01     0.0000000000000000E+00 
    2.4999999999971650E-01     1.8750000000048361E-01     0.0000000000000000E+00 
    2.4999999999981831E-01     2.5000000000063310E-01     0.0000000000000000E+00 
    2.4999999999992020E-01     3.1250000000078260E-01     0.0000000000000000E+00 
    2.5000000000002198E-01     3.7500000000093209E-01     0.0000000000000000E+00 
    2.5000000000012390E-01     4.3750000000108180E-01     0.0000000000000000E+00 
    2.5000000000022571E-01     5.0000000000121769E-01     0.0000000000000000E+00 
    2.5000000000032763E-01     5.6250000000094724E-01     0.0000000000000000E+00 
    2.5000000000042938E-01     6.2500000000066314E-01     0.0000000000000000E+00 
    2.5000000000053119E-01     6.8750000000037925E-01     0.0000000000000000E+00 
[...]
CELL_DATA 256 
SCALARS Pressure double 1 
LOOKUP_TABLE default 

    2.0456432936613220E+00 
    1.9390760835678260E+00 
    1.8690625736552215E+00 
    1.8161610384841875E+00 
    1.7723928387879473E+00 
    1.7342351708370454E+00 
    1.7000221967560412E+00 
    1.6689593400681493E+00 
    1.6407148999693066E+00 
    1.6152267187205096E+00 
    1.5925926710027198E+00 
    1.5729871126189714E+00 
    1.5565643519922496E+00 
    1.5433374091867658E+00 
    1.5331119730323053E+00 
    1.5272854890831455E+00 
    1.9390760835683944E+00 
    1.8944189082643641E+00 
    1.8464036881047070E+00 
    1.8024550415008571E+00 
    1.7628405089855295E+00 
    1.7268086809689387E+00 
    1.6937405905006044E+00 
    1.6632888003334299E+00 
    1.6353378499237325E+00 
    1.6099428433026381E+00 
    1.5872744092202502E+00 
    1.5675600560737741E+00 
    1.5509978893710168E+00 
    1.5376322677780321E+00 
    1.5272846646159739E+00 
    1.5213876363695429E+00 
    1.8690625736560282E+00 
    1.8464036881050974E+00 
    1.8143238763036305E+00 
    1.7798594474506697E+00 
    1.7457395909232083E+00 
    1.7129030986590135E+00 
    1.6816771499206626E+00 
    1.6522331431059112E+00 
    1.6247517708493735E+00 
    1.5994692490131244E+00 
    1.5766797601165818E+00 
    1.5567068813125646E+00 
    1.5398321763254958E+00 
    1.5261642535125919E+00 
    1.5155650961558234E+00 
    1.5095292400431930E+00 
    1.8161610384851661E+00 
    1.8024550415015153E+00 
    1.7798594474509806E+00 
    1.7526857890009742E+00 
    1.7235724554740490E+00 
    1.6939770207104041E+00 
    1.6647271840544431E+00 
    1.6363640569056284E+00 
    1.6093263808205913E+00 
    1.5840359254078633E+00 
    1.5609317818548660E+00 
    1.5404626683085929E+00 
    1.5230251283568472E+00 
    1.5088292444716624E+00 
    1.4978198235057645E+00 
    1.4915691848070534E+00 
    1.7723928387890642E+00 
    1.7628405089863792E+00 
    1.7457395909237552E+00 
    1.7235724554743046E+00 
    1.6983383255985887E+00 
    1.6714481720191365E+00 
    1.6438842536861102E+00 
    1.6163788111928949E+00 
    1.5895462264516349E+00 
    1.5639637036964749E+00 
    1.5402140692647195E+00 
    1.5188882935852912E+00 
    1.5005259161102789E+00 
    1.4854820441663998E+00 
    1.4738307899486576E+00 
    1.4672367206133317E+00 
    1.7342351708382833E+00 
    1.7268086809699372E+00 
    1.7129030986597433E+00 
    1.6939770207108675E+00 
    1.6714481720193550E+00 
    1.6465009816447969E+00 
    1.6200877189278662E+00 
    1.5930002156755174E+00 
    1.5659491371660441E+00 
    1.5396257379460521E+00 
    1.5147436443006908E+00 
    1.4920454591587162E+00 
    1.4722472754000711E+00 
    1.4558986513535797E+00 
    1.4432489087662261E+00 
    1.4360928898692225E+00 
    1.7000221967573865E+00 
    1.6937405905017253E+00 
    1.6816771499215399E+00 
    1.6647271840550775E+00 
    1.6438842536865168E+00 
    1.6200877189280625E+00 
    1.5941815510275168E+00 
    1.5669360035363566E+00 
    1.5390950769432954E+00 
    1.5114230482144402E+00 
    1.4847464056463866E+00 
    1.4599664822881213E+00 
    1.4380144790502289E+00 
    1.4196961088268278E+00 
    1.4055178677523548E+00 
    1.3974842699975640E+00 
    1.6689593400695741E+00 
    1.6632888003346409E+00 
    1.6522331431068997E+00 
    1.6363640569064000E+00 
    1.6163788111934609E+00 
    1.5930002156758902E+00 
    1.5669360035365443E+00 
    1.5388860616554931E+00 
    1.5095774632424359E+00 
    1.4798066493532045E+00 
    1.4504883266414039E+00 
    1.4226855362240518E+00 
    1.3975827951085971E+00 
    1.3763268209420318E+00 
    1.3598140715661433E+00 
    1.3503939991016731E+00 
    1.6407148999705432E+00 
    1.6353378499248004E+00 
    1.6247517708502754E+00 
    1.6093263808213381E+00 
    1.5895462264522364E+00 
    1.5659491371665082E+00 
    1.5390950769436251E+00 
    1.5095774632426207E+00 
    1.4780594759942023E+00 
    1.4453219326654878E+00 
    1.4123281957132590E+00 
    1.3802899039882879E+00 
    1.3506775164179148E+00 
    1.3250883968584521E+00 
    1.3049863578428196E+00 
    1.2932950487200847E+00 
    1.6152267187213998E+00 
    1.6099428433034209E+00 
    1.5994692490138120E+00 
    1.5840359254084733E+00 
    1.5639637036970206E+00 
    1.5396257379465434E+00 
    1.5114230482148816E+00 
    1.4798066493535862E+00 
    1.4453219326657332E+00 
    1.4086675665428250E+00 
    1.3707858783060374E+00 
    1.3329856799480770E+00 
    1.2970307509726957E+00 
    1.2650868401499535E+00 
    1.2394332817821347E+00 
    1.2239793013996787E+00 
    1.5925926710033065E+00 
    1.5872744092207802E+00 
    1.5766797601170768E+00 
    1.5609317818553525E+00 
    1.5402140692652191E+00 
    1.5147436443012219E+00 
    1.4847464056469615E+00 
    1.4504883266420217E+00 
    1.4123281957138094E+00 
    1.3707858783063562E+00 
    1.3266602521171207E+00 
    1.2812307598479047E+00 
    1.2364783402290211E+00 
    1.1952150465307154E+00 
    1.1609119891520514E+00 
    1.1392190574326841E+00 
    1.5729871126193022E+00 
    1.5675600560740910E+00 
    1.5567068813128986E+00 
    1.5404626683089808E+00 
    1.5188882935857662E+00 
    1.4920454591593089E+00 
    1.4599664822888603E+00 
    1.4226855362249538E+00 
    1.3802899039892134E+00 
    1.3329856799487998E+00 
    1.2812307598483248E+00 
    1.2260159064582088E+00 
    1.1692672057803488E+00 
    1.1143345106348965E+00 
    1.0663040264740609E+00 
    1.0339234191489333E+00 
    1.5565643519923757E+00 
    1.5509978893711640E+00 
    1.5398321763257039E+00 
    1.5230251283571670E+00 
    1.5005259161107574E+00 
    1.4722472754007543E+00 
    1.4380144790511664E+00 
    1.3975827951098334E+00 
    1.3506775164192872E+00 
    1.2970307509739101E+00 
    1.2364783402299671E+00 
    1.1692672057808997E+00 
    1.0966180169168329E+00 
    1.0217354429049630E+00 
    9.5130895127717685E-01 
    8.9938604487854867E-01 
    1.5433374091867447E+00 
    1.5376322677780587E+00 
    1.5261642535127171E+00 
    1.5088292444719502E+00 
    1.4854820441669125E+00 
    1.4558986513543821E+00 
    1.4196961088279958E+00 
    1.3763268209436448E+00 
    1.3250883968603280E+00 
    1.2650868401517277E+00 
    1.1952150465322755E+00 
    1.1143345106361138E+00 
    1.0217354429056664E+00 
    9.1843079166160990E-01 
    8.1045236917140084E-01 
    7.1887379650384586E-01 
    1.5331119730322618E+00 
    1.5272846646159906E+00 
    1.5155650961559619E+00 
    1.4978198235061024E+00 
    1.4738307899492733E+00 
    1.4432489087672036E+00 
    1.4055178677537961E+00 
    1.3598140715681641E+00 
    1.3049863578452177E+00 
    1.2394332817844658E+00 
    1.1609119891541895E+00 
    1.0663040264758599E+00 
    9.5130895127842874E-01 
    8.1045236917183117E-01 
    6.3955788068579622E-01 
    4.5470786406690183E-01 
    1.5272854890831185E+00 
    1.5213876363695837E+00 
    1.5095292400433737E+00 
    1.4915691848074655E+00 
    1.4672367206140675E+00 
    1.4360928898703855E+00 
    1.3974842699992811E+00 
    1.3503939991040941E+00 
    1.2932950487229842E+00 
    1.2239793014025377E+00 
    1.1392190574353580E+00 
    1.0339234191512445E+00 
    8.9938604488021467E-01 
    7.1887379650435546E-01 
    4.5470786406628211E-01 
    0.0000000000000000E+00 

SCALARS Saturarion double 1 
LOOKUP_TABLE default 

    1.0000000000000000E+00 
    9.5520914785251709E-01 
    9.1576071485291699E-01 
    8.7394969472995088E-01 
    8.3169261598652666E-01 
    7.9045643345181449E-01 
    7.5045024095520185E-01 
    7.1162584882445590E-01 
    6.7341576450654239E-01 
    6.3529217859111775E-01 
    5.9593537120049689E-01 
    5.5330958039328948E-01 
    5.0218131266665589E-01 
    4.3064518461556306E-01 
    2.9954126228302985E-01 
    6.9917720119406557E-02 
    9.5520914785274080E-01 
    9.2504947689097383E-01 
    8.8995946500175183E-01 
    8.5248386495881889E-01 
    8.1411297184596854E-01 
    7.7618363847703642E-01 
    7.3893934408650008E-01 
    7.0246495062597203E-01 
    6.6625535339069575E-01 
    6.2980811773662437E-01 
    5.9187057049288927E-01 
    5.5046298794688564E-01 
    5.0036333201384942E-01 
    4.2940593906941821E-01 
    2.9810932580126576E-01 
    6.8406556537493293E-02 
    9.1576071485348554E-01 
    8.8995946500203171E-01 
    8.5916802697147932E-01 
    8.2613814952180298E-01 
    7.9203919312543536E-01 
    7.5791132588663979E-01 
    7.2402777088635950E-01 
    6.9054073592372767E-01 
    6.5700433076667941E-01 
    6.2280698550541236E-01 
    5.8681054889252782E-01 
    5.4706775230981952E-01 
    4.9847864444322237E-01 
    4.2836569774760314E-01 
    2.9725615340750999E-01 
    6.7624199354606659E-02 
    8.7394969473078665E-01 
    8.5248386495939310E-01 
    8.2613814952206310E-01 
    7.9749804092695264E-01 
    7.6771060329785490E-01 
    7.3761303783445309E-01 
    7.0744326278302316E-01 
    6.7722644134539656E-01 
    6.4664088741470160E-01 
    6.1504079476831974E-01 
    5.8137562160405276E-01 
    5.4352700093197981E-01 
    4.9684151101059726E-01 
    4.2759429472701577E-01 
    2.9723622307848424E-01 
    6.7864210129488373E-02 
    8.3169261598760957E-01 
    8.1411297184676357E-01 
    7.9203919312595306E-01 
    7.6771060329809127E-01 
    7.4215689499894788E-01 
    7.1604632132470125E-01 
    6.8959270916610449E-01 
    6.6289407284333624E-01 
    6.3553183481081055E-01 
    6.0699207634139130E-01 
    5.7605644662170752E-01 
    5.4079589589807453E-01 
    4.9597752107471682E-01 
    4.2943095308429780E-01 
    3.0124728874232148E-01 
    7.4102881941636167E-02 
    7.9045643345310213E-01 
    7.7618363847801275E-01 
    7.5791132588736354E-01 
    7.3761303783489285E-01 
    7.1604632132489598E-01 
    6.9388133785108663E-01 
    6.7113500483988353E-01 
    6.4797175674405794E-01 
    6.2389589696267056E-01 
    5.9850724844442871E-01 
    5.7052580823016275E-01 
    5.3801608745580920E-01 
    4.9576084786595664E-01 
    4.3172282250048738E-01 
    3.0690880209042787E-01 
    8.1766588671705179E-02 
    7.5045024095671176E-01 
    7.3893934408769690E-01 
    7.2402777088727721E-01 
    7.0744326278366099E-01 
    6.8959270916648385E-01 
    6.7113500484004907E-01 
    6.5202160724584068E-01 
    6.3242251321415666E-01 
    6.1179758067258250E-01 
    5.8967617718202170E-01 
    5.6485399515769441E-01 
    5.3538156449038066E-01 
    4.9625147814314152E-01 
    4.3517867735610988E-01 
    3.1472724682928416E-01 
    9.2808109220192087E-02 
    7.1162584882614444E-01 
    7.0246495062734937E-01 
    6.9054073592481924E-01 
    6.7722644134620325E-01 
    6.6289407284387758E-01 
    6.4797175674437468E-01 
    6.3242251321427778E-01 
    6.1632248710240889E-01 
    5.9921864259902680E-01 
    5.8053978095116288E-01 
    5.5913006207349225E-01 
    5.3295540100943084E-01 
    4.9748444207594655E-01 
    4.3992072236361407E-01 
    3.2501598814503507E-01 
    1.0884311776569076E-01 
    6.7341576450782215E-01 
    6.6625535339182107E-01 
    6.5700433076759790E-01 
    6.4664088741538617E-01 
    6.3553183481129139E-01 
    6.2389589696297099E-01 
    6.1179758067273393E-01 
    5.9921864259908986E-01 
    5.8577197511151136E-01 
    5.7078871451727331E-01 
    5.5315308144516462E-01 
    5.3090902265570483E-01 
    4.9946723889360128E-01 
    4.4728843660101913E-01 
    3.3970316938024347E-01 
    1.3412149316963443E-01 
    6.3529217859217335E-01 
    6.2980811773750844E-01 
    6.2280698550613955E-01 
    6.1504079476887985E-01 
    6.0699207634178565E-01 
    5.9850724844467851E-01 
    5.8967617718216359E-01 
    5.8053978095124315E-01 
    5.7078871451729007E-01 
    5.5970182555559989E-01 
    5.4616863929390913E-01 
    5.2830775165195587E-01 
    5.0177995401160735E-01 
    4.5569066762468491E-01 
    3.5736472362414445E-01 
    1.6512490798699447E-01 
    5.9593537120128137E-01 
    5.9187057049354452E-01 
    5.8681054889306072E-01 
    5.8137562160446443E-01 
    5.7605644662199484E-01 
    5.7052580823033716E-01 
    5.6485399515779888E-01 
    5.5913006207354043E-01 
    5.5315308144514941E-01 
    5.4616863929388193E-01 
    5.3713345814245395E-01 
    5.2426598456293061E-01 
    5.0356632697040993E-01 
    4.6488843934589918E-01 
    3.7810970518029469E-01 
    2.0104608159379905E-01 
    5.5330958039378608E-01 
    5.5046298794730153E-01 
    5.4706775231014804E-01 
    5.4352700093221562E-01 
    5.4079589589821719E-01 
    5.3801608745587504E-01 
    5.3538156449038132E-01 
    5.3295540100938443E-01 
    5.3090902265560824E-01 
    5.2830775165184496E-01 
    5.2426598456285001E-01 
    5.1713545313230669E-01 
    5.0327873675353185E-01 
    4.7360736750032773E-01 
    4.0092277324784653E-01 
    2.4058523226494102E-01 
    5.0218131266681099E-01 
    5.0036333201395666E-01 
    4.9847864444328471E-01 
    4.9684151101059831E-01 
    4.9597752107465076E-01 
    4.9576084786583341E-01 
    4.9625147814296350E-01 
    4.9748444207571479E-01 
    4.9946723889333433E-01 
    5.0177995401134101E-01 
    5.0356632697019110E-01 
    5.0327873675340218E-01 
    4.9774607030323770E-01 
    4.7919842702371379E-01 
    4.2408339795620137E-01 
    2.8437287999927080E-01 
    4.3064518461522883E-01 
    4.2940593906908653E-01 
    4.2836569774726579E-01 
    4.2759429472665522E-01 
    4.2943095308391110E-01 
    4.3172282250006422E-01 
    4.3517867735563354E-01 
    4.3992072236307683E-01 
    4.4728843660047157E-01 
    4.5569066762416738E-01 
    4.6488843934546187E-01 
    4.7360736750001575E-01 
    4.7919842702356580E-01 
    4.7500112097852604E-01 
    4.4173313553857296E-01 
    3.2955449986973667E-01 
    2.9954126228288869E-01 
    2.9810932580111432E-01 
    2.9725615340734896E-01 
    2.9723622307829067E-01 
    3.0124728874206458E-01 
    3.0690880209007360E-01 
    3.1472724682879566E-01 
    3.2501598814437721E-01 
    3.3970316937953349E-01 
    3.5736472362343108E-01 
    3.7810970517964709E-01 
    4.0092277324732478E-01 
    4.2408339795586802E-01 
    4.4173313553843552E-01 
    4.3880825388646366E-01 
    3.6860173616715219E-01 
    6.9917720119404378E-02 
    6.8406556537478000E-02 
    6.7624199354580430E-02 
    6.7864210129418581E-02 
    7.4102881941477253E-02 
    8.1766588671376858E-02 
    9.2808109219614951E-02 
    1.0884311776475851E-01 
    1.3412149316857447E-01 
    1.6512490798595794E-01 
    2.0104608159292503E-01 
    2.4058523226430206E-01 
    2.8437287999892991E-01 
    3.2955449986970931E-01 
    3.6860173616712610E-01 
    3.6761591026196017E-01 
