# vtk DataFile Version 2.0
Pressure Field Data 
ASCII 
DATASET UNSTRUCTURED_GRID 

POINTS 289 double 

    0.0000000000000000E+00     0.0000000000000000E+00     0.0000000000000000E+00 
    1.0000000000000000E+00     0.0000000000000000E+00     0.0000000000000000E+00 
    1.0000000000000000E+00     1.0000000000000000E+00     0.0000000000000000E+00 
    0.0000000000000000E+00     1.0000000000000000E+00     0.0000000000000000E+00 
    6.2499999999872928E-02     0.0000000000000000E+00     0.0000000000000000E+00 
    1.2499999999977310E-01     0.0000000000000000E+00     0.0000000000000000E+00 
    1.8749999999959341E-01     0.0000000000000000E+00     0.0000000000000000E+00 
    2.4999999999941089E-01     0.0000000000000000E+00     0.0000000000000000E+00 
    3.1249999999922851E-01     0.0000000000000000E+00     0.0000000000000000E+00 
    3.7499999999904610E-01     0.0000000000000000E+00     0.0000000000000000E+00 
    4.3749999999886358E-01     0.0000000000000000E+00     0.0000000000000000E+00 
    4.9999999999869210E-01     0.0000000000000000E+00     0.0000000000000000E+00 
    5.6249999999884603E-01     0.0000000000000000E+00     0.0000000000000000E+00 
    6.2499999999901090E-01     0.0000000000000000E+00     0.0000000000000000E+00 
    6.8749999999917577E-01     0.0000000000000000E+00     0.0000000000000000E+00 
    7.4999999999934064E-01     0.0000000000000000E+00     0.0000000000000000E+00 
    8.1249999999950551E-01     0.0000000000000000E+00     0.0000000000000000E+00 
    8.7499999999967026E-01     0.0000000000000000E+00     0.0000000000000000E+00 
    9.3749999999983513E-01     0.0000000000000000E+00     0.0000000000000000E+00 
    1.0000000000000000E+00     6.2499999999872928E-02     0.0000000000000000E+00 
    1.0000000000000000E+00     1.2499999999977310E-01     0.0000000000000000E+00 
    1.0000000000000000E+00     1.8749999999959341E-01     0.0000000000000000E+00 
    1.0000000000000000E+00     2.4999999999941089E-01     0.0000000000000000E+00 
    1.0000000000000000E+00     3.1249999999922851E-01     0.0000000000000000E+00 
    1.0000000000000000E+00     3.7499999999904610E-01     0.0000000000000000E+00 
    1.0000000000000000E+00     4.3749999999886358E-01     0.0000000000000000E+00 
    1.0000000000000000E+00     4.9999999999869210E-01     0.0000000000000000E+00 
    1.0000000000000000E+00     5.6249999999884603E-01     0.0000000000000000E+00 
    1.0000000000000000E+00     6.2499999999901090E-01     0.0000000000000000E+00 
    1.0000000000000000E+00     6.8749999999917577E-01     0.0000000000000000E+00 
    1.0000000000000000E+00     7.4999999999934064E-01     0.0000000000000000E+00 
    1.0000000000000000E+00     8.1249999999950551E-01     0.0000000000000000E+00 
    1.0000000000000000E+00     8.7499999999967026E-01     0.0000000000000000E+00 
    1.0000000000000000E+00     9.3749999999983513E-01     0.0000000000000000E+00 
    9.3749999999973976E-01     1.0000000000000000E+00     0.0000000000000000E+00 
    8.7499999999950118E-01     1.0000000000000000E+00     0.0000000000000000E+00 
    8.1249999999991318E-01     1.0000000000000000E+00     0.0000000000000000E+00 
    7.5000000000034706E-01     1.0000000000000000E+00     0.0000000000000000E+00 
    6.8750000000078049E-01     1.0000000000000000E+00     0.0000000000000000E+00 
    6.2500000000121403E-01     1.0000000000000000E+00     0.0000000000000000E+00 
    5.6250000000164757E-01     1.0000000000000000E+00     0.0000000000000000E+00 
    5.0000000000205946E-01     1.0000000000000000E+00     0.0000000000000000E+00 
    4.3750000000182099E-01     1.0000000000000000E+00     0.0000000000000000E+00 
    3.7500000000156092E-01     1.0000000000000000E+00     0.0000000000000000E+00 
    3.1250000000130068E-01     1.0000000000000000E+00     0.0000000000000000E+00 
    2.5000000000104050E-01     1.0000000000000000E+00     0.0000000000000000E+00 
    1.8750000000078040E-01     1.0000000000000000E+00     0.0000000000000000E+00 
    1.2500000000052031E-01     1.0000000000000000E+00     0.0000000000000000E+00 
    6.2500000000260125E-02     1.0000000000000000E+00     0.0000000000000000E+00 
    0.0000000000000000E+00     9.3749999999973976E-01     0.0000000000000000E+00 
    0.0000000000000000E+00     8.7499999999950118E-01     0.0000000000000000E+00 
    0.0000000000000000E+00     8.1249999999991318E-01     0.0000000000000000E+00 
    0.0000000000000000E+00     7.5000000000034706E-01     0.0000000000000000E+00 
    0.0000000000000000E+00     6.8750000000078049E-01     0.0000000000000000E+00 
    0.0000000000000000E+00     6.2500000000121403E-01     0.0000000000000000E+00 
    0.0000000000000000E+00     5.6250000000164757E-01     0.0000000000000000E+00 
    0.0000000000000000E+00     5.0000000000205946E-01     0.0000000000000000E+00 
    0.0000000000000000E+00     4.3750000000182099E-01     0.0000000000000000E+00 
    0.0000000000000000E+00     3.7500000000156092E-01     0.0000000000000000E+00 
    0.0000000000000000E+00     3.1250000000130068E-01     0.0000000000000000E+00 
    0.0000000000000000E+00     2.5000000000104050E-01     0.0000000000000000E+00 
    0.0000000000000000E+00     1.8750000000078040E-01     0.0000000000000000E+00 
    0.0000000000000000E+00     1.2500000000052031E-01     0.0000000000000000E+00 
    0.0000000000000000E+00     6.2500000000260125E-02     0.0000000000000000E+00 
    6.2499999999897131E-02     6.2500000000235922E-02     0.0000000000000000E+00 
    6.2499999999921327E-02     1.2500000000047351E-01     0.0000000000000000E+00 
    6.2499999999945530E-02     1.8750000000070621E-01     0.0000000000000000E+00 
    6.2499999999969733E-02     2.5000000000093858E-01     0.0000000000000000E+00 
    6.2499999999993928E-02     3.1250000000117117E-01     0.0000000000000000E+00 
    6.2500000000018124E-02     3.7500000000140382E-01     0.0000000000000000E+00 
    6.2500000000042327E-02     4.3750000000163619E-01     0.0000000000000000E+00 
    6.2500000000066530E-02     5.0000000000184897E-01     0.0000000000000000E+00 
    6.2500000000090733E-02     5.6250000000147260E-01     0.0000000000000000E+00 
    6.2500000000114922E-02     6.2500000000107636E-01     0.0000000000000000E+00 
    6.2500000000139125E-02     6.8750000000068034E-01     0.0000000000000000E+00 
    6.2500000000163328E-02     7.5000000000028411E-01     0.0000000000000000E+00 
    6.2500000000187531E-02     8.1249999999988787E-01     0.0000000000000000E+00 
    6.2500000000211720E-02     8.7499999999951172E-01     0.0000000000000000E+00 
    6.2500000000235922E-02     9.3749999999974565E-01     0.0000000000000000E+00 
    1.2499999999981980E-01     6.2500000000211733E-02     0.0000000000000000E+00 
    1.2499999999986650E-01     1.2500000000042691E-01     0.0000000000000000E+00 
    1.2499999999991319E-01     1.8750000000063199E-01     0.0000000000000000E+00 
    1.2499999999995989E-01     2.5000000000083678E-01     0.0000000000000000E+00 
    1.2500000000000661E-01     3.1250000000104172E-01     0.0000000000000000E+00 
    1.2500000000005329E-01     3.7500000000124661E-01     0.0000000000000000E+00 
    1.2500000000010000E-01     4.3750000000145117E-01     0.0000000000000000E+00 
    1.2500000000014669E-01     5.0000000000163858E-01     0.0000000000000000E+00 
    1.2500000000019340E-01     5.6250000000129741E-01     0.0000000000000000E+00 
    1.2500000000024011E-01     6.2500000000093847E-01     0.0000000000000000E+00 
    1.2500000000028680E-01     6.8750000000057998E-01     0.0000000000000000E+00 
    1.2500000000033351E-01     7.5000000000022127E-01     0.0000000000000000E+00 
    1.2500000000038020E-01     8.1249999999986211E-01     0.0000000000000000E+00 
    1.2500000000042691E-01     8.7499999999952238E-01     0.0000000000000000E+00 
    1.2500000000047359E-01     9.3749999999975164E-01     0.0000000000000000E+00 
    1.8749999999966760E-01     6.2500000000187531E-02     0.0000000000000000E+00 
    1.8749999999974179E-01     1.2500000000038020E-01     0.0000000000000000E+00 
    1.8749999999981601E-01     1.8750000000055780E-01     0.0000000000000000E+00 
    1.8749999999989009E-01     2.5000000000073502E-01     0.0000000000000000E+00 
    1.8749999999996431E-01     3.1250000000091221E-01     0.0000000000000000E+00 
    1.8750000000003850E-01     3.7500000000108941E-01     0.0000000000000000E+00 
    1.8750000000011269E-01     4.3750000000126649E-01     0.0000000000000000E+00 
    1.8750000000018691E-01     5.0000000000142808E-01     0.0000000000000000E+00 
    1.8750000000026110E-01     5.6250000000112244E-01     0.0000000000000000E+00 
    1.8750000000033529E-01     6.2500000000080080E-01     0.0000000000000000E+00 
    1.8750000000040951E-01     6.8750000000047962E-01     0.0000000000000000E+00 
    1.8750000000048361E-01     7.5000000000015843E-01     0.0000000000000000E+00 
    1.8750000000055780E-01     8.1249999999983680E-01     0.0000000000000000E+00 
    1.8750000000063199E-01     8.7499999999953304E-01     0.0000000000000000E+00 
    1.8750000000070621E-01     9.3749999999975764E-01     0.0000000000000000E+00 
    2.4999999999951281E-01     6.2500000000163314E-02     0.0000000000000000E+00 
    2.4999999999961461E-01     1.2500000000033351E-01     0.0000000000000000E+00 
    2.4999999999971650E-01     1.8750000000048361E-01     0.0000000000000000E+00 
    2.4999999999981831E-01     2.5000000000063310E-01     0.0000000000000000E+00 
    2.4999999999992020E-01     3.1250000000078260E-01     0.0000000000000000E+00 
    2.5000000000002198E-01     3.7500000000093209E-01     0.0000000000000000E+00 
    2.5000000000012390E-01     4.3750000000108180E-01     0.0000000000000000E+00 
    2.5000000000022571E-01     5.0000000000121769E-01     0.0000000000000000E+00 
    2.5000000000032763E-01     5.6250000000094724E-01     0.0000000000000000E+00 
    2.5000000000042938E-01     6.2500000000066314E-01     0.0000000000000000E+00 
    2.5000000000053119E-01     6.8750000000037925E-01     0.0000000000000000E+00 
[...]
CELL_DATA 256 
SCALARS Pressure double 1 
LOOKUP_TABLE default 

    1.6268292089080558E+00 
    1.5223481791138167E+00 
    1.4553774820165513E+00 
    1.4059387419365585E+00 
    1.3659179189795416E+00 
    1.3316913130194390E+00 
    1.3015008551380325E+00 
    1.2744645983951877E+00 
    1.2501635728981457E+00 
    1.2284480623605374E+00 
    1.2093331736742585E+00 
    1.1929320116532609E+00 
    1.1794025192892441E+00 
    1.1688997431539185E+00 
    1.1614922152451364E+00 
    1.1571554350546813E+00 
    1.5223481791143667E+00 
    1.4793136504124953E+00 
    1.4339745886804116E+00 
    1.3932848983729662E+00 
    1.3573040648731078E+00 
    1.3251434007095446E+00 
    1.2960740540873696E+00 
    1.2696510827772076E+00 
    1.2456645607338721E+00 
    1.2240763548180342E+00 
    1.2049688612554053E+00 
    1.1885020665702781E+00 
    1.1748710843199761E+00 
    1.1642604725152796E+00 
    1.1567618973586729E+00 
    1.1523664455037022E+00 
    1.4553774820173124E+00 
    1.4339745886807749E+00 
    1.4041762859861042E+00 
    1.3726935540932497E+00 
    1.3420315623897372E+00 
    1.3129692408728049E+00 
    1.2857064286009394E+00 
    1.2603034499640813E+00 
    1.2368351692392068E+00 
    1.2154342838216241E+00 
    1.1962959060365761E+00 
    1.1796636660196784E+00 
    1.1658022749775530E+00 
    1.1549537330278890E+00 
    1.1472564662543148E+00 
    1.1427336917656290E+00 
    1.4059387419374598E+00 
    1.3932848983735682E+00 
    1.3726935540935319E+00 
    1.3482639385915922E+00 
    1.3224439921292486E+00 
    1.2965347335070505E+00 
    1.2712305820341769E+00 
    1.2469522584290944E+00 
    1.2240219579211764E+00 
    1.2027454131219621E+00 
    1.1834473385708537E+00 
    1.1664777360607621E+00 
    1.1521954092510664E+00 
    1.1409269223299969E+00 
    1.1328851723720881E+00 
    1.1281437946384385E+00 
    1.3659179189805515E+00 
    1.3573040648738719E+00 
    1.3420315623902250E+00 
    1.3224439921294742E+00 
    1.3003908096186207E+00 
    1.2771432276684986E+00 
    1.2535545735970868E+00 
    1.2302336037352668E+00 
    1.2076702082818545E+00 
    1.1863126627180487E+00 
    1.1666109308311401E+00 
    1.1490323469265693E+00 
    1.1340498237493104E+00 
    1.1221041486070731E+00 
    1.1135139295710605E+00 
    1.1084245269943829E+00 
    1.3316913130205403E+00 
    1.3251434007104292E+00 
    1.3129692408734475E+00 
    1.2965347335074551E+00 
    1.2771432276686883E+00 
    1.2558608886098974E+00 
    1.2335217399234875E+00 
    1.2107965283027273E+00 
    1.1882668026092047E+00 
    1.1664830907556705E+00 
    1.1460057384759066E+00 
    1.1274233792446280E+00 
    1.1113448566833499E+00 
    1.0983595735353797E+00 
    1.0889300706689435E+00 
    1.0833058043392607E+00 
    1.3015008551392104E+00 
    1.2960740540883480E+00 
    1.2857064286017006E+00 
    1.2712305820347238E+00 
    1.2535545735974347E+00 
    1.2335217399236531E+00 
    1.2118725852157346E+00 
    1.1892638663444348E+00 
    1.1663101747376092E+00 
    1.1436259093774610E+00 
    1.1218634576050766E+00 
    1.1017347116289955E+00 
    1.0840092733361775E+00 
    1.0694682506958793E+00 
    1.0587779844436900E+00 
    1.0523478314515051E+00 
    1.2744645983964185E+00 
    1.2696510827782512E+00 
    1.2603034499649293E+00 
    1.2469522584297512E+00 
    1.2302336037357449E+00 
    1.2107965283030397E+00 
    1.1892638663445909E+00 
    1.1662352220709231E+00 
    1.1423141486323451E+00 
    1.1181432647682865E+00 
    1.0944451206816821E+00 
    1.0720544186603418E+00 
    1.0519279345451837E+00 
    1.0350987908531910E+00 
    1.0225324464230707E+00 
    1.0148922260087760E+00 
    1.2501635728992042E+00 
    1.2456645607347838E+00 
    1.2368351692399731E+00 
    1.2240219579218055E+00 
    1.2076702082823565E+00 
    1.1882668026095899E+00 
    1.1663101747378810E+00 
    1.1423141486324964E+00 
    1.1168332248614379E+00 
    1.0904997031869790E+00 
    1.0640749196498873E+00 
    1.0385054932523980E+00 
    1.0149600266140519E+00 
    9.9480613123530781E-01 
    9.7945349958500605E-01 
    9.6998251121542700E-01 
    1.2284480623612928E+00 
    1.2240763548186959E+00 
    1.2154342838222023E+00 
    1.2027454131224706E+00 
    1.1863126627184994E+00 
    1.1664830907560744E+00 
    1.1436259093778209E+00 
    1.1181432647685945E+00 
    1.0904997031871742E+00 
    1.0612664075832994E+00 
    1.0311908275661485E+00 
    1.0012934368177657E+00 
    9.7296176538386170E-01 
    9.4799263183910099E-01 
    9.2845905835972331E-01 
    9.1616121132655848E-01 
    1.2093331736747506E+00 
    1.2049688612558476E+00 
    1.1962959060369867E+00 
    1.1834473385712545E+00 
    1.1666109308315480E+00 
    1.1460057384763374E+00 
    1.1218634576055393E+00 
    1.0944451206821750E+00 
    1.0640749196503232E+00 
    1.0311908275663992E+00 
    9.9643510622461806E-01 
    9.6080792959243144E-01 
    9.2586090101114538E-01 
    8.9388712014207339E-01 
    8.6793904020163382E-01 
    8.5111566073258627E-01 
    1.1929320116535340E+00 
    1.1885020665705381E+00 
    1.1796636660199504E+00 
    1.1664777360610767E+00 
    1.1490323469269526E+00 
    1.1274233792451043E+00 
    1.1017347116295848E+00 
    1.0720544186610568E+00 
    1.0385054932531266E+00 
    1.0012934368183311E+00 
    9.6080792959275785E-01 
    9.1783399380833330E-01 
    8.7388374290814907E-01 
    8.3167002330613138E-01 
    7.9557445705924701E-01 
    7.7108032913543290E-01 
    1.1794025192893456E+00 
    1.1748710843200940E+00 
    1.1658022749777197E+00 
    1.1521954092513227E+00 
    1.1340498237496925E+00 
    1.1113448566838950E+00 
    1.0840092733369220E+00 
    1.0519279345461601E+00 
    1.0149600266151275E+00 
    9.7296176538480694E-01 
    9.2586090101187724E-01 
    8.7388374290857262E-01 
    8.1800871747042925E-01 
    7.6084880452601078E-01 
    7.0812825389380185E-01 
    6.6954203434713355E-01 
    1.1688997431539025E+00 
    1.1642604725153018E+00 
    1.1549537330279902E+00 
    1.1409269223302283E+00 
    1.1221041486074836E+00 
    1.0983595735360205E+00 
    1.0694682506968065E+00 
    1.0350987908544629E+00 
    9.9480613123677508E-01 
    9.4799263184047722E-01 
    8.9388712014327465E-01 
    8.3167002330706230E-01 
    7.6084880452654580E-01 
    6.8236873270835252E-01 
    6.0158404509579821E-01 
    5.3402335426136338E-01 
    1.1614922152451044E+00 
    1.1567618973586895E+00 
    1.1472564662544296E+00 
    1.1328851723723623E+00 
    1.1135139295715548E+00 
    1.0889300706697249E+00 
    1.0587779844448342E+00 
    1.0225324464246626E+00 
    9.7945349958687844E-01 
    9.2845905836152542E-01 
    8.6793904020327417E-01 
    7.9557445706061836E-01 
    7.0812825389475242E-01 
    6.0158404509612440E-01 
    4.7360824569370263E-01 
    3.3690279304184073E-01 
    1.1571554350546622E+00 
    1.1523664455037386E+00 
    1.1427336917657784E+00 
    1.1281437946387729E+00 
    1.1084245269949753E+00 
    1.0833058043401924E+00 
    1.0523478314528698E+00 
    1.0148922260106821E+00 
    9.6998251121768930E-01 
    9.1616121132876283E-01 
    8.5111566073462863E-01 
    7.7108032913718560E-01 
    6.6954203434839221E-01 
    5.3402335426175185E-01 
    3.3690279304139126E-01 
    0.0000000000000000E+00 

SCALARS Saturarion double 1 
LOOKUP_TABLE default 

    1.0000000000000000E+00 
    9.6934887014443050E-01 
    9.4063618564267781E-01 
    9.0860600541762937E-01 
    8.7481260903360814E-01 
    8.4061935036340696E-01 
    8.0650720097568163E-01 
    7.7267813878063862E-01 
    7.3887604671026419E-01 
    7.0482360671976996E-01 
    6.6966128578771444E-01 
    6.3218727023080834E-01 
    5.8972095214421960E-01 
    5.3723331988328693E-01 
    4.5772672387446295E-01 
    2.8302615064761744E-01 
    9.6934887014455851E-01 
    9.4760606110433943E-01 
    9.2120139218331865E-01 
    8.9178109199642197E-01 
    8.6055933140696850E-01 
    8.2872071670236014E-01 
    7.9669516534381035E-01 
    7.6473319788227223E-01 
    7.3259279095195406E-01 
    6.9999304031385812E-01 
    6.6610991400370323E-01 
    6.2977571051606918E-01 
    5.8833666633881454E-01 
    5.3665808638980750E-01 
    4.5781364356430276E-01 
    2.8365556226307759E-01 
    9.4063618564312379E-01 
    9.2120139218352148E-01 
    8.9723545215330158E-01 
    8.7061299816483784E-01 
    8.4231522467363318E-01 
    8.1326345577849912E-01 
    7.8384290932514245E-01 
    7.5430658134319428E-01 
    7.2442185286221483E-01 
    6.9379705187652030E-01 
    6.6167492099894787E-01 
    6.2689799059980389E-01 
    5.8689876525273543E-01 
    5.3627885072069603E-01 
    4.5836976078725050E-01 
    2.8523244160375183E-01 
    9.0860600541831704E-01 
    8.9178109199691646E-01 
    8.7061299816506743E-01 
    8.4695280989794719E-01 
    8.2175813746908555E-01 
    7.9577818834200897E-01 
    7.6932314490054676E-01 
    7.4251231871687362E-01 
    7.1517143095074609E-01 
    6.8685875130892127E-01 
    6.5686039521634754E-01 
    6.2387976877819917E-01 
    5.8563752536314473E-01 
    5.3616316005467646E-01 
    4.5952926556504037E-01 
    2.8797600824669362E-01 
    8.7481260903456193E-01 
    8.6055933140765095E-01 
    8.4231522467406605E-01 
    8.2175813746930426E-01 
    7.9975940573109305E-01 
    7.7693251525597373E-01 
    7.5353562695948073E-01 
    7.2971260344597089E-01 
    7.0518693187203307E-01 
    6.7959081683308720E-01 
    6.5205678528198385E-01 
    6.2139767040403282E-01 
    5.8491635035281364E-01 
    5.3756341247622785E-01 
    4.6251451891644918E-01 
    2.9324471498389459E-01 
    8.4061935036449720E-01 
    8.2872071670323544E-01 
    8.1326345577913284E-01 
    7.9577818834241054E-01 
    7.7693251525615947E-01 
    7.5733127209167861E-01 
    7.3706381582248981E-01 
    7.1630335364550002E-01 
    6.9469252002613080E-01 
    6.7192951373446030E-01 
    6.4707476279146736E-01 
    6.1889902689932330E-01 
    5.8467372626507774E-01 
    5.3934344263424783E-01 
    4.6637184519808456E-01 
    3.0016786303661830E-01 
    8.0650720097699080E-01 
    7.9669516534488494E-01 
    7.8384290932595346E-01 
    7.6932314490110476E-01 
    7.5353562695982501E-01 
    7.3706381582264058E-01 
    7.1993165425944694E-01 
    7.0230291543042844E-01 
    6.8377087812255533E-01 
    6.6396354473904284E-01 
    6.4197770503730955E-01 
    6.1653190387286227E-01 
    5.8496117176799611E-01 
    5.4192917545957187E-01 
    4.7147373221926026E-01 
    3.0913281176815277E-01 
    7.7267813878213953E-01 
    7.6473319788351402E-01 
    7.5430658134415518E-01 
    7.4251231871758383E-01 
    7.2971260344646216E-01 
    7.1630335364581144E-01 
    7.0230291543056989E-01 
    6.8779188060099916E-01 
    6.7241947974794458E-01 
    6.5572567486245092E-01 
    6.3682531521069241E-01 
    6.1433397922546973E-01 
    5.8579391082460364E-01 
    5.4539700475406738E-01 
    4.7803942108477521E-01 
    3.2037347712234360E-01 
    7.3887604671146689E-01 
    7.3259279095295471E-01 
    7.2442185286301652E-01 
    7.1517143095136448E-01 
    7.0518693187247150E-01 
    6.9469252002641257E-01 
    6.8377087812270598E-01 
    6.7241947974798977E-01 
    6.6032868784054832E-01 
    6.4695587634013363E-01 
    6.3142712609182283E-01 
    6.1236554969616674E-01 
    5.8714079402585662E-01 
    5.5042961125895795E-01 
    4.8696638469584452E-01 
    3.3499940961841818E-01 
    7.0482360672071420E-01 
    6.9999304031464515E-01 
    6.9379705187718210E-01 
    6.8685875130940066E-01 
    6.7959081683343159E-01 
    6.7192951373471799E-01 
    6.6396354473915253E-01 
    6.5572567486249822E-01 
    6.4695587634014595E-01 
    6.3706934863650821E-01 
    6.2517947841397459E-01 
    6.0991543236525048E-01 
    5.8865545017595133E-01 
    5.5612207403738645E-01 
    4.9761692549502490E-01 
    3.5255209459250858E-01 
    6.6966128578840922E-01 
    6.6610991400428377E-01 
    6.6167492099942271E-01 
    6.5686039521669803E-01 
    6.5205678528223321E-01 
    6.4707476279164255E-01 
    6.4197770503738383E-01 
    6.3682531521073538E-01 
    6.3142712609180562E-01 
    6.2517947841394794E-01 
    6.1723526161077702E-01 
    6.0625113999345137E-01 
    5.8966605113526227E-01 
    5.6224067714849624E-01 
    5.1004378464194089E-01 
    3.7361850630378923E-01 
    6.3218727023127386E-01 
    6.2977571051645886E-01 
    6.2689799060009777E-01 
    6.2387976877842033E-01 
    6.2139767040417604E-01 
    6.1889902689940379E-01 
    6.1653190387287360E-01 
    6.1433397922543598E-01 
    6.1236554969607659E-01 
    6.0991543236515100E-01 
    6.0625113999338331E-01 
    6.0009577484743326E-01 
    5.8898632398926309E-01 
    5.6787983324335212E-01 
    5.2370715044634586E-01 
    3.9832309887816192E-01 
    5.8972095214440001E-01 
    5.8833666633895354E-01 
    5.8689876525282958E-01 
    5.8563752536318303E-01 
    5.8491635035280665E-01 
    5.8467372626501490E-01 
    5.8496117176787732E-01 
    5.8579391082444277E-01 
    5.8714079402565311E-01 
    5.8865545017574583E-01 
    5.8966605113508774E-01 
    5.8898632398915796E-01 
    5.8437790104009291E-01 
    5.7117989442821659E-01 
    5.3744874802151577E-01 
    4.2747226686881973E-01 
    5.3723331988309775E-01 
    5.3665808638961754E-01 
    5.3627885072050174E-01 
    5.3616316005445752E-01 
    5.3756341247597716E-01 
    5.3934344263396805E-01 
    5.4192917545925590E-01 
    5.4539700475369834E-01 
    5.5042961125857370E-01 
    5.5612207403702096E-01 
    5.6224067714818315E-01 
    5.6787983324312685E-01 
    5.7117989442810457E-01 
    5.6793308954289912E-01 
    5.4767821157551089E-01 
    4.5956574666283789E-01 
    4.5772672387432639E-01 
    4.5781364356415782E-01 
    4.5836976078710295E-01 
    4.5952926556487694E-01 
    4.6251451891625478E-01 
    4.6637184519783947E-01 
    4.7147373221894046E-01 
    4.7803942108436687E-01 
    4.8696638469540410E-01 
    4.9761692549458203E-01 
    5.1004378464153344E-01 
    5.2370715044600968E-01 
    5.3744874802129172E-01 
    5.4767821157541829E-01 
    5.4562649372573424E-01 
    4.8945962938306392E-01 
    2.8302615064759068E-01 
    2.8365556226304034E-01 
    2.8523244160371281E-01 
    2.8797600824663189E-01 
    2.9324471498377397E-01 
    3.0016786303641069E-01 
    3.0913281176782970E-01 
    3.2037347712186731E-01 
    3.3499940961793023E-01 
    3.5255209459204601E-01 
    3.7361850630338811E-01 
    3.9832309887786155E-01 
    4.2747226686867457E-01 
    4.5956574666288769E-01 
    4.8945962938309051E-01 
    4.8871431995627729E-01 
