# vtk DataFile Version 2.0
Pressure Field Data 
ASCII 
DATASET UNSTRUCTURED_GRID 

POINTS 289 double 

    0.0000000000000000E+00     0.0000000000000000E+00     0.0000000000000000E+00 
    1.0000000000000000E+00     0.0000000000000000E+00     0.0000000000000000E+00 
    1.0000000000000000E+00     1.0000000000000000E+00     0.0000000000000000E+00 
    0.0000000000000000E+00     1.0000000000000000E+00     0.0000000000000000E+00 
    6.2499999999872928E-02     0.0000000000000000E+00     0.0000000000000000E+00 
    1.2499999999977310E-01     0.0000000000000000E+00     0.0000000000000000E+00 
    1.8749999999959341E-01     0.0000000000000000E+00     0.0000000000000000E+00 
    2.4999999999941089E-01     0.0000000000000000E+00     0.0000000000000000E+00 
    3.1249999999922851E-01     0.0000000000000000E+00     0.0000000000000000E+00 
    3.7499999999904610E-01     0.0000000000000000E+00     0.0000000000000000E+00 
    4.3749999999886358E-01     0.0000000000000000E+00     0.0000000000000000E+00 
    4.9999999999869210E-01     0.0000000000000000E+00     0.0000000000000000E+00 
    5.6249999999884603E-01     0.0000000000000000E+00     0.0000000000000000E+00 
    6.2499999999901090E-01     0.0000000000000000E+00     0.0000000000000000E+00 
    6.8749999999917577E-01     0.0000000000000000E+00     0.0000000000000000E+00 
    7.4999999999934064E-01     0.0000000000000000E+00     0.0000000000000000E+00 
    8.1249999999950551E-01     0.0000000000000000E+00     0.0000000000000000E+00 
    8.7499999999967026E-01     0.0000000000000000E+00     0.0000000000000000E+00 
    9.3749999999983513E-01     0.0000000000000000E+00     0.0000000000000000E+00 
    1.0000000000000000E+00     6.2499999999872928E-02     0.0000000000000000E+00 
    1.0000000000000000E+00     1.2499999999977310E-01     0.0000000000000000E+00 
    1.0000000000000000E+00     1.8749999999959341E-01     0.0000000000000000E+00 
    1.0000000000000000E+00     2.4999999999941089E-01     0.0000000000000000E+00 
    1.0000000000000000E+00     3.1249999999922851E-01     0.0000000000000000E+00 
    1.0000000000000000E+00     3.7499999999904610E-01     0.0000000000000000E+00 
    1.0000000000000000E+00     4.3749999999886358E-01     0.0000000000000000E+00 
    1.0000000000000000E+00     4.9999999999869210E-01     0.0000000000000000E+00 
    1.0000000000000000E+00     5.6249999999884603E-01     0.0000000000000000E+00 
    1.0000000000000000E+00     6.2499999999901090E-01     0.0000000000000000E+00 
    1.0000000000000000E+00     6.8749999999917577E-01     0.0000000000000000E+00 
    1.0000000000000000E+00     7.4999999999934064E-01     0.0000000000000000E+00 
    1.0000000000000000E+00     8.1249999999950551E-01     0.0000000000000000E+00 
    1.0000000000000000E+00     8.7499999999967026E-01     0.0000000000000000E+00 
    1.0000000000000000E+00     9.3749999999983513E-01     0.0000000000000000E+00 
    9.3749999999973976E-01     1.0000000000000000E+00     0.0000000000000000E+00 
    8.7499999999950118E-01     1.0000000000000000E+00     0.0000000000000000E+00 
    8.1249999999991318E-01     1.0000000000000000E+00     0.0000000000000000E+00 
    7.5000000000034706E-01     1.0000000000000000E+00     0.0000000000000000E+00 
    6.8750000000078049E-01     1.0000000000000000E+00     0.0000000000000000E+00 
    6.2500000000121403E-01     1.0000000000000000E+00     0.0000000000000000E+00 
    5.6250000000164757E-01     1.0000000000000000E+00     0.0000000000000000E+00 
    5.0000000000205946E-01     1.0000000000000000E+00     0.0000000000000000E+00 
    4.3750000000182099E-01     1.0000000000000000E+00     0.0000000000000000E+00 
    3.7500000000156092E-01     1.0000000000000000E+00     0.0000000000000000E+00 
    3.1250000000130068E-01     1.0000000000000000E+00     0.0000000000000000E+00 
    2.5000000000104050E-01     1.0000000000000000E+00     0.0000000000000000E+00 
    1.8750000000078040E-01     1.0000000000000000E+00     0.0000000000000000E+00 
    1.2500000000052031E-01     1.0000000000000000E+00     0.0000000000000000E+00 
    6.2500000000260125E-02     1.0000000000000000E+00     0.0000000000000000E+00 
    0.0000000000000000E+00     9.3749999999973976E-01     0.0000000000000000E+00 
    0.0000000000000000E+00     8.7499999999950118E-01     0.0000000000000000E+00 
    0.0000000000000000E+00     8.1249999999991318E-01     0.0000000000000000E+00 
    0.0000000000000000E+00     7.5000000000034706E-01     0.0000000000000000E+00 
    0.0000000000000000E+00     6.8750000000078049E-01     0.0000000000000000E+00 
    0.0000000000000000E+00     6.2500000000121403E-01     0.0000000000000000E+00 
    0.0000000000000000E+00     5.6250000000164757E-01     0.0000000000000000E+00 
    0.0000000000000000E+00     5.0000000000205946E-01     0.0000000000000000E+00 
    0.0000000000000000E+00     4.3750000000182099E-01     0.0000000000000000E+00 
    0.0000000000000000E+00     3.7500000000156092E-01     0.0000000000000000E+00 
    0.0000000000000000E+00     3.1250000000130068E-01     0.0000000000000000E+00 
    0.0000000000000000E+00     2.5000000000104050E-01     0.0000000000000000E+00 
    0.0000000000000000E+00     1.8750000000078040E-01     0.0000000000000000E+00 
    0.0000000000000000E+00     1.2500000000052031E-01     0.0000000000000000E+00 
    0.0000000000000000E+00     6.2500000000260125E-02     0.0000000000000000E+00 
    6.2499999999897131E-02     6.2500000000235922E-02     0.0000000000000000E+00 
    6.2499999999921327E-02     1.2500000000047351E-01     0.0000000000000000E+00 
    6.2499999999945530E-02     1.8750000000070621E-01     0.0000000000000000E+00 
    6.2499999999969733E-02     2.5000000000093858E-01     0.0000000000000000E+00 
    6.2499999999993928E-02     3.1250000000117117E-01     0.0000000000000000E+00 
    6.2500000000018124E-02     3.7500000000140382E-01     0.0000000000000000E+00 
    6.2500000000042327E-02     4.3750000000163619E-01     0.0000000000000000E+00 
    6.2500000000066530E-02     5.0000000000184897E-01     0.0000000000000000E+00 
    6.2500000000090733E-02     5.6250000000147260E-01     0.0000000000000000E+00 
    6.2500000000114922E-02     6.2500000000107636E-01     0.0000000000000000E+00 
    6.2500000000139125E-02     6.8750000000068034E-01     0.0000000000000000E+00 
    6.2500000000163328E-02     7.5000000000028411E-01     0.0000000000000000E+00 
    6.2500000000187531E-02     8.1249999999988787E-01     0.0000000000000000E+00 
    6.2500000000211720E-02     8.7499999999951172E-01     0.0000000000000000E+00 
    6.2500000000235922E-02     9.3749999999974565E-01     0.0000000000000000E+00 
    1.2499999999981980E-01     6.2500000000211733E-02     0.0000000000000000E+00 
    1.2499999999986650E-01     1.2500000000042691E-01     0.0000000000000000E+00 
    1.2499999999991319E-01     1.8750000000063199E-01     0.0000000000000000E+00 
    1.2499999999995989E-01     2.5000000000083678E-01     0.0000000000000000E+00 
    1.2500000000000661E-01     3.1250000000104172E-01     0.0000000000000000E+00 
    1.2500000000005329E-01     3.7500000000124661E-01     0.0000000000000000E+00 
    1.2500000000010000E-01     4.3750000000145117E-01     0.0000000000000000E+00 
    1.2500000000014669E-01     5.0000000000163858E-01     0.0000000000000000E+00 
    1.2500000000019340E-01     5.6250000000129741E-01     0.0000000000000000E+00 
    1.2500000000024011E-01     6.2500000000093847E-01     0.0000000000000000E+00 
    1.2500000000028680E-01     6.8750000000057998E-01     0.0000000000000000E+00 
    1.2500000000033351E-01     7.5000000000022127E-01     0.0000000000000000E+00 
    1.2500000000038020E-01     8.1249999999986211E-01     0.0000000000000000E+00 
    1.2500000000042691E-01     8.7499999999952238E-01     0.0000000000000000E+00 
    1.2500000000047359E-01     9.3749999999975164E-01     0.0000000000000000E+00 
    1.8749999999966760E-01     6.2500000000187531E-02     0.0000000000000000E+00 
    1.8749999999974179E-01     1.2500000000038020E-01     0.0000000000000000E+00 
    1.8749999999981601E-01     1.8750000000055780E-01     0.0000000000000000E+00 
    1.8749999999989009E-01     2.5000000000073502E-01     0.0000000000000000E+00 
    1.8749999999996431E-01     3.1250000000091221E-01     0.0000000000000000E+00 
    1.8750000000003850E-01     3.7500000000108941E-01     0.0000000000000000E+00 
    1.8750000000011269E-01     4.3750000000126649E-01     0.0000000000000000E+00 
    1.8750000000018691E-01     5.0000000000142808E-01     0.0000000000000000E+00 
    1.8750000000026110E-01     5.6250000000112244E-01     0.0000000000000000E+00 
    1.8750000000033529E-01     6.2500000000080080E-01     0.0000000000000000E+00 
    1.8750000000040951E-01     6.8750000000047962E-01     0.0000000000000000E+00 
    1.8750000000048361E-01     7.5000000000015843E-01     0.0000000000000000E+00 
    1.8750000000055780E-01     8.1249999999983680E-01     0.0000000000000000E+00 
    1.8750000000063199E-01     8.7499999999953304E-01     0.0000000000000000E+00 
    1.8750000000070621E-01     9.3749999999975764E-01     0.0000000000000000E+00 
    2.4999999999951281E-01     6.2500000000163314E-02     0.0000000000000000E+00 
    2.4999999999961461E-01     1.2500000000033351E-01     0.0000000000000000E+00 
    2.4999999999971650E-01     1.8750000000048361E-01     0.0000000000000000E+00 
    2.4999999999981831E-01     2.5000000000063310E-01     0.0000000000000000E+00 
    2.4999999999992020E-01     3.1250000000078260E-01     0.0000000000000000E+00 
    2.5000000000002198E-01     3.7500000000093209E-01     0.0000000000000000E+00 
    2.5000000000012390E-01     4.3750000000108180E-01     0.0000000000000000E+00 
    2.5000000000022571E-01     5.0000000000121769E-01     0.0000000000000000E+00 
    2.5000000000032763E-01     5.6250000000094724E-01     0.0000000000000000E+00 
    2.5000000000042938E-01     6.2500000000066314E-01     0.0000000000000000E+00 
    2.5000000000053119E-01     6.8750000000037925E-01     0.0000000000000000E+00 
[...]
CELL_DATA 256 
SCALARS Pressure double 1 
LOOKUP_TABLE default 

    2.2375958652722470E+00 
    2.1301730465591322E+00 
    2.0589009223858987E+00 
    2.0045710652307744E+00 
    1.9592590365482194E+00 
    1.9194793049984475E+00 
    1.8835984377627921E+00 
    1.8508510139484684E+00 
    1.8209330712150054E+00 
    1.7938078304611262E+00 
    1.7695911926231791E+00 
    1.7484528639236916E+00 
    1.7304788484022815E+00 
    1.7154934328478368E+00 
    1.7033928596560544E+00 
    1.6968324264316612E+00 
    2.1301730465597113E+00 
    2.0848477115962569E+00 
    2.0357274387866253E+00 
    1.9904374747545821E+00 
    1.9493292398572906E+00 
    1.9117035854803888E+00 
    1.8769812316041574E+00 
    1.8448480885084291E+00 
    1.8152193890579376E+00 
    1.7881778700161577E+00 
    1.7639141543815422E+00 
    1.7426528532759444E+00 
    1.7245237154479949E+00 
    1.7093743366028593E+00 
    1.6971194007934549E+00 
    1.6904764610210292E+00 
    2.0589009223867278E+00 
    2.0357274387870277E+00 
    2.0027120898128863E+00 
    1.9670272117238727E+00 
    1.9314927523775778E+00 
    1.8971094057453275E+00 
    1.8642514047623804E+00 
    1.8331291669592267E+00 
    1.8039587292912185E+00 
    1.7770079978637108E+00 
    1.7525950816618538E+00 
    1.7310441520041941E+00 
    1.7125693439141578E+00 
    1.6970708089746418E+00 
    1.6845054898480094E+00 
    1.6777001276553016E+00 
    2.0045710652317856E+00 
    1.9904374747552629E+00 
    1.9670272117241954E+00 
    1.9387390872857782E+00 
    1.9082879112705182E+00 
    1.8771918368524769E+00 
    1.8463281396251765E+00 
    1.8162808263725077E+00 
    1.7875283177110284E+00 
    1.7605289996921789E+00 
    1.7357515729338082E+00 
    1.7136512140846467E+00 
    1.6945594630691165E+00 
    1.6784678854276405E+00 
    1.6654120402591339E+00 
    1.6583556304898681E+00 
    1.9592590365493803E+00 
    1.9493292398581750E+00 
    1.9314927523781487E+00 
    1.9082879112707858E+00 
    1.8817731104728559E+00 
    1.8534128680128756E+00 
    1.8242371919572828E+00 
    1.7950224807955464E+00 
    1.7664260212837164E+00 
    1.7390668523842585E+00 
    1.7135646617395441E+00 
    1.6905257178795179E+00 
    1.6704295654423673E+00 
    1.6534076033082934E+00 
    1.6396073894999761E+00 
    1.6321593945379467E+00 
    1.9194793049997412E+00 
    1.9117035854814326E+00 
    1.8971094057460918E+00 
    1.8771918368529636E+00 
    1.8534128680131052E+00 
    1.8270014711955453E+00 
    1.7989531703595190E+00 
    1.7701029363221932E+00 
    1.7412063328564960E+00 
    1.7130016091184472E+00 
    1.6862480972269067E+00 
    1.6617159056322488E+00 
    1.6400724302269125E+00 
    1.6216432329496016E+00 
    1.6067188803897579E+00 
    1.5986619979259900E+00 
    1.8835984377642041E+00 
    1.8769812316053343E+00 
    1.8642514047633032E+00 
    1.8463281396258460E+00 
    1.8242371919577123E+00 
    1.7989531703597264E+00 
    1.7713570540595782E+00 
    1.7422589795508963E+00 
    1.7124481032293006E+00 
    1.6827401818245860E+00 
    1.6540175944700151E+00 
    1.6272258104507971E+00 
    1.6032689848446351E+00 
    1.5827389030983481E+00 
    1.5661516717576212E+00 
    1.5572046013973018E+00 
    1.8508510139499716E+00 
    1.8448480885097083E+00 
    1.8331291669602738E+00 
    1.8162808263733263E+00 
    1.7950224807961479E+00 
    1.7701029363225893E+00 
    1.7422589795510959E+00 
    1.7122245128202673E+00 
    1.6807692073860094E+00 
    1.6487433746899518E+00 
    1.6171276872539277E+00 
    1.5870507822116664E+00 
    1.5597041909600342E+00 
    1.5360536543330625E+00 
    1.5170074130445295E+00 
    1.5067480327954523E+00 
    1.8209330712163172E+00 
    1.8152193890590713E+00 
    1.8039587292921777E+00 
    1.7875283177118224E+00 
    1.7664260212843566E+00 
    1.7412063328569911E+00 
    1.7124481032296528E+00 
    1.6807692073862079E+00 
    1.6468683459960121E+00 
    1.6115779721250783E+00 
    1.5759340578185068E+00 
    1.5412372710767099E+00 
    1.5090111089675666E+00 
    1.4807355905682118E+00 
    1.4579418895660228E+00 
    1.4455645748326564E+00 
    1.7938078304620773E+00 
    1.7881778700169935E+00 
    1.7770079978644460E+00 
    1.7605289996928299E+00 
    1.7390668523848407E+00 
    1.7130016091189733E+00 
    1.6827401818250591E+00 
    1.6487433746903628E+00 
    1.6115779721253434E+00 
    1.5719831274127429E+00 
    1.5309707952538836E+00 
    1.4899562405167071E+00 
    1.4508082558470812E+00 
    1.4156629428084748E+00 
    1.3869648912382375E+00 
    1.3709054299090395E+00 
    1.7695911926238097E+00 
    1.7639141543821113E+00 
    1.7525950816623843E+00 
    1.7357515729343282E+00 
    1.7135646617400777E+00 
    1.6862480972274749E+00 
    1.6540175944706321E+00 
    1.6171276872545943E+00 
    1.5759340578191026E+00 
    1.5309707952542302E+00 
    1.4830834083669802E+00 
    1.4336550230282128E+00 
    1.3848118579824675E+00 
    1.3394287198267119E+00 
    1.3012477278886962E+00 
    1.2786163272931295E+00 
    1.7484528639240506E+00 
    1.7426528532762864E+00 
    1.7310441520045523E+00 
    1.7136512140850613E+00 
    1.6905257178800255E+00 
    1.6617159056328836E+00 
    1.6272258104515904E+00 
    1.5870507822126396E+00 
    1.5412372710777127E+00 
    1.4899562405174933E+00 
    1.4336550230286706E+00 
    1.3733827449124447E+00 
    1.3112078355285355E+00 
    1.2506076139628064E+00 
    1.1970079303222272E+00 
    1.1624491844350631E+00 
    1.7304788484024194E+00 
    1.7245237154481534E+00 
    1.7125693439143796E+00 
    1.6945594630694567E+00 
    1.6704295654428756E+00 
    1.6400724302276430E+00 
    1.6032689848456416E+00 
    1.5597041909613669E+00 
    1.5090111089690532E+00 
    1.4508082558484032E+00 
    1.3848118579835031E+00 
    1.3112078355291423E+00 
    1.2312661432014371E+00 
    1.1482975210744979E+00 
    1.0693237307591743E+00 
    1.0124649247189759E+00 
    1.7154934328478089E+00 
    1.7093743366028824E+00 
    1.6970708089747701E+00 
    1.6784678854279431E+00 
    1.6534076033088358E+00 
    1.6216432329504573E+00 
    1.5827389030996000E+00 
    1.5360536543347993E+00 
    1.4807355905702426E+00 
    1.4156629428104084E+00 
    1.3394287198284256E+00 
    1.2506076139641533E+00 
    1.1482975210752824E+00 
    1.0333805335258437E+00 
    9.1194796656216881E-01 
    8.0990801352886976E-01 
    1.7033928596559993E+00 
    1.6971194007934653E+00 
    1.6845054898481504E+00 
    1.6654120402594892E+00 
    1.6396073895006293E+00 
    1.6067188803908010E+00 
    1.5661516717591657E+00 
    1.5170074130467019E+00 
    1.4579418895686118E+00 
    1.3869648912407744E+00 
    1.3012477278910495E+00 
    1.1970079303242249E+00 
    1.0693237307605734E+00 
    9.1194796656264876E-01 
    7.1955600699857125E-01 
    5.1205511607006571E-01 
    1.6968324264316257E+00 
    1.6904764610210674E+00 
    1.6777001276554904E+00 
    1.6583556304903053E+00 
    1.6321593945387307E+00 
    1.5986619979272334E+00 
    1.5572046013991399E+00 
    1.5067480327980460E+00 
    1.4455645748357691E+00 
    1.3709054299121386E+00 
    1.2786163272960733E+00 
    1.1624491844376410E+00 
    1.0124649247208468E+00 
    8.0990801352943775E-01 
    5.1205511606936016E-01 
    0.0000000000000000E+00 

SCALARS Saturarion double 1 
LOOKUP_TABLE default 

    1.0000000000000000E+00 
    9.4944808928553937E-01 
    9.0593831835164551E-01 
    8.6064728019298364E-01 
    8.1552864110084711E-01 
    7.7200712877255606E-01 
    7.3013696733214806E-01 
    6.8974604674766671E-01 
    6.5012753561075232E-01 
    6.1062082593049971E-01 
    5.6963479972454323E-01 
    5.2449525415230214E-01 
    4.6786876849806946E-01 
    3.8182424259650666E-01 
    2.1366198315051138E-01 
    2.2502884508872955E-02 
    9.4944808928581015E-01 
    9.1607952650840974E-01 
    8.7784070353958754E-01 
    8.3758656652362073E-01 
    7.9684786837520394E-01 
    7.5696531854331572E-01 
    7.1807596713489186E-01 
    6.8017968299377685E-01 
    6.4265336941406359E-01 
    6.0487342787158604E-01 
    5.6532422063784293E-01 
    5.2138416319092751E-01 
    4.6566608251256192E-01 
    3.7971759463253213E-01 
    2.1000180276278785E-01 
    2.1102223471575216E-02 
    9.0593831835223781E-01 
    8.7784070353986521E-01 
    8.4467555437900121E-01 
    8.0950318041550107E-01 
    7.7352084825041811E-01 
    7.3777904228676672E-01 
    7.0248509520670932E-01 
    6.6773721711541811E-01 
    6.3299373078584831E-01 
    5.9752366250301781E-01 
    5.5994036958775018E-01 
    5.1765146847753651E-01 
    4.6335619053088645E-01 
    3.7772234648531999E-01 
    2.0673697601274202E-01 
    1.9952659085052286E-02 
    8.6064728019385606E-01 
    8.3758656652422914E-01 
    8.0950318041578551E-01 
    7.7923681938838707E-01 
    7.4797648134074801E-01 
    7.1656973212294095E-01 
    6.8521215454315110E-01 
    6.5388234609533125E-01 
    6.2218948837358057E-01 
    5.8937716409918817E-01 
    5.5415965154060798E-01 
    5.1374039232445978E-01 
    4.6130895141251282E-01 
    3.7589221572981529E-01 
    2.0424319729632273E-01 
    1.9192493225600175E-02 
    8.1552864110194490E-01 
    7.9684786837602117E-01 
    7.7352084825098111E-01 
    7.4797648134099226E-01 
    7.2128279553465879E-01 
    6.9411331989724334E-01 
    6.6665534498388068E-01 
    6.3898218536994122E-01 
    6.1061056194275387E-01 
    5.8094148875920359E-01 
    5.4852147621806902E-01 
    5.1078207670916409E-01 
    4.6016070754169208E-01 
    3.7764298789205270E-01 
    2.0909936028068132E-01 
    2.1832723899314607E-02 
    7.7200712877389932E-01 
    7.5696531854430149E-01 
    7.3777904228750779E-01 
    7.1656973212341513E-01 
    6.9411331989744707E-01 
    6.7109461730706621E-01 
    6.4749632779817712E-01 
    6.2347493846286473E-01 
    5.9847148574382181E-01 
    5.7202287740584712E-01 
    5.4261948045237773E-01 
    5.0770950707990858E-01 
    4.5972057344935918E-01 
    3.7983718177463865E-01 
    2.1554992022190098E-01 
    2.4583979313819632E-02 
    7.3013696733370126E-01 
    7.1807596713613020E-01 
    7.0248509520765934E-01 
    6.8521215454381890E-01 
    6.6665534498428125E-01 
    6.4749632779835187E-01 
    6.2765388314356352E-01 
    6.0729870978819700E-01 
    5.8582920361147339E-01 
    5.6271314255077320E-01 
    5.3653385445201474E-01 
    5.0475024158675885E-01 
    4.6006800490813238E-01 
    3.8338778579481508E-01 
    2.2443355492759515E-01 
    2.9130897762508452E-02 
    6.8974604674942375E-01 
    6.8017968299521858E-01 
    6.6773721711656353E-01 
    6.5388234609616358E-01 
    6.3898218537048324E-01 
    6.2347493846318069E-01 
    6.0729870978834100E-01 
    5.9052778755070523E-01 
    5.7266208750645697E-01 
    5.5306471022499371E-01 
    5.3038286757017294E-01 
    5.0199956942303026E-01 
    4.6128319234142057E-01 
    3.8847577207275025E-01 
    2.3662260654384373E-01 
    3.7025145668885463E-02 
    6.5012753561213243E-01 
    6.4265336941525453E-01 
    6.3299373078679644E-01 
    6.2218948837428623E-01 
    6.1061056194324270E-01 
    5.9847148574413656E-01 
    5.8582920361164670E-01 
    5.7266208750652559E-01 
    5.5854905459805959E-01 
    5.4275124920580509E-01 
    5.2397884870513356E-01 
    4.9974603580943089E-01 
    4.6345280498482716E-01 
    3.9720035932413372E-01 
    2.5560439901434240E-01 
    5.4717519311839560E-02 
    6.1062082593157829E-01 
    6.0487342787252374E-01 
    5.9752366250378464E-01 
    5.8937716409975160E-01 
    5.8094148875961349E-01 
    5.7202287740613056E-01 
    5.6271314255094518E-01 
    5.5306471022508397E-01 
    5.4275124920582851E-01 
    5.3097754436928590E-01 
    5.1647934442500287E-01 
    4.9691219419310650E-01 
    4.6613839175553734E-01 
    4.0737926421777648E-01 
    2.7862030962365886E-01 
    8.1529829555089722E-02 
    5.6963479972534214E-01 
    5.6532422063852594E-01 
    5.5994036958830284E-01 
    5.5415965154101854E-01 
    5.4852147621837033E-01 
    5.4261948045257902E-01 
    5.3653385445213386E-01 
    5.3038286757022646E-01 
    5.2397884870512346E-01 
    5.1647934442497079E-01 
    5.0671393046947377E-01 
    4.9251785437558132E-01 
    4.6837501775732837E-01 
    4.1887692037064134E-01 
    3.0562282266253749E-01 
    1.2019202837874518E-01 
    5.2449525415281317E-01 
    5.2138416319134595E-01 
    5.1765146847786603E-01 
    5.1374039232469515E-01 
    5.1078207670931297E-01 
    5.0770950707998241E-01 
    5.0475024158677073E-01 
    5.0199956942298740E-01 
    4.9974603580932558E-01 
    4.9691219419297805E-01 
    4.9251785437549395E-01 
    4.8460769543519755E-01 
    4.6832401121724770E-01 
    4.3015538162453265E-01 
    3.3527989039218509E-01 
    1.6679079506329239E-01 
    4.6786876849822101E-01 
    4.6566608251266156E-01 
    4.6335619053093502E-01 
    4.6130895141250733E-01 
    4.6016070754162680E-01 
    4.5972057344922795E-01 
    4.6006800490794392E-01 
    4.6128319234117776E-01 
    4.6345280498453367E-01 
    4.6613839175523902E-01 
    4.6837501775707752E-01 
    4.6832401121709905E-01 
    4.6186390797005156E-01 
    4.3779952955770790E-01 
    3.6554888605889507E-01 
    2.1836234833506293E-01 
    3.8182424259613285E-01 
    3.7971759463215815E-01 
    3.7772234648493969E-01 
    3.7589221572941395E-01 
    3.7764298789162593E-01 
    3.7983718177416703E-01 
    3.8338778579427990E-01 
    3.8847577207213380E-01 
    3.9720035932348774E-01 
    4.0737926421715359E-01 
    4.1887692037010771E-01 
    4.3015538162414968E-01 
    4.3779952955752449E-01 
    4.3245504642683730E-01 
    3.8862403516910726E-01 
    2.6994493873743136E-01 
    2.1366198315044041E-01 
    2.1000180276269231E-01 
    2.0673697601262633E-01 
    2.0424319729614884E-01 
    2.0909936028040160E-01 
    2.1554992022146946E-01 
    2.2443355492695993E-01 
    2.3662260654296174E-01 
    2.5560439901337811E-01 
    2.7862030962269119E-01 
    3.0562282266165758E-01 
    3.3527989039147366E-01 
    3.6554888605843577E-01 
    3.8862403516890753E-01 
    3.8478373277407674E-01 
    3.1196463487359899E-01 
    2.2502884508890729E-02 
    2.1102223471581721E-02 
    1.9952659085048518E-02 
    1.9192493225571337E-02 
    2.1832723899234373E-02 
    2.4583979313650757E-02 
    2.9130897762188381E-02 
    3.7025145668305837E-02 
    5.4717519310886677E-02 
    8.1529829553822930E-02 
    1.2019202837746581E-01 
    1.6679079506231650E-01 
    2.1836234833450371E-01 
    2.6994493873727893E-01 
    3.1196463487349696E-01 
    3.1059803874996139E-01 
