# vtk DataFile Version 2.0
Pressure Field Data 
ASCII 
DATASET UNSTRUCTURED_GRID 

POINTS 289 double 

    0.0000000000000000E+00     0.0000000000000000E+00     0.0000000000000000E+00 
    1.0000000000000000E+00     0.0000000000000000E+00     0.0000000000000000E+00 
    1.0000000000000000E+00     1.0000000000000000E+00     0.0000000000000000E+00 
    0.0000000000000000E+00     1.0000000000000000E+00     0.0000000000000000E+00 
    6.2499999999872928E-02     0.0000000000000000E+00     0.0000000000000000E+00 
    1.2499999999977310E-01     0.0000000000000000E+00     0.0000000000000000E+00 
    1.8749999999959341E-01     0.0000000000000000E+00     0.0000000000000000E+00 
    2.4999999999941089E-01     0.0000000000000000E+00     0.0000000000000000E+00 
    3.1249999999922851E-01     0.0000000000000000E+00     0.0000000000000000E+00 
    3.7499999999904610E-01     0.0000000000000000E+00     0.0000000000000000E+00 
    4.3749999999886358E-01     0.0000000000000000E+00     0.0000000000000000E+00 
    4.9999999999869210E-01     0.0000000000000000E+00     0.0000000000000000E+00 
    5.6249999999884603E-01     0.0000000000000000E+00     0.0000000000000000E+00 
    6.2499999999901090E-01     0.0000000000000000E+00     0.0000000000000000E+00 
    6.8749999999917577E-01     0.0000000000000000E+00     0.0000000000000000E+00 
    7.4999999999934064E-01     0.0000000000000000E+00     0.0000000000000000E+00 
    8.1249999999950551E-01     0.0000000000000000E+00     0.0000000000000000E+00 
    8.7499999999967026E-01     0.0000000000000000E+00     0.0000000000000000E+00 
    9.3749999999983513E-01     0.0000000000000000E+00     0.0000000000000000E+00 
    1.0000000000000000E+00     6.2499999999872928E-02     0.0000000000000000E+00 
    1.0000000000000000E+00     1.2499999999977310E-01     0.0000000000000000E+00 
    1.0000000000000000E+00     1.8749999999959341E-01     0.0000000000000000E+00 
    1.0000000000000000E+00     2.4999999999941089E-01     0.0000000000000000E+00 
    1.0000000000000000E+00     3.1249999999922851E-01     0.0000000000000000E+00 
    1.0000000000000000E+00     3.7499999999904610E-01     0.0000000000000000E+00 
    1.0000000000000000E+00     4.3749999999886358E-01     0.0000000000000000E+00 
    1.0000000000000000E+00     4.9999999999869210E-01     0.0000000000000000E+00 
    1.0000000000000000E+00     5.6249999999884603E-01     0.0000000000000000E+00 
    1.0000000000000000E+00     6.2499999999901090E-01     0.0000000000000000E+00 
    1.0000000000000000E+00     6.8749999999917577E-01     0.0000000000000000E+00 
    1.0000000000000000E+00     7.4999999999934064E-01     0.0000000000000000E+00 
    1.0000000000000000E+00     8.1249999999950551E-01     0.0000000000000000E+00 
    1.0000000000000000E+00     8.7499999999967026E-01     0.0000000000000000E+00 
    1.0000000000000000E+00     9.3749999999983513E-01     0.0000000000000000E+00 
    9.3749999999973976E-01     1.0000000000000000E+00     0.0000000000000000E+00 
    8.7499999999950118E-01     1.0000000000000000E+00     0.0000000000000000E+00 
    8.1249999999991318E-01     1.0000000000000000E+00     0.0000000000000000E+00 
    7.5000000000034706E-01     1.0000000000000000E+00     0.0000000000000000E+00 
    6.8750000000078049E-01     1.0000000000000000E+00     0.0000000000000000E+00 
    6.2500000000121403E-01     1.0000000000000000E+00     0.0000000000000000E+00 
    5.6250000000164757E-01     1.0000000000000000E+00     0.0000000000000000E+00 
    5.0000000000205946E-01     1.0000000000000000E+00     0.0000000000000000E+00 
    4.3750000000182099E-01     1.0000000000000000E+00     0.0000000000000000E+00 
    3.7500000000156092E-01     1.0000000000000000E+00     0.0000000000000000E+00 
    3.1250000000130068E-01     1.0000000000000000E+00     0.0000000000000000E+00 
    2.5000000000104050E-01     1.0000000000000000E+00     0.0000000000000000E+00 
    1.8750000000078040E-01     1.0000000000000000E+00     0.0000000000000000E+00 
    1.2500000000052031E-01     1.0000000000000000E+00     0.0000000000000000E+00 
    6.2500000000260125E-02     1.0000000000000000E+00     0.0000000000000000E+00 
    0.0000000000000000E+00     9.3749999999973976E-01     0.0000000000000000E+00 
    0.0000000000000000E+00     8.7499999999950118E-01     0.0000000000000000E+00 
    0.0000000000000000E+00     8.1249999999991318E-01     0.0000000000000000E+00 
    0.0000000000000000E+00     7.5000000000034706E-01     0.0000000000000000E+00 
    0.0000000000000000E+00     6.8750000000078049E-01     0.0000000000000000E+00 
    0.0000000000000000E+00     6.2500000000121403E-01     0.0000000000000000E+00 
    0.0000000000000000E+00     5.6250000000164757E-01     0.0000000000000000E+00 
    0.0000000000000000E+00     5.0000000000205946E-01     0.0000000000000000E+00 
    0.0000000000000000E+00     4.3750000000182099E-01     0.0000000000000000E+00 
    0.0000000000000000E+00     3.7500000000156092E-01     0.0000000000000000E+00 
    0.0000000000000000E+00     3.1250000000130068E-01     0.0000000000000000E+00 
    0.0000000000000000E+00     2.5000000000104050E-01     0.0000000000000000E+00 
    0.0000000000000000E+00     1.8750000000078040E-01     0.0000000000000000E+00 
    0.0000000000000000E+00     1.2500000000052031E-01     0.0000000000000000E+00 
    0.0000000000000000E+00     6.2500000000260125E-02     0.0000000000000000E+00 
    6.2499999999897131E-02     6.2500000000235922E-02     0.0000000000000000E+00 
    6.2499999999921327E-02     1.2500000000047351E-01     0.0000000000000000E+00 
    6.2499999999945530E-02     1.8750000000070621E-01     0.0000000000000000E+00 
    6.2499999999969733E-02     2.5000000000093858E-01     0.0000000000000000E+00 
    6.2499999999993928E-02     3.1250000000117117E-01     0.0000000000000000E+00 
    6.2500000000018124E-02     3.7500000000140382E-01     0.0000000000000000E+00 
    6.2500000000042327E-02     4.3750000000163619E-01     0.0000000000000000E+00 
    6.2500000000066530E-02     5.0000000000184897E-01     0.0000000000000000E+00 
    6.2500000000090733E-02     5.6250000000147260E-01     0.0000000000000000E+00 
    6.2500000000114922E-02     6.2500000000107636E-01     0.0000000000000000E+00 
    6.2500000000139125E-02     6.8750000000068034E-01     0.0000000000000000E+00 
    6.2500000000163328E-02     7.5000000000028411E-01     0.0000000000000000E+00 
    6.2500000000187531E-02     8.1249999999988787E-01     0.0000000000000000E+00 
    6.2500000000211720E-02     8.7499999999951172E-01     0.0000000000000000E+00 
    6.2500000000235922E-02     9.3749999999974565E-01     0.0000000000000000E+00 
    1.2499999999981980E-01     6.2500000000211733E-02     0.0000000000000000E+00 
    1.2499999999986650E-01     1.2500000000042691E-01     0.0000000000000000E+00 
    1.2499999999991319E-01     1.8750000000063199E-01     0.0000000000000000E+00 
    1.2499999999995989E-01     2.5000000000083678E-01     0.0000000000000000E+00 
    1.2500000000000661E-01     3.1250000000104172E-01     0.0000000000000000E+00 
    1.2500000000005329E-01     3.7500000000124661E-01     0.0000000000000000E+00 
    1.2500000000010000E-01     4.3750000000145117E-01     0.0000000000000000E+00 
    1.2500000000014669E-01     5.0000000000163858E-01     0.0000000000000000E+00 
    1.2500000000019340E-01     5.6250000000129741E-01     0.0000000000000000E+00 
    1.2500000000024011E-01     6.2500000000093847E-01     0.0000000000000000E+00 
    1.2500000000028680E-01     6.8750000000057998E-01     0.0000000000000000E+00 
    1.2500000000033351E-01     7.5000000000022127E-01     0.0000000000000000E+00 
    1.2500000000038020E-01     8.1249999999986211E-01     0.0000000000000000E+00 
    1.2500000000042691E-01     8.7499999999952238E-01     0.0000000000000000E+00 
    1.2500000000047359E-01     9.3749999999975164E-01     0.0000000000000000E+00 
    1.8749999999966760E-01     6.2500000000187531E-02     0.0000000000000000E+00 
    1.8749999999974179E-01     1.2500000000038020E-01     0.0000000000000000E+00 
    1.8749999999981601E-01     1.8750000000055780E-01     0.0000000000000000E+00 
    1.8749999999989009E-01     2.5000000000073502E-01     0.0000000000000000E+00 
    1.8749999999996431E-01     3.1250000000091221E-01     0.0000000000000000E+00 
    1.8750000000003850E-01     3.7500000000108941E-01     0.0000000000000000E+00 
    1.8750000000011269E-01     4.3750000000126649E-01     0.0000000000000000E+00 
    1.8750000000018691E-01     5.0000000000142808E-01     0.0000000000000000E+00 
    1.8750000000026110E-01     5.6250000000112244E-01     0.0000000000000000E+00 
    1.8750000000033529E-01     6.2500000000080080E-01     0.0000000000000000E+00 
    1.8750000000040951E-01     6.8750000000047962E-01     0.0000000000000000E+00 
    1.8750000000048361E-01     7.5000000000015843E-01     0.0000000000000000E+00 
    1.8750000000055780E-01     8.1249999999983680E-01     0.0000000000000000E+00 
    1.8750000000063199E-01     8.7499999999953304E-01     0.0000000000000000E+00 
    1.8750000000070621E-01     9.3749999999975764E-01     0.0000000000000000E+00 
    2.4999999999951281E-01     6.2500000000163314E-02     0.0000000000000000E+00 
    2.4999999999961461E-01     1.2500000000033351E-01     0.0000000000000000E+00 
    2.4999999999971650E-01     1.8750000000048361E-01     0.0000000000000000E+00 
    2.4999999999981831E-01     2.5000000000063310E-01     0.0000000000000000E+00 
    2.4999999999992020E-01     3.1250000000078260E-01     0.0000000000000000E+00 
    2.5000000000002198E-01     3.7500000000093209E-01     0.0000000000000000E+00 
    2.5000000000012390E-01     4.3750000000108180E-01     0.0000000000000000E+00 
    2.5000000000022571E-01     5.0000000000121769E-01     0.0000000000000000E+00 
    2.5000000000032763E-01     5.6250000000094724E-01     0.0000000000000000E+00 
    2.5000000000042938E-01     6.2500000000066314E-01     0.0000000000000000E+00 
    2.5000000000053119E-01     6.8750000000037925E-01     0.0000000000000000E+00 
[...]
CELL_DATA 256 
SCALARS Pressure double 1 
LOOKUP_TABLE default 

   -2.8700512635382519E+14 
   -2.8700512635382525E+14 
   -2.8700512635382506E+14 
   -2.8700512635382412E+14 
   -2.8700512635382437E+14 
   -2.8700512635382506E+14 
   -2.8700512635382469E+14 
   -2.8700512635382400E+14 
   -2.8700512635382356E+14 
   -2.8700512635382337E+14 
   -2.8700512635382344E+14 
   -2.8700512635382356E+14 
   -2.8700512635382350E+14 
   -2.8700512635382331E+14 
   -2.8700512635382312E+14 
   -2.8700512635382300E+14 
   -2.8700512635382519E+14 
   -2.8700512635382512E+14 
   -2.8700512635382506E+14 
   -2.8700512635382469E+14 
   -2.8700512635382494E+14 
   -2.8700512635382506E+14 
   -2.8700512635382444E+14 
   -2.8700512635382400E+14 
   -2.8700512635382375E+14 
   -2.8700512635382369E+14 
   -2.8700512635382369E+14 
   -2.8700512635382369E+14 
   -2.8700512635382344E+14 
   -2.8700512635382325E+14 
   -2.8700512635382294E+14 
   -2.8700512635382287E+14 
   -2.8700512635382512E+14 
   -2.8700512635382512E+14 
   -2.8700512635382512E+14 
   -2.8700512635382494E+14 
   -2.8700512635382512E+14 
   -2.8700512635382481E+14 
   -2.8700512635382431E+14 
   -2.8700512635382412E+14 
   -2.8700512635382400E+14 
   -2.8700512635382387E+14 
   -2.8700512635382375E+14 
   -2.8700512635382362E+14 
   -2.8700512635382337E+14 
   -2.8700512635382300E+14 
   -2.8700512635382281E+14 
   -2.8700512635382287E+14 
   -2.8700512635382500E+14 
   -2.8700512635382519E+14 
   -2.8700512635382512E+14 
   -2.8700512635382506E+14 
   -2.8700512635382500E+14 
   -2.8700512635382462E+14 
   -2.8700512635382444E+14 
   -2.8700512635382431E+14 
   -2.8700512635382419E+14 
   -2.8700512635382375E+14 
   -2.8700512635382362E+14 
   -2.8700512635382344E+14 
   -2.8700512635382325E+14 
   -2.8700512635382312E+14 
   -2.8700512635382294E+14 
   -2.8700512635382319E+14 
   -2.8700512635382506E+14 
   -2.8700512635382531E+14 
   -2.8700512635382519E+14 
   -2.8700512635382512E+14 
   -2.8700512635382481E+14 
   -2.8700512635382431E+14 
   -2.8700512635382419E+14 
   -2.8700512635382412E+14 
   -2.8700512635382400E+14 
   -2.8700512635382362E+14 
   -2.8700512635382344E+14 
   -2.8700512635382344E+14 
   -2.8700512635382344E+14 
   -2.8700512635382337E+14 
   -2.8700512635382337E+14 
   -2.8700512635382362E+14 
   -2.8700512635382525E+14 
   -2.8700512635382519E+14 
   -2.8700512635382506E+14 
   -2.8700512635382494E+14 
   -2.8700512635382450E+14 
   -2.8700512635382412E+14 
   -2.8700512635382419E+14 
   -2.8700512635382419E+14 
   -2.8700512635382400E+14 
   -2.8700512635382362E+14 
   -2.8700512635382362E+14 
   -2.8700512635382369E+14 
   -2.8700512635382362E+14 
   -2.8700512635382350E+14 
   -2.8700512635382344E+14 
   -2.8700512635382356E+14 
   -2.8700512635382475E+14 
   -2.8700512635382481E+14 
   -2.8700512635382481E+14 
   -2.8700512635382481E+14 
   -2.8700512635382444E+14 
   -2.8700512635382431E+14 
   -2.8700512635382437E+14 
   -2.8700512635382425E+14 
   -2.8700512635382394E+14 
   -2.8700512635382375E+14 
   -2.8700512635382375E+14 
   -2.8700512635382381E+14 
   -2.8700512635382375E+14 
   -2.8700512635382356E+14 
   -2.8700512635382362E+14 
   -2.8700512635382350E+14 
   -2.8700512635382431E+14 
   -2.8700512635382456E+14 
   -2.8700512635382469E+14 
   -2.8700512635382481E+14 
   -2.8700512635382462E+14 
   -2.8700512635382456E+14 
   -2.8700512635382437E+14 
   -2.8700512635382406E+14 
   -2.8700512635382387E+14 
   -2.8700512635382375E+14 
   -2.8700512635382375E+14 
   -2.8700512635382387E+14 
   -2.8700512635382369E+14 
   -2.8700512635382375E+14 
   -2.8700512635382362E+14 
   -2.8700512635382350E+14 
   -2.8700512635382437E+14 
   -2.8700512635382450E+14 
   -2.8700512635382456E+14 
   -2.8700512635382475E+14 
   -2.8700512635382456E+14 
   -2.8700512635382437E+14 
   -2.8700512635382400E+14 
   -2.8700512635382369E+14 
   -2.8700512635382369E+14 
   -2.8700512635382362E+14 
   -2.8700512635382387E+14 
   -2.8700512635382381E+14 
   -2.8700512635382381E+14 
   -2.8700512635382387E+14 
   -2.8700512635382350E+14 
   -2.8700512635382331E+14 
   -2.8700512635382444E+14 
   -2.8700512635382444E+14 
   -2.8700512635382456E+14 
   -2.8700512635382462E+14 
   -2.8700512635382444E+14 
   -2.8700512635382406E+14 
   -2.8700512635382369E+14 
   -2.8700512635382375E+14 
   -2.8700512635382375E+14 
   -2.8700512635382394E+14 
   -2.8700512635382412E+14 
   -2.8700512635382387E+14 
   -2.8700512635382412E+14 
   -2.8700512635382394E+14 
   -2.8700512635382350E+14 
   -2.8700512635382356E+14 
   -2.8700512635382475E+14 
   -2.8700512635382475E+14 
   -2.8700512635382469E+14 
   -2.8700512635382462E+14 
   -2.8700512635382437E+14 
   -2.8700512635382406E+14 
   -2.8700512635382387E+14 
   -2.8700512635382387E+14 
   -2.8700512635382406E+14 
   -2.8700512635382419E+14 
   -2.8700512635382425E+14 
   -2.8700512635382419E+14 
   -2.8700512635382437E+14 
   -2.8700512635382425E+14 
   -2.8700512635382400E+14 
   -2.8700512635382412E+14 
   -2.8700512635382500E+14 
   -2.8700512635382481E+14 
   -2.8700512635382456E+14 
   -2.8700512635382450E+14 
   -2.8700512635382431E+14 
   -2.8700512635382412E+14 
   -2.8700512635382394E+14 
   -2.8700512635382406E+14 
   -2.8700512635382412E+14 
   -2.8700512635382406E+14 
   -2.8700512635382412E+14 
   -2.8700512635382431E+14 
   -2.8700512635382456E+14 
   -2.8700512635382450E+14 
   -2.8700512635382425E+14 
   -2.8700512635382425E+14 
   -2.8700512635382494E+14 
   -2.8700512635382469E+14 
   -2.8700512635382450E+14 
   -2.8700512635382450E+14 
   -2.8700512635382444E+14 
   -2.8700512635382412E+14 
   -2.8700512635382394E+14 
   -2.8700512635382400E+14 
   -2.8700512635382394E+14 
   -2.8700512635382400E+14 
   -2.8700512635382412E+14 
   -2.8700512635382444E+14 
   -2.8700512635382469E+14 
   -2.8700512635382462E+14 
   -2.8700512635382431E+14 
   -2.8700512635382437E+14 
   -2.8700512635382500E+14 
   -2.8700512635382475E+14 
   -2.8700512635382456E+14 
   -2.8700512635382444E+14 
   -2.8700512635382425E+14 
   -2.8700512635382381E+14 
   -2.8700512635382375E+14 
   -2.8700512635382387E+14 
   -2.8700512635382394E+14 
   -2.8700512635382400E+14 
   -2.8700512635382419E+14 
   -2.8700512635382456E+14 
   -2.8700512635382481E+14 
   -2.8700512635382469E+14 
   -2.8700512635382462E+14 
   -2.8700512635382469E+14 
   -2.8700512635382525E+14 
   -2.8700512635382494E+14 
   -2.8700512635382444E+14 
   -2.8700512635382412E+14 
   -2.8700512635382387E+14 
   -2.8700512635382362E+14 
   -2.8700512635382369E+14 
   -2.8700512635382387E+14 
   -2.8700512635382394E+14 
   -2.8700512635382381E+14 
   -2.8700512635382412E+14 
   -2.8700512635382450E+14 
   -2.8700512635382487E+14 
   -2.8700512635382500E+14 
   -2.8700512635382494E+14 
   -2.8700512635382537E+14 
   -2.8700512635382506E+14 
   -2.8700512635382469E+14 
   -2.8700512635382419E+14 
   -2.8700512635382387E+14 
   -2.8700512635382375E+14 
   -2.8700512635382369E+14 
   -2.8700512635382381E+14 
   -2.8700512635382394E+14 
   -2.8700512635382381E+14 
   -2.8700512635382381E+14 
   -2.8700512635382425E+14 
   -2.8700512635382462E+14 
   -2.8700512635382500E+14 
   -2.8700512635382500E+14 
   -2.8700512635382531E+14 
   -2.8700512635382550E+14 

SCALARS Saturarion double 1 
LOOKUP_TABLE default 

    1.0000000000000000E+00 
    1.8598139258054627E+00 
    5.0496364717955966E-01 
    3.9330042393214554E-01 
    2.3615133382228326E-01 
    7.2392961308178697E-02 
    4.3117725000206041E-03 
    1.3967656837762486E-06 
    2.2791875400750392E-21 
    1.4982045598359153E-42 
    0.0000000000000000E+00 
    0.0000000000000000E+00 
    0.0000000000000000E+00 
    0.0000000000000000E+00 
    0.0000000000000000E+00 
    0.0000000000000000E+00 
    7.6498453823284895E-01 
    8.1224719597764716E-01 
    2.5065820762662927E-01 
    2.1719826604663309E-01 
    1.6045531998503795E-01 
    1.7730255395807620E-02 
    7.3556002292216884E-05 
    8.6363488486925407E-10 
    9.3791697497973745E-23 
   3.8973280571573745E-200 
    0.0000000000000000E+00 
    0.0000000000000000E+00 
    0.0000000000000000E+00 
    0.0000000000000000E+00 
    0.0000000000000000E+00 
    0.0000000000000000E+00 
    5.2295655816913467E-01 
    1.9581383465506266E+00 
    7.5312555162014905E-01 
    2.0348144547850394E-01 
    9.1790642845379175E-02 
    8.9419251570147379E-03 
    1.1647465610264512E-05 
    8.7446411599586221E-12 
    2.6483873001057733E-35 
   4.6243175902444529E-100 
    0.0000000000000000E+00 
    0.0000000000000000E+00 
    0.0000000000000000E+00 
    0.0000000000000000E+00 
    0.0000000000000000E+00 
    0.0000000000000000E+00 
    8.3246205390076966E-01 
    5.4684411539469635E-01 
    4.5303116298966772E-01 
    1.9184624723186752E-01 
    1.3492082929017192E-02 
    1.6355627758672436E-04 
    4.8997497189607238E-09 
    1.0559059159327936E-22 
    1.3872534712854576E-45 
    3.0914055719009342E-95 
   4.3543530368830534E-191 
    0.0000000000000000E+00 
    0.0000000000000000E+00 
    0.0000000000000000E+00 
    0.0000000000000000E+00 
    0.0000000000000000E+00 
    2.9717470660700307E-01 
    2.1180717562186663E-01 
    9.8894475353948089E-02 
    1.0477649617477092E-02 
    7.2329404353357944E-05 
    3.8166098951417268E-09 
    9.5367414867316678E-19 
    2.9138520638585059E-40 
   1.3936758254474356E-103 
    0.0000000000000000E+00 
    0.0000000000000000E+00 
    0.0000000000000000E+00 
    0.0000000000000000E+00 
    0.0000000000000000E+00 
    0.0000000000000000E+00 
    0.0000000000000000E+00 
    1.2306683355551162E-01 
    5.1762844741212906E-02 
    4.4668576049031608E-03 
    1.0183286477734065E-05 
    2.5996451853842508E-10 
    7.1229287926705309E-19 
    1.8315449583421698E-37 
    6.4357664779973422E-81 
   2.6152682238413439E-190 
    0.0000000000000000E+00 
    0.0000000000000000E+00 
    0.0000000000000000E+00 
    0.0000000000000000E+00 
    0.0000000000000000E+00 
    0.0000000000000000E+00 
    0.0000000000000000E+00 
    2.3211062025414064E-02 
    1.0060620359128806E-03 
    2.3983936439671017E-06 
    1.5512326564161804E-11 
    1.6077441840754265E-20 
    2.1957901158601984E-37 
    1.1157157645259753E-93 
   6.3018410449476689E-189 
    0.0000000000000000E+00 
    0.0000000000000000E+00 
    0.0000000000000000E+00 
    0.0000000000000000E+00 
    0.0000000000000000E+00 
    0.0000000000000000E+00 
    0.0000000000000000E+00 
    0.0000000000000000E+00 
    4.4604036239944563E-06 
    5.6818251208049884E-10 
    2.7166403402657631E-15 
    1.1424128481888239E-27 
    3.0468866810049419E-43 
    4.5869010350718029E-86 
   8.0686320806626411E-189 
    0.0000000000000000E+00 
    0.0000000000000000E+00 
    0.0000000000000000E+00 
    0.0000000000000000E+00 
    0.0000000000000000E+00 
    0.0000000000000000E+00 
    0.0000000000000000E+00 
    0.0000000000000000E+00 
    0.0000000000000000E+00 
    2.3417754800235769E-12 
    9.3863885637205760E-26 
    4.2911859520650397E-34 
   9.6646566473274982E-116 
   2.3412842680777811E-243 
   1.0107480322386625E-269 
    0.0000000000000000E+00 
    0.0000000000000000E+00 
    0.0000000000000000E+00 
    0.0000000000000000E+00 
    0.0000000000000000E+00 
    0.0000000000000000E+00 
    0.0000000000000000E+00 
    0.0000000000000000E+00 
    0.0000000000000000E+00 
    0.0000000000000000E+00 
    3.6664145909173290E-33 
    1.3855072689722132E-66 
    2.6564761381794217E-68 
   6.7374276403587446E-232 
    0.0000000000000000E+00 
    0.0000000000000000E+00 
    0.0000000000000000E+00 
    0.0000000000000000E+00 
    0.0000000000000000E+00 
    0.0000000000000000E+00 
    0.0000000000000000E+00 
    0.0000000000000000E+00 
    0.0000000000000000E+00 
    0.0000000000000000E+00 
    0.0000000000000000E+00 
    0.0000000000000000E+00 
    2.0426983630561878E-66 
   2.0992129197201830E-133 
   6.1788792452201399E-232 
    0.0000000000000000E+00 
    0.0000000000000000E+00 
    0.0000000000000000E+00 
    0.0000000000000000E+00 
    0.0000000000000000E+00 
    0.0000000000000000E+00 
    0.0000000000000000E+00 
    0.0000000000000000E+00 
    0.0000000000000000E+00 
    0.0000000000000000E+00 
    0.0000000000000000E+00 
    0.0000000000000000E+00 
    0.0000000000000000E+00 
    0.0000000000000000E+00 
    0.0000000000000000E+00 
    0.0000000000000000E+00 
    0.0000000000000000E+00 
    0.0000000000000000E+00 
    0.0000000000000000E+00 
    0.0000000000000000E+00 
    0.0000000000000000E+00 
    0.0000000000000000E+00 
    0.0000000000000000E+00 
    0.0000000000000000E+00 
    0.0000000000000000E+00 
    0.0000000000000000E+00 
    0.0000000000000000E+00 
    0.0000000000000000E+00 
    0.0000000000000000E+00 
    0.0000000000000000E+00 
    0.0000000000000000E+00 
    0.0000000000000000E+00 
    0.0000000000000000E+00 
    0.0000000000000000E+00 
    0.0000000000000000E+00 
    0.0000000000000000E+00 
    0.0000000000000000E+00 
    0.0000000000000000E+00 
    0.0000000000000000E+00 
    0.0000000000000000E+00 
    0.0000000000000000E+00 
    0.0000000000000000E+00 
    0.0000000000000000E+00 
    0.0000000000000000E+00 
    0.0000000000000000E+00 
    0.0000000000000000E+00 
    0.0000000000000000E+00 
    0.0000000000000000E+00 
    0.0000000000000000E+00 
    0.0000000000000000E+00 
    0.0000000000000000E+00 
    0.0000000000000000E+00 
    0.0000000000000000E+00 
    0.0000000000000000E+00 
    0.0000000000000000E+00 
    0.0000000000000000E+00 
    0.0000000000000000E+00 
    0.0000000000000000E+00 
    0.0000000000000000E+00 
    0.0000000000000000E+00 
    0.0000000000000000E+00 
    0.0000000000000000E+00 
    0.0000000000000000E+00 
    0.0000000000000000E+00 
    0.0000000000000000E+00 
    0.0000000000000000E+00 
    0.0000000000000000E+00 
    0.0000000000000000E+00 
    0.0000000000000000E+00 
    0.0000000000000000E+00 
    0.0000000000000000E+00 
    0.0000000000000000E+00 
    0.0000000000000000E+00 
    0.0000000000000000E+00 
    0.0000000000000000E+00 
    0.0000000000000000E+00 
    0.0000000000000000E+00 
    0.0000000000000000E+00 
    0.0000000000000000E+00 
    0.0000000000000000E+00 
    0.0000000000000000E+00 
    0.0000000000000000E+00 
    0.0000000000000000E+00 
    0.0000000000000000E+00 
    0.0000000000000000E+00 
    0.0000000000000000E+00 
    0.0000000000000000E+00 
    0.0000000000000000E+00 
    0.0000000000000000E+00 
    0.0000000000000000E+00 
    0.0000000000000000E+00 
    0.0000000000000000E+00 
    0.0000000000000000E+00 
