# vtk DataFile Version 2.0
Pressure Field Data 
ASCII 
DATASET UNSTRUCTURED_GRID 

POINTS 289 double 

    0.0000000000000000E+00     0.0000000000000000E+00     0.0000000000000000E+00 
    1.0000000000000000E+00     0.0000000000000000E+00     0.0000000000000000E+00 
    1.0000000000000000E+00     1.0000000000000000E+00     0.0000000000000000E+00 
    0.0000000000000000E+00     1.0000000000000000E+00     0.0000000000000000E+00 
    6.2499999999872928E-02     0.0000000000000000E+00     0.0000000000000000E+00 
    1.2499999999977310E-01     0.0000000000000000E+00     0.0000000000000000E+00 
    1.8749999999959341E-01     0.0000000000000000E+00     0.0000000000000000E+00 
    2.4999999999941089E-01     0.0000000000000000E+00     0.0000000000000000E+00 
    3.1249999999922851E-01     0.0000000000000000E+00     0.0000000000000000E+00 
    3.7499999999904610E-01     0.0000000000000000E+00     0.0000000000000000E+00 
    4.3749999999886358E-01     0.0000000000000000E+00     0.0000000000000000E+00 
    4.9999999999869210E-01     0.0000000000000000E+00     0.0000000000000000E+00 
    5.6249999999884603E-01     0.0000000000000000E+00     0.0000000000000000E+00 
    6.2499999999901090E-01     0.0000000000000000E+00     0.0000000000000000E+00 
    6.8749999999917577E-01     0.0000000000000000E+00     0.0000000000000000E+00 
    7.4999999999934064E-01     0.0000000000000000E+00     0.0000000000000000E+00 
    8.1249999999950551E-01     0.0000000000000000E+00     0.0000000000000000E+00 
    8.7499999999967026E-01     0.0000000000000000E+00     0.0000000000000000E+00 
    9.3749999999983513E-01     0.0000000000000000E+00     0.0000000000000000E+00 
    1.0000000000000000E+00     6.2499999999872928E-02     0.0000000000000000E+00 
    1.0000000000000000E+00     1.2499999999977310E-01     0.0000000000000000E+00 
    1.0000000000000000E+00     1.8749999999959341E-01     0.0000000000000000E+00 
    1.0000000000000000E+00     2.4999999999941089E-01     0.0000000000000000E+00 
    1.0000000000000000E+00     3.1249999999922851E-01     0.0000000000000000E+00 
    1.0000000000000000E+00     3.7499999999904610E-01     0.0000000000000000E+00 
    1.0000000000000000E+00     4.3749999999886358E-01     0.0000000000000000E+00 
    1.0000000000000000E+00     4.9999999999869210E-01     0.0000000000000000E+00 
    1.0000000000000000E+00     5.6249999999884603E-01     0.0000000000000000E+00 
    1.0000000000000000E+00     6.2499999999901090E-01     0.0000000000000000E+00 
    1.0000000000000000E+00     6.8749999999917577E-01     0.0000000000000000E+00 
    1.0000000000000000E+00     7.4999999999934064E-01     0.0000000000000000E+00 
    1.0000000000000000E+00     8.1249999999950551E-01     0.0000000000000000E+00 
    1.0000000000000000E+00     8.7499999999967026E-01     0.0000000000000000E+00 
    1.0000000000000000E+00     9.3749999999983513E-01     0.0000000000000000E+00 
    9.3749999999973976E-01     1.0000000000000000E+00     0.0000000000000000E+00 
    8.7499999999950118E-01     1.0000000000000000E+00     0.0000000000000000E+00 
    8.1249999999991318E-01     1.0000000000000000E+00     0.0000000000000000E+00 
    7.5000000000034706E-01     1.0000000000000000E+00     0.0000000000000000E+00 
    6.8750000000078049E-01     1.0000000000000000E+00     0.0000000000000000E+00 
    6.2500000000121403E-01     1.0000000000000000E+00     0.0000000000000000E+00 
    5.6250000000164757E-01     1.0000000000000000E+00     0.0000000000000000E+00 
    5.0000000000205946E-01     1.0000000000000000E+00     0.0000000000000000E+00 
    4.3750000000182099E-01     1.0000000000000000E+00     0.0000000000000000E+00 
    3.7500000000156092E-01     1.0000000000000000E+00     0.0000000000000000E+00 
    3.1250000000130068E-01     1.0000000000000000E+00     0.0000000000000000E+00 
    2.5000000000104050E-01     1.0000000000000000E+00     0.0000000000000000E+00 
    1.8750000000078040E-01     1.0000000000000000E+00     0.0000000000000000E+00 
    1.2500000000052031E-01     1.0000000000000000E+00     0.0000000000000000E+00 
    6.2500000000260125E-02     1.0000000000000000E+00     0.0000000000000000E+00 
    0.0000000000000000E+00     9.3749999999973976E-01     0.0000000000000000E+00 
    0.0000000000000000E+00     8.7499999999950118E-01     0.0000000000000000E+00 
    0.0000000000000000E+00     8.1249999999991318E-01     0.0000000000000000E+00 
    0.0000000000000000E+00     7.5000000000034706E-01     0.0000000000000000E+00 
    0.0000000000000000E+00     6.8750000000078049E-01     0.0000000000000000E+00 
    0.0000000000000000E+00     6.2500000000121403E-01     0.0000000000000000E+00 
    0.0000000000000000E+00     5.6250000000164757E-01     0.0000000000000000E+00 
    0.0000000000000000E+00     5.0000000000205946E-01     0.0000000000000000E+00 
    0.0000000000000000E+00     4.3750000000182099E-01     0.0000000000000000E+00 
    0.0000000000000000E+00     3.7500000000156092E-01     0.0000000000000000E+00 
    0.0000000000000000E+00     3.1250000000130068E-01     0.0000000000000000E+00 
    0.0000000000000000E+00     2.5000000000104050E-01     0.0000000000000000E+00 
    0.0000000000000000E+00     1.8750000000078040E-01     0.0000000000000000E+00 
    0.0000000000000000E+00     1.2500000000052031E-01     0.0000000000000000E+00 
    0.0000000000000000E+00     6.2500000000260125E-02     0.0000000000000000E+00 
    6.2499999999897131E-02     6.2500000000235922E-02     0.0000000000000000E+00 
    6.2499999999921327E-02     1.2500000000047351E-01     0.0000000000000000E+00 
    6.2499999999945530E-02     1.8750000000070621E-01     0.0000000000000000E+00 
    6.2499999999969733E-02     2.5000000000093858E-01     0.0000000000000000E+00 
    6.2499999999993928E-02     3.1250000000117117E-01     0.0000000000000000E+00 
    6.2500000000018124E-02     3.7500000000140382E-01     0.0000000000000000E+00 
    6.2500000000042327E-02     4.3750000000163619E-01     0.0000000000000000E+00 
    6.2500000000066530E-02     5.0000000000184897E-01     0.0000000000000000E+00 
    6.2500000000090733E-02     5.6250000000147260E-01     0.0000000000000000E+00 
    6.2500000000114922E-02     6.2500000000107636E-01     0.0000000000000000E+00 
    6.2500000000139125E-02     6.8750000000068034E-01     0.0000000000000000E+00 
    6.2500000000163328E-02     7.5000000000028411E-01     0.0000000000000000E+00 
    6.2500000000187531E-02     8.1249999999988787E-01     0.0000000000000000E+00 
    6.2500000000211720E-02     8.7499999999951172E-01     0.0000000000000000E+00 
    6.2500000000235922E-02     9.3749999999974565E-01     0.0000000000000000E+00 
    1.2499999999981980E-01     6.2500000000211733E-02     0.0000000000000000E+00 
    1.2499999999986650E-01     1.2500000000042691E-01     0.0000000000000000E+00 
    1.2499999999991319E-01     1.8750000000063199E-01     0.0000000000000000E+00 
    1.2499999999995989E-01     2.5000000000083678E-01     0.0000000000000000E+00 
    1.2500000000000661E-01     3.1250000000104172E-01     0.0000000000000000E+00 
    1.2500000000005329E-01     3.7500000000124661E-01     0.0000000000000000E+00 
    1.2500000000010000E-01     4.3750000000145117E-01     0.0000000000000000E+00 
    1.2500000000014669E-01     5.0000000000163858E-01     0.0000000000000000E+00 
    1.2500000000019340E-01     5.6250000000129741E-01     0.0000000000000000E+00 
    1.2500000000024011E-01     6.2500000000093847E-01     0.0000000000000000E+00 
    1.2500000000028680E-01     6.8750000000057998E-01     0.0000000000000000E+00 
    1.2500000000033351E-01     7.5000000000022127E-01     0.0000000000000000E+00 
    1.2500000000038020E-01     8.1249999999986211E-01     0.0000000000000000E+00 
    1.2500000000042691E-01     8.7499999999952238E-01     0.0000000000000000E+00 
    1.2500000000047359E-01     9.3749999999975164E-01     0.0000000000000000E+00 
    1.8749999999966760E-01     6.2500000000187531E-02     0.0000000000000000E+00 
    1.8749999999974179E-01     1.2500000000038020E-01     0.0000000000000000E+00 
    1.8749999999981601E-01     1.8750000000055780E-01     0.0000000000000000E+00 
    1.8749999999989009E-01     2.5000000000073502E-01     0.0000000000000000E+00 
    1.8749999999996431E-01     3.1250000000091221E-01     0.0000000000000000E+00 
    1.8750000000003850E-01     3.7500000000108941E-01     0.0000000000000000E+00 
    1.8750000000011269E-01     4.3750000000126649E-01     0.0000000000000000E+00 
    1.8750000000018691E-01     5.0000000000142808E-01     0.0000000000000000E+00 
    1.8750000000026110E-01     5.6250000000112244E-01     0.0000000000000000E+00 
    1.8750000000033529E-01     6.2500000000080080E-01     0.0000000000000000E+00 
    1.8750000000040951E-01     6.8750000000047962E-01     0.0000000000000000E+00 
    1.8750000000048361E-01     7.5000000000015843E-01     0.0000000000000000E+00 
    1.8750000000055780E-01     8.1249999999983680E-01     0.0000000000000000E+00 
    1.8750000000063199E-01     8.7499999999953304E-01     0.0000000000000000E+00 
    1.8750000000070621E-01     9.3749999999975764E-01     0.0000000000000000E+00 
    2.4999999999951281E-01     6.2500000000163314E-02     0.0000000000000000E+00 
    2.4999999999961461E-01     1.2500000000033351E-01     0.0000000000000000E+00 
    2.4999999999971650E-01     1.8750000000048361E-01     0.0000000000000000E+00 
    2.4999999999981831E-01     2.5000000000063310E-01     0.0000000000000000E+00 
    2.4999999999992020E-01     3.1250000000078260E-01     0.0000000000000000E+00 
    2.5000000000002198E-01     3.7500000000093209E-01     0.0000000000000000E+00 
    2.5000000000012390E-01     4.3750000000108180E-01     0.0000000000000000E+00 
    2.5000000000022571E-01     5.0000000000121769E-01     0.0000000000000000E+00 
    2.5000000000032763E-01     5.6250000000094724E-01     0.0000000000000000E+00 
    2.5000000000042938E-01     6.2500000000066314E-01     0.0000000000000000E+00 
    2.5000000000053119E-01     6.8750000000037925E-01     0.0000000000000000E+00 
[...]
CELL_DATA 256 
SCALARS Pressure double 1 
LOOKUP_TABLE default 

    2.4473974923730317E+00 
    2.3390345208949994E+00 
    2.2663702332490940E+00 
    2.2104604438565252E+00 
    2.1634383491274027E+00 
    2.1218552197814002E+00 
    2.0841076263434126E+00 
    2.0494550074580333E+00 
    2.0176147912419466E+00 
    1.9885657993420101E+00 
    1.9624245631454804E+00 
    1.9393180667458043E+00 
    1.9191700890510603E+00 
    1.9014825126212112E+00 
    1.8873675357123640E+00 
    1.8802316613608940E+00 
    2.3390345208955838E+00 
    2.2929727091404177E+00 
    2.2426310234341651E+00 
    2.1958593624284655E+00 
    2.1530992636271300E+00 
    2.1137048501400275E+00 
    2.0771347837423870E+00 
    2.0431042839022058E+00 
    2.0115529239596293E+00 
    1.9825809890012063E+00 
    1.9563808832689957E+00 
    1.9331339744385216E+00 
    1.9128000294097725E+00 
    1.8948783549359476E+00 
    1.8805762900259377E+00 
    1.8733579556979127E+00 
    2.2663702332499409E+00 
    2.2426310234345772E+00 
    2.2085860313437005E+00 
    2.1715580936145700E+00 
    2.1344651548828972E+00 
    2.0983720164151780E+00 
    2.0636989433040105E+00 
    2.0306916278451426E+00 
    1.9995949504330288E+00 
    1.9706977375981538E+00 
    1.9443222315302093E+00 
    1.9207487051860779E+00 
    1.9000096597367575E+00 
    1.8816169865641670E+00 
    1.8669373913183342E+00 
    1.8595421237837366E+00 
    2.2104604438575683E+00 
    2.1958593624291716E+00 
    2.1715580936149070E+00 
    2.1420510476629095E+00 
    2.1101350708355784E+00 
    2.0773910408191942E+00 
    2.0447449538650058E+00 
    2.0128199492651762E+00 
    1.9821271389891195E+00 
    1.9531496156003696E+00 
    1.9263636265430535E+00 
    1.9021811870059562E+00 
    1.8807391627289383E+00 
    1.8616006188680665E+00 
    1.8463188801537507E+00 
    1.8386193559202515E+00 
    2.1634383491286160E+00 
    2.1530992636280577E+00 
    2.1344651548834972E+00 
    2.1101350708358613E+00 
    2.0822303749990931E+00 
    2.0522706457072699E+00 
    2.0213325140956213E+00 
    1.9902324527871256E+00 
    1.9596629113271233E+00 
    1.9302713593786778E+00 
    1.9026893597042740E+00 
    1.8774825768772698E+00 
    1.8549209059563212E+00 
    1.8346639468773049E+00 
    1.8184552304015382E+00 
    1.8102670799174896E+00 
    2.1218552197827640E+00 
    2.1137048501411311E+00 
    2.0983720164159871E+00 
    2.0773910408197107E+00 
    2.0522706457075146E+00 
    2.0242852002057012E+00 
    1.9944719888755247E+00 
    1.9637046308614836E+00 
    1.9327750478449923E+00 
    1.9024534386746659E+00 
    1.8735164297697744E+00 
    1.8466973157710980E+00 
    1.8224389655666287E+00 
    1.8005314685687377E+00 
    1.7829201629753466E+00 
    1.7739820610478987E+00 
    2.0841076263449079E+00 
    2.0771347837436349E+00 
    2.0636989433049906E+00 
    2.0447449538657185E+00 
    2.0213325140960801E+00 
    1.9944719888757467E+00 
    1.9650797003282119E+00 
    1.9340009186151101E+00 
    1.9020607854193794E+00 
    1.8701099072657896E+00 
    1.8390545304067303E+00 
    1.8098099503139695E+00 
    1.7830475652717961E+00 
    1.7587473120632195E+00 
    1.7390902914519815E+00 
    1.7290393819485352E+00 
    2.0494550074596325E+00 
    2.0431042839035674E+00 
    2.0306916278462572E+00 
    2.0128199492660483E+00 
    1.9902324527877673E+00 
    1.9637046308619068E+00 
    1.9340009186153231E+00 
    1.9018846840809889E+00 
    1.8681589246440635E+00 
    1.8337100282152057E+00 
    1.7995492337338364E+00 
    1.7667869430168797E+00 
    1.7363851743310230E+00 
    1.7086350523127278E+00 
    1.6860054704553022E+00 
    1.6743120916083005E+00 
    2.0176147912433491E+00 
    2.0115529239608412E+00 
    1.9995949504340544E+00 
    1.9821271389899682E+00 
    1.9596629113278072E+00 
    1.9327750478455212E+00 
    1.9020607854197551E+00 
    1.8681589246442747E+00 
    1.8317955346575581E+00 
    1.7938370611006043E+00 
    1.7553544242710080E+00 
    1.7176463384177256E+00 
    1.6820232973511511E+00 
    1.6492533262996991E+00 
    1.6221937366634158E+00 
    1.6080286428228114E+00 
    1.9885657993430326E+00 
    1.9825809890021036E+00 
    1.9706977375989412E+00 
    1.9531496156010659E+00 
    1.9302713593792993E+00 
    1.9024534386752259E+00 
    1.8701099072662930E+00 
    1.8337100282156427E+00 
    1.7938370611008856E+00 
    1.7512557509808500E+00 
    1.7070101378875151E+00 
    1.6625281342321290E+00 
    1.6194984033415862E+00 
    1.5793383526069540E+00 
    1.5455383509086453E+00 
    1.5275369649391768E+00 
    1.9624245631461625E+00 
    1.9563808832696090E+00 
    1.9443222315307789E+00 
    1.9263636265436099E+00 
    1.9026893597048433E+00 
    1.8735164297703781E+00 
    1.8390545304073844E+00 
    1.7995492337345429E+00 
    1.7553544242716403E+00 
    1.7070101378878837E+00 
    1.6553736129917020E+00 
    1.6018395587141523E+00 
    1.5483974668116058E+00 
    1.4972596847352975E+00 
    1.4530309410692970E+00 
    1.4287344661366559E+00 
    1.9393180667461933E+00 
    1.9331339744388896E+00 
    1.9207487051864609E+00 
    1.9021811870063978E+00 
    1.8774825768778078E+00 
    1.8466973157717692E+00 
    1.8098099503148082E+00 
    1.7667869430179095E+00 
    1.7176463384187883E+00 
    1.6625281342329645E+00 
    1.6018395587146401E+00 
    1.5365913378373246E+00 
    1.4687173327401015E+00 
    1.4011311740433710E+00 
    1.3401357349837066E+00 
    1.3044382547045439E+00 
    1.9191700890512060E+00 
    1.9128000294099372E+00 
    1.9000096597369880E+00 
    1.8807391627292931E+00 
    1.8549209059568537E+00 
    1.8224389655673952E+00 
    1.7830475652728550E+00 
    1.7363851743324314E+00 
    1.6820232973527256E+00 
    1.6194984033429900E+00 
    1.5483974668127112E+00 
    1.4687173327407537E+00 
    1.3814276822906975E+00 
    1.2892351579327017E+00 
    1.2000287785613886E+00 
    1.1412066548155770E+00 
    1.9014825126211645E+00 
    1.8948783549359531E+00 
    1.8816169865642847E+00 
    1.8616006188683691E+00 
    1.8346639468778627E+00 
    1.8005314685696290E+00 
    1.7587473120645327E+00 
    1.7086350523145599E+00 
    1.6492533263018474E+00 
    1.5793383526090039E+00 
    1.4972596847371249E+00 
    1.4011311740448225E+00 
    1.2892351579335606E+00 
    1.1612337395208856E+00 
    1.0233433893923223E+00 
    9.1364772887684975E-01 
    1.8873675357122810E+00 
    1.8805762900259233E+00 
    1.8669373913184597E+00 
    1.8463188801541044E+00 
    1.8184552304022108E+00 
    1.7829201629764391E+00 
    1.7390902914536128E+00 
    1.6860054704576095E+00 
    1.6221937366661696E+00 
    1.5455383509113412E+00 
    1.4530309410717976E+00 
    1.3401357349858449E+00 
    1.2000287785629085E+00 
    1.0233433893928381E+00 
    8.0164537878435249E-01 
    5.6931061734323640E-01 
    1.8802316613608301E+00 
    1.8733579556979272E+00 
    1.8595421237839125E+00 
    1.8386193559206934E+00 
    1.8102670799183054E+00 
    1.7739820610492112E+00 
    1.7290393819504899E+00 
    1.6743120916110688E+00 
    1.6080286428261319E+00 
    1.5275369649424577E+00 
    1.4287344661397494E+00 
    1.3044382547072726E+00 
    1.1412066548176203E+00 
    9.1364772887750190E-01 
    5.6931061734249011E-01 
    0.0000000000000000E+00 

SCALARS Saturarion double 1 
LOOKUP_TABLE default 

    1.0000000000000000E+00 
    9.4329875947324549E-01 
    8.9562628827066837E-01 
    8.4687909972889941E-01 
    7.9898633776683459E-01 
    7.5328576147221116E-01 
    7.0964736893623304E-01 
    6.6775606952248168E-01 
    6.2674337679981096E-01 
    5.8577043903894499E-01 
    5.4284751148940602E-01 
    4.9424036833936297E-01 
    4.2898282988109049E-01 
    3.1811582963263080E-01 
    1.1186586133822037E-01 
    2.9818114845445430E-03 
    9.4329875947355157E-01 
    9.0663013752605237E-01 
    8.6523608255246387E-01 
    8.2226475531708532E-01 
    7.7925134002560026E-01 
    7.3751270175391181E-01 
    6.9705927212864094E-01 
    6.5779063179754627E-01 
    6.1894466795481806E-01 
    5.7972991920603034E-01 
    5.3823374611861241E-01 
    4.9074374725946268E-01 
    4.2604337747259768E-01 
    3.1386515394032372E-01 
    1.0556472460588176E-01 
    2.4977940928084066E-03 
    8.9562628827130808E-01 
    8.6523608255277229E-01 
    8.2974186153156726E-01 
    7.9250417494527969E-01 
    7.5472574721390029E-01 
    7.1745013392954482E-01 
    6.8080511596304183E-01 
    6.4482286000786759E-01 
    6.0884648564043453E-01 
    5.7197715049306264E-01 
    5.3243833507111693E-01 
    4.8651098649573860E-01 
    4.2288409833262675E-01 
    3.0928167597714390E-01 
    9.8978602054721213E-02 
    2.0571013014511683E-03 
    8.4687909972984710E-01 
    8.2226475531772147E-01 
    7.9250417494559955E-01 
    7.6068395008846912E-01 
    7.2802094424445085E-01 
    6.9536181008374387E-01 
    6.6285011832067409E-01 
    6.3040732156020740E-01 
    5.9755478652338068E-01 
    5.6337755374604914E-01 
    5.2620633361488556E-01 
    4.8203523653106772E-01 
    4.1995763986585838E-01 
    3.0433474418462314E-01 
    9.2467067248232976E-02 
    1.6874008221810669E-03 
    7.9898633776813466E-01 
    7.7925134002642704E-01 
    7.5472574721450147E-01 
    7.2802094424467334E-01 
    7.0023346096333827E-01 
    6.7203425035714548E-01 
    6.4357653368633838E-01 
    6.1490034210237621E-01 
    5.8543890649908448E-01 
    5.5446284867394691E-01 
    5.2013334723924320E-01 
    4.7870462602021474E-01 
    4.1804945022411455E-01 
    3.0503550884295350E-01 
    9.5506419675594673E-02 
    1.8935373637302732E-03 
    7.5328576147360682E-01 
    7.3751270175487449E-01 
    7.1745013393028623E-01 
    6.9536181008424169E-01 
    6.7203425035735265E-01 
    6.4816184856437620E-01 
    6.2368578677956521E-01 
    5.9874779514468468E-01 
    5.7270513788727373E-01 
    5.4498753019683699E-01 
    5.1369680496668935E-01 
    4.7510276782204369E-01 
    4.1683925874853084E-01 
    3.0565264207454113E-01 
    9.6341544272340041E-02 
    1.9129330283342949E-03 
    7.0964736893782498E-01 
    6.9705927212992491E-01 
    6.8080511596401838E-01 
    6.6285011832136775E-01 
    6.4357653368674839E-01 
    6.2368578677972375E-01 
    6.0305646964612780E-01 
    5.8185539295233379E-01 
    5.5939843034065218E-01 
    5.3504567392076419E-01 
    5.0700211405739037E-01 
    4.7153641190411977E-01 
    4.1649934719792858E-01 
    3.0759243267547809E-01 
    9.9565091018386426E-02 
    2.1247663661718252E-03 
    6.6775606952429656E-01 
    6.5779063179906538E-01 
    6.4482286000905920E-01 
    6.3040732156106549E-01 
    6.1490034210294320E-01 
    5.9874779514502430E-01 
    5.8185539295249600E-01 
    5.6429135172903444E-01 
    5.4549054219203941E-01 
    5.2470378115831917E-01 
    5.0021374004081076E-01 
    4.6816580231560045E-01 
    4.1725418800416847E-01 
    3.1145228520408752E-01 
    1.0721317758885941E-01 
    2.7166940398084642E-03 
    6.2674337680123604E-01 
    6.1894466795606451E-01 
    6.0884648564141663E-01 
    5.9755478652411020E-01 
    5.8543890649960872E-01 
    5.7270513788762378E-01 
    5.5939843034084169E-01 
    5.4549054219212079E-01 
    5.3051243410684057E-01 
    5.1361032878640178E-01 
    4.9317121420658494E-01 
    4.6553805498656847E-01 
    4.1941719257020055E-01 
    3.2177819578167793E-01 
    1.2968225103780873E-01 
    5.2684762063498151E-03 
    5.8577043904009218E-01 
    5.7972991920700367E-01 
    5.7197715049383580E-01 
    5.6337755374663434E-01 
    5.5446284867439699E-01 
    5.4498753019712332E-01 
    5.3504567392093783E-01 
    5.2470378115841843E-01 
    5.1361032878643775E-01 
    5.0084464768602843E-01 
    4.8486196458141573E-01 
    4.6226982209374012E-01 
    4.2252257365389656E-01 
    3.3482147889228103E-01 
    1.5744677455677186E-01 
    1.0097848439781646E-02 
    5.4284751149023847E-01 
    5.3823374611931696E-01 
    5.3243833507167437E-01 
    5.2620633361531821E-01 
    5.2013334723956872E-01 
    5.1369680496690329E-01 
    5.0700211405751905E-01 
    5.0021374004087660E-01 
    4.9317121420657772E-01 
    4.8486196458138342E-01 
    4.7388264247600409E-01 
    4.5719430599550159E-01 
    4.2540800766156395E-01 
    3.5047093403461521E-01 
    1.9187223515081309E-01 
    2.0942534860455032E-02 
    4.9424036833990098E-01 
    4.9074374725989689E-01 
    4.8651098649608288E-01 
    4.8203523653131308E-01 
    4.7870462602038366E-01 
    4.7510276782213601E-01 
    4.7153641190414064E-01 
    4.6816580231556187E-01 
    4.6553805498646877E-01 
    4.6226982209361012E-01 
    4.5719430599540795E-01 
    4.4766063753753788E-01 
    4.2559609124958991E-01 
    3.6658069454235487E-01 
    2.3090708930939918E-01 
    4.4234745322580482E-02 
    4.2898282988126452E-01 
    4.2604337747272036E-01 
    4.2288409833268903E-01 
    4.1995763986586565E-01 
    4.1804945022405859E-01 
    4.1683925874840599E-01 
    4.1649934719774029E-01 
    4.1725418800390018E-01 
    4.1941719256986026E-01 
    4.2252257365353746E-01 
    4.2540800766124881E-01 
    4.2559609124939674E-01 
    4.1643882007350796E-01 
    3.7795206721416547E-01 
    2.7131955637508970E-01 
    8.8628049169888229E-02 
    3.1811582963228713E-01 
    3.1386515393997760E-01 
    3.0928167597678397E-01 
    3.0433474418424078E-01 
    3.0503550884252595E-01 
    3.0565264207403992E-01 
    3.0759243267486946E-01 
    3.1145228520333357E-01 
    3.2177819578082412E-01 
    3.3482147889141051E-01 
    3.5047093403382834E-01 
    3.6658069454175607E-01 
    3.7795206721385188E-01 
    3.6835361126895549E-01 
    3.0136136703968019E-01 
    1.4697265069613652E-01 
    1.1186586133829866E-01 
    1.0556472460591690E-01 
    9.8978602054720741E-02 
    9.2467067248159368E-02 
    9.5506419675401494E-02 
    9.6341544271975194E-02 
    9.9565091017758608E-02 
    1.0721317758787949E-01 
    1.2968225103642197E-01 
    1.5744677455511863E-01 
    1.9187223514917925E-01 
    2.3090708930801362E-01 
    2.7131955637410587E-01 
    3.0136136703914140E-01 
    2.9216806848848997E-01 
    1.9497017960263979E-01 
    2.9818114845585378E-03 
    2.4977940928170737E-03 
    2.0571013014558616E-03 
    1.6874008221802930E-03 
    1.8935373637216837E-03 
    1.9129330283143039E-03 
    2.1247663661317284E-03 
    2.7166940397303249E-03 
    5.2684762061486808E-03 
    1.0097848439379010E-02 
    2.0942534859720065E-02 
    4.4234745321423206E-02 
    8.8628049168548773E-02 
    1.4697265069516444E-01 
    1.9497017960214022E-01 
    1.6550564309171112E-01 
