# vtk DataFile Version 2.0
Pressure Field Data 
ASCII 
DATASET UNSTRUCTURED_GRID 

POINTS 289 double 

    0.0000000000000000E+00     0.0000000000000000E+00     0.0000000000000000E+00 
    1.0000000000000000E+00     0.0000000000000000E+00     0.0000000000000000E+00 
    1.0000000000000000E+00     1.0000000000000000E+00     0.0000000000000000E+00 
    0.0000000000000000E+00     1.0000000000000000E+00     0.0000000000000000E+00 
    6.2499999999872928E-02     0.0000000000000000E+00     0.0000000000000000E+00 
    1.2499999999977310E-01     0.0000000000000000E+00     0.0000000000000000E+00 
    1.8749999999959341E-01     0.0000000000000000E+00     0.0000000000000000E+00 
    2.4999999999941089E-01     0.0000000000000000E+00     0.0000000000000000E+00 
    3.1249999999922851E-01     0.0000000000000000E+00     0.0000000000000000E+00 
    3.7499999999904610E-01     0.0000000000000000E+00     0.0000000000000000E+00 
    4.3749999999886358E-01     0.0000000000000000E+00     0.0000000000000000E+00 
    4.9999999999869210E-01     0.0000000000000000E+00     0.0000000000000000E+00 
    5.6249999999884603E-01     0.0000000000000000E+00     0.0000000000000000E+00 
    6.2499999999901090E-01     0.0000000000000000E+00     0.0000000000000000E+00 
    6.8749999999917577E-01     0.0000000000000000E+00     0.0000000000000000E+00 
    7.4999999999934064E-01     0.0000000000000000E+00     0.0000000000000000E+00 
    8.1249999999950551E-01     0.0000000000000000E+00     0.0000000000000000E+00 
    8.7499999999967026E-01     0.0000000000000000E+00     0.0000000000000000E+00 
    9.3749999999983513E-01     0.0000000000000000E+00     0.0000000000000000E+00 
    1.0000000000000000E+00     6.2499999999872928E-02     0.0000000000000000E+00 
    1.0000000000000000E+00     1.2499999999977310E-01     0.0000000000000000E+00 
    1.0000000000000000E+00     1.8749999999959341E-01     0.0000000000000000E+00 
    1.0000000000000000E+00     2.4999999999941089E-01     0.0000000000000000E+00 
    1.0000000000000000E+00     3.1249999999922851E-01     0.0000000000000000E+00 
    1.0000000000000000E+00     3.7499999999904610E-01     0.0000000000000000E+00 
    1.0000000000000000E+00     4.3749999999886358E-01     0.0000000000000000E+00 
    1.0000000000000000E+00     4.9999999999869210E-01     0.0000000000000000E+00 
    1.0000000000000000E+00     5.6249999999884603E-01     0.0000000000000000E+00 
    1.0000000000000000E+00     6.2499999999901090E-01     0.0000000000000000E+00 
    1.0000000000000000E+00     6.8749999999917577E-01     0.0000000000000000E+00 
    1.0000000000000000E+00     7.4999999999934064E-01     0.0000000000000000E+00 
    1.0000000000000000E+00     8.1249999999950551E-01     0.0000000000000000E+00 
    1.0000000000000000E+00     8.7499999999967026E-01     0.0000000000000000E+00 
    1.0000000000000000E+00     9.3749999999983513E-01     0.0000000000000000E+00 
    9.3749999999973976E-01     1.0000000000000000E+00     0.0000000000000000E+00 
    8.7499999999950118E-01     1.0000000000000000E+00     0.0000000000000000E+00 
    8.1249999999991318E-01     1.0000000000000000E+00     0.0000000000000000E+00 
    7.5000000000034706E-01     1.0000000000000000E+00     0.0000000000000000E+00 
    6.8750000000078049E-01     1.0000000000000000E+00     0.0000000000000000E+00 
    6.2500000000121403E-01     1.0000000000000000E+00     0.0000000000000000E+00 
    5.6250000000164757E-01     1.0000000000000000E+00     0.0000000000000000E+00 
    5.0000000000205946E-01     1.0000000000000000E+00     0.0000000000000000E+00 
    4.3750000000182099E-01     1.0000000000000000E+00     0.0000000000000000E+00 
    3.7500000000156092E-01     1.0000000000000000E+00     0.0000000000000000E+00 
    3.1250000000130068E-01     1.0000000000000000E+00     0.0000000000000000E+00 
    2.5000000000104050E-01     1.0000000000000000E+00     0.0000000000000000E+00 
    1.8750000000078040E-01     1.0000000000000000E+00     0.0000000000000000E+00 
    1.2500000000052031E-01     1.0000000000000000E+00     0.0000000000000000E+00 
    6.2500000000260125E-02     1.0000000000000000E+00     0.0000000000000000E+00 
    0.0000000000000000E+00     9.3749999999973976E-01     0.0000000000000000E+00 
    0.0000000000000000E+00     8.7499999999950118E-01     0.0000000000000000E+00 
    0.0000000000000000E+00     8.1249999999991318E-01     0.0000000000000000E+00 
    0.0000000000000000E+00     7.5000000000034706E-01     0.0000000000000000E+00 
    0.0000000000000000E+00     6.8750000000078049E-01     0.0000000000000000E+00 
    0.0000000000000000E+00     6.2500000000121403E-01     0.0000000000000000E+00 
    0.0000000000000000E+00     5.6250000000164757E-01     0.0000000000000000E+00 
    0.0000000000000000E+00     5.0000000000205946E-01     0.0000000000000000E+00 
    0.0000000000000000E+00     4.3750000000182099E-01     0.0000000000000000E+00 
    0.0000000000000000E+00     3.7500000000156092E-01     0.0000000000000000E+00 
    0.0000000000000000E+00     3.1250000000130068E-01     0.0000000000000000E+00 
    0.0000000000000000E+00     2.5000000000104050E-01     0.0000000000000000E+00 
    0.0000000000000000E+00     1.8750000000078040E-01     0.0000000000000000E+00 
    0.0000000000000000E+00     1.2500000000052031E-01     0.0000000000000000E+00 
    0.0000000000000000E+00     6.2500000000260125E-02     0.0000000000000000E+00 
    6.2499999999897131E-02     6.2500000000235922E-02     0.0000000000000000E+00 
    6.2499999999921327E-02     1.2500000000047351E-01     0.0000000000000000E+00 
    6.2499999999945530E-02     1.8750000000070621E-01     0.0000000000000000E+00 
    6.2499999999969733E-02     2.5000000000093858E-01     0.0000000000000000E+00 
    6.2499999999993928E-02     3.1250000000117117E-01     0.0000000000000000E+00 
    6.2500000000018124E-02     3.7500000000140382E-01     0.0000000000000000E+00 
    6.2500000000042327E-02     4.3750000000163619E-01     0.0000000000000000E+00 
    6.2500000000066530E-02     5.0000000000184897E-01     0.0000000000000000E+00 
    6.2500000000090733E-02     5.6250000000147260E-01     0.0000000000000000E+00 
    6.2500000000114922E-02     6.2500000000107636E-01     0.0000000000000000E+00 
    6.2500000000139125E-02     6.8750000000068034E-01     0.0000000000000000E+00 
    6.2500000000163328E-02     7.5000000000028411E-01     0.0000000000000000E+00 
    6.2500000000187531E-02     8.1249999999988787E-01     0.0000000000000000E+00 
    6.2500000000211720E-02     8.7499999999951172E-01     0.0000000000000000E+00 
    6.2500000000235922E-02     9.3749999999974565E-01     0.0000000000000000E+00 
    1.2499999999981980E-01     6.2500000000211733E-02     0.0000000000000000E+00 
    1.2499999999986650E-01     1.2500000000042691E-01     0.0000000000000000E+00 
    1.2499999999991319E-01     1.8750000000063199E-01     0.0000000000000000E+00 
    1.2499999999995989E-01     2.5000000000083678E-01     0.0000000000000000E+00 
    1.2500000000000661E-01     3.1250000000104172E-01     0.0000000000000000E+00 
    1.2500000000005329E-01     3.7500000000124661E-01     0.0000000000000000E+00 
    1.2500000000010000E-01     4.3750000000145117E-01     0.0000000000000000E+00 
    1.2500000000014669E-01     5.0000000000163858E-01     0.0000000000000000E+00 
    1.2500000000019340E-01     5.6250000000129741E-01     0.0000000000000000E+00 
    1.2500000000024011E-01     6.2500000000093847E-01     0.0000000000000000E+00 
    1.2500000000028680E-01     6.8750000000057998E-01     0.0000000000000000E+00 
    1.2500000000033351E-01     7.5000000000022127E-01     0.0000000000000000E+00 
    1.2500000000038020E-01     8.1249999999986211E-01     0.0000000000000000E+00 
    1.2500000000042691E-01     8.7499999999952238E-01     0.0000000000000000E+00 
    1.2500000000047359E-01     9.3749999999975164E-01     0.0000000000000000E+00 
    1.8749999999966760E-01     6.2500000000187531E-02     0.0000000000000000E+00 
    1.8749999999974179E-01     1.2500000000038020E-01     0.0000000000000000E+00 
    1.8749999999981601E-01     1.8750000000055780E-01     0.0000000000000000E+00 
    1.8749999999989009E-01     2.5000000000073502E-01     0.0000000000000000E+00 
    1.8749999999996431E-01     3.1250000000091221E-01     0.0000000000000000E+00 
    1.8750000000003850E-01     3.7500000000108941E-01     0.0000000000000000E+00 
    1.8750000000011269E-01     4.3750000000126649E-01     0.0000000000000000E+00 
    1.8750000000018691E-01     5.0000000000142808E-01     0.0000000000000000E+00 
    1.8750000000026110E-01     5.6250000000112244E-01     0.0000000000000000E+00 
    1.8750000000033529E-01     6.2500000000080080E-01     0.0000000000000000E+00 
    1.8750000000040951E-01     6.8750000000047962E-01     0.0000000000000000E+00 
    1.8750000000048361E-01     7.5000000000015843E-01     0.0000000000000000E+00 
    1.8750000000055780E-01     8.1249999999983680E-01     0.0000000000000000E+00 
    1.8750000000063199E-01     8.7499999999953304E-01     0.0000000000000000E+00 
    1.8750000000070621E-01     9.3749999999975764E-01     0.0000000000000000E+00 
    2.4999999999951281E-01     6.2500000000163314E-02     0.0000000000000000E+00 
    2.4999999999961461E-01     1.2500000000033351E-01     0.0000000000000000E+00 
    2.4999999999971650E-01     1.8750000000048361E-01     0.0000000000000000E+00 
    2.4999999999981831E-01     2.5000000000063310E-01     0.0000000000000000E+00 
    2.4999999999992020E-01     3.1250000000078260E-01     0.0000000000000000E+00 
    2.5000000000002198E-01     3.7500000000093209E-01     0.0000000000000000E+00 
    2.5000000000012390E-01     4.3750000000108180E-01     0.0000000000000000E+00 
    2.5000000000022571E-01     5.0000000000121769E-01     0.0000000000000000E+00 
    2.5000000000032763E-01     5.6250000000094724E-01     0.0000000000000000E+00 
    2.5000000000042938E-01     6.2500000000066314E-01     0.0000000000000000E+00 
    2.5000000000053119E-01     6.8750000000037925E-01     0.0000000000000000E+00 
[...]
CELL_DATA 256 
SCALARS Pressure double 1 
LOOKUP_TABLE default 

    1.6984049023045762E+00 
    1.5935517241913677E+00 
    1.5260403783000307E+00 
    1.4759846386487410E+00 
    1.4352947870398722E+00 
    1.4003660001741629E+00 
    1.3694578354435671E+00 
    1.3417053571395969E+00 
    1.3167068341835526E+00 
    1.2943302940871306E+00 
    1.2746086893515653E+00 
    1.2576714464802612E+00 
    1.2436872294326242E+00 
    1.2328087564191750E+00 
    1.2250780705767841E+00 
    1.2205347080812394E+00 
    1.5935517241919219E+00 
    1.5502282301712602E+00 
    1.5044130033957590E+00 
    1.4631417785195708E+00 
    1.4265113364259518E+00 
    1.3936583248203320E+00 
    1.3638746330309279E+00 
    1.3367340888997985E+00 
    1.3120452247931131E+00 
    1.2897885841728085E+00 
    1.2700652952257976E+00 
    1.2530527133929379E+00 
    1.2389579368506665E+00 
    1.2279642675706612E+00 
    1.2201373717555495E+00 
    1.2155325778065553E+00 
    1.5260403783007999E+00 
    1.5044130033961267E+00 
    1.4742069190486502E+00 
    1.4421903066627988E+00 
    1.4109084146671795E+00 
    1.3811694305375131E+00 
    1.3531969581670036E+00 
    1.3270724126688442E+00 
    1.3028910243398570E+00 
    1.2808058459630307E+00 
    1.2610324675084910E+00 
    1.2438339370263511E+00 
    1.2294894435548944E+00 
    1.2182419383482110E+00 
    1.2102051276052781E+00 
    1.2054670295840493E+00 
    1.4759846386496556E+00 
    1.4631417785201812E+00 
    1.4421903066630843E+00 
    1.4172671633667433E+00 
    1.3908545580759579E+00 
    1.3642821681187871E+00 
    1.3382691772989472E+00 
    1.3132589557343515E+00 
    1.2895958291380625E+00 
    1.2676078982015153E+00 
    1.2476427795675373E+00 
    1.2300728841938777E+00 
    1.2152750249491049E+00 
    1.2035803137297683E+00 
    1.1951797778589788E+00 
    1.1902128986555196E+00 
    1.4352947870408994E+00 
    1.4265113364267294E+00 
    1.4109084146676765E+00 
    1.3908545580761884E+00 
    1.3682264243925228E+00 
    1.3443209418728488E+00 
    1.3200154143050116E+00 
    1.2959417187867930E+00 
    1.2726131330739825E+00 
    1.2505023187301783E+00 
    1.2300849967683458E+00 
    1.2118547327884557E+00 
    1.1963070716826394E+00 
    1.1838927644491433E+00 
    1.1749130170385407E+00 
    1.1695806511321791E+00 
    1.4003660001752856E+00 
    1.3936583248212344E+00 
    1.3811694305381697E+00 
    1.3642821681192008E+00 
    1.3443209418730424E+00 
    1.3223738933662530E+00 
    1.2992971535949318E+00 
    1.2757841213096857E+00 
    1.2524404022845526E+00 
    1.2298426827025526E+00 
    1.2085801198694339E+00 
    1.1892720813323936E+00 
    1.1725562130528904E+00 
    1.1590393789682361E+00 
    1.1491726031294616E+00 
    1.1432759273131143E+00 
    1.3694578354447711E+00 
    1.3638746330319294E+00 
    1.3531969581677841E+00 
    1.3382691772995083E+00 
    1.3200154143053680E+00 
    1.2992971535951021E+00 
    1.2768744767549409E+00 
    1.2534254776874392E+00 
    1.2295887570074242E+00 
    1.2060061745639850E+00 
    1.1833619545002414E+00 
    1.1624038641370822E+00 
    1.1439382274904815E+00 
    1.1287734789619290E+00 
    1.1175731709627188E+00 
    1.1108237582072518E+00 
    1.3417053571408597E+00 
    1.3367340889008701E+00 
    1.3270724126697151E+00 
    1.3132589557350267E+00 
    1.2959417187872844E+00 
    1.2757841213100072E+00 
    1.2534254776875999E+00 
    1.2294845496180200E+00 
    1.2045878890437371E+00 
    1.1794060574690919E+00 
    1.1546959995102655E+00 
    1.1313338660869858E+00 
    1.1103226489937841E+00 
    1.0927359017029723E+00 
    1.0795499901054395E+00 
    1.0715170554401146E+00 
    1.3167068341846409E+00 
    1.3120452247940504E+00 
    1.3028910243406449E+00 
    1.2895958291387100E+00 
    1.2726131330745007E+00 
    1.2524404022849505E+00 
    1.2295887570077049E+00 
    1.2045878890438937E+00 
    1.1780129427339414E+00 
    1.1505232469798785E+00 
    1.1229158551323899E+00 
    1.0961840946573309E+00 
    1.0715535804019924E+00 
    1.0504498824483353E+00 
    1.0343141694137916E+00 
    1.0243347223627957E+00 
    1.2943302940879082E+00 
    1.2897885841734893E+00 
    1.2808058459636249E+00 
    1.2676078982020387E+00 
    1.2505023187306430E+00 
    1.2298426827029694E+00 
    1.2060061745643564E+00 
    1.1794060574694114E+00 
    1.1505232469800828E+00 
    1.1199526815707994E+00 
    1.0884762912689112E+00 
    1.0571645689606959E+00 
    1.0274731926642033E+00 
    1.0012792155157562E+00 
    9.8071749545307785E-01 
    9.6772774981173448E-01 
    1.2746086893520712E+00 
    1.2700652952262523E+00 
    1.2610324675089126E+00 
    1.2476427795679490E+00 
    1.2300849967687664E+00 
    1.2085801198698789E+00 
    1.1833619545007203E+00 
    1.1546959995107788E+00 
    1.1229158551328455E+00 
    1.0884762912691741E+00 
    1.0520480509434116E+00 
    1.0146796346760911E+00 
    9.7799880292276575E-01 
    9.4440393623544661E-01 
    9.1705450286523893E-01 
    8.9924431663092530E-01 
    1.2576714464805423E+00 
    1.2530527133932055E+00 
    1.2438339370266309E+00 
    1.2300728841942012E+00 
    1.2118547327888520E+00 
    1.1892720813328874E+00 
    1.1624038641376959E+00 
    1.1313338660877330E+00 
    1.0961840946580936E+00 
    1.0571645689612885E+00 
    1.0146796346764333E+00 
    9.6955059247035891E-01 
    9.2336260996406083E-01 
    8.7895384646971653E-01 
    8.4087383911186964E-01 
    8.1489827167396844E-01 
    1.2436872294327286E+00 
    1.2389579368507875E+00 
    1.2294894435550665E+00 
    1.2152750249493700E+00 
    1.1963070716830366E+00 
    1.1725562130534584E+00 
    1.1439382274912595E+00 
    1.1103226489948064E+00 
    1.0715535804031198E+00 
    1.0274731926651952E+00 
    9.7799880292353369E-01 
    9.2336260996450525E-01 
    8.6458675276750507E-01 
    8.0440150213305439E-01 
    7.4875677180339373E-01 
    7.0780415363673577E-01 
    1.2328087564191570E+00 
    1.2279642675706834E+00 
    1.2182419383483161E+00 
    1.2035803137300092E+00 
    1.1838927644495714E+00 
    1.1590393789689060E+00 
    1.1287734789629000E+00 
    1.0927359017043050E+00 
    1.0504498824498747E+00 
    1.0012792155172019E+00 
    9.4440393623670849E-01 
    8.7895384647069452E-01 
    8.0440150213361739E-01 
    7.2171909493525555E-01 
    6.3644959433830195E-01 
    5.6477463557925056E-01 
    1.2250780705767494E+00 
    1.2201373717555661E+00 
    1.2102051276053969E+00 
    1.1951797778592643E+00 
    1.1749130170390574E+00 
    1.1491726031302798E+00 
    1.1175731709639185E+00 
    1.0795499901071093E+00 
    1.0343141694157583E+00 
    9.8071749545497267E-01 
    9.1705450286696388E-01 
    8.4087383911331215E-01 
    7.4875677180439482E-01 
    6.3644959433864634E-01 
    5.0138254513446023E-01 
    3.5656806676860309E-01 
    1.2205347080812183E+00 
    1.2155325778065920E+00 
    1.2054670295842034E+00 
    1.1902128986558678E+00 
    1.1695806511327991E+00 
    1.1432759273140911E+00 
    1.1108237582086840E+00 
    1.0715170554421163E+00 
    1.0243347223651744E+00 
    9.6772774981405396E-01 
    8.9924431663307514E-01 
    8.1489827167581441E-01 
    7.0780415363806237E-01 
    5.6477463557966034E-01 
    3.5656806676812636E-01 
    0.0000000000000000E+00 

SCALARS Saturarion double 1 
LOOKUP_TABLE default 

    1.0000000000000000E+00 
    9.6681804743155342E-01 
    9.3609502654878307E-01 
    9.0216354045220193E-01 
    8.6667228166905619E-01 
    8.3102863884345635E-01 
    7.9567982932119041E-01 
    7.6079068158073004E-01 
    7.2605233327842678E-01 
    6.9114766504496439E-01 
    6.5514604911309970E-01 
    6.1674056318314729E-01 
    5.7295422156838594E-01 
    5.1799336913445571E-01 
    4.3218913485451937E-01 
    2.4035265739520556E-01 
    9.6681804743171129E-01 
    9.4350744328492220E-01 
    9.1543425209098739E-01 
    8.8441832495425121E-01 
    8.5174371511411973E-01 
    8.1864033810679504E-01 
    7.8551530771060118E-01 
    7.5259540380020651E-01 
    7.1959368382617561E-01 
    6.8619427274199074E-01 
    6.5150822369418304E-01 
    6.1426773394229062E-01 
    5.7152574446571802E-01 
    5.1737278358107563E-01 
    4.3220336256177144E-01 
    2.4074498541490344E-01 
    9.3609502654922949E-01 
    9.1543425209119600E-01 
    8.9012350105186211E-01 
    8.6220702607398603E-01 
    8.3271440480114156E-01 
    8.0260042918757191E-01 
    7.7223736413310184E-01 
    7.4186433772841609E-01 
    7.1121189599296786E-01 
    6.7985285795584038E-01 
    6.4697435111934887E-01 
    6.1132361031027749E-01 
    5.7005000748554602E-01 
    5.1695928638381206E-01 
    4.3271492471231066E-01 
    2.4221876010410251E-01 
    9.0216354045292702E-01 
    8.8441832495475448E-01 
    8.6220702607423405E-01 
    8.3752485893782191E-01 
    8.1137441604177185E-01 
    7.8452903880809277E-01 
    7.5729042470526009E-01 
    7.2976334945134747E-01 
    7.0174829341295064E-01 
    6.7277003498616983E-01 
    6.4206778190832625E-01 
    6.0824547213111124E-01 
    5.6876817893009224E-01 
    5.1682098539751975E-01 
    4.3387204238052662E-01 
    2.4505389580578868E-01 
    8.6667228167005250E-01 
    8.5174371511483415E-01 
    8.3271440480159875E-01 
    8.1137441604198723E-01 
    7.8863184267508479E-01 
    7.6511572299543906E-01 
    7.4107902438578310E-01 
    7.1665889497823221E-01 
    6.9155359088139567E-01 
    6.6537204813828277E-01 
    6.3719575476040835E-01 
    6.0575119977580438E-01 
    5.6806480961096772E-01 
    5.1833477867579203E-01 
    4.3705702884873021E-01 
    2.5107080425566081E-01 
    8.3102863884456080E-01 
    8.1864033810770076E-01 
    8.0260042918822250E-01 
    7.8452903880849834E-01 
    7.6511572299561670E-01 
    7.4498118577870920E-01 
    7.2420297774293452E-01 
    7.0295370491800846E-01 
    6.8085109211789896E-01 
    6.5757812385560765E-01 
    6.3214542378278771E-01 
    6.0324124879242946E-01 
    5.6786999142114336E-01 
    5.2024487701322486E-01 
    4.4119116503710287E-01 
    2.5910587235011323E-01 
    7.9567982932254011E-01 
    7.8551530771173450E-01 
    7.7223736413393140E-01 
    7.5729042470583841E-01 
    7.4107902438613460E-01 
    7.2420297774308851E-01 
    7.0667363814721607E-01 
    6.8865617295475534E-01 
    6.6971970392294111E-01 
    6.4947641746309359E-01 
    6.2697985712244741E-01 
    6.0086981233947212E-01 
    5.6823441272964237E-01 
    5.2301220649298918E-01 
    4.4668726471016912E-01 
    2.6952210406182942E-01 
    7.6079068158226060E-01 
    7.5259540380146883E-01 
    7.4186433772939919E-01 
    7.2976334945209653E-01 
    7.1665889497875435E-01 
    7.0295370491830989E-01 
    6.8865617295488868E-01 
    6.7384571904032686E-01 
    6.5815280646580110E-01 
    6.4109898113353547E-01 
    6.2176055813981623E-01 
    5.9867523319372495E-01 
    5.6917194393248605E-01 
    5.2671489794761395E-01 
    4.5378229851995378E-01 
    2.8249922828435403E-01 
    7.2605233327966445E-01 
    7.1959368382722289E-01 
    7.1121189599381329E-01 
    7.0174829341358869E-01 
    6.9155359088184121E-01 
    6.8085109211817629E-01 
    6.6971970392308577E-01 
    6.5815280646584851E-01 
    6.4582603382121417E-01 
    6.3217525595829271E-01 
    6.1629162926693881E-01 
    5.9672856225582038E-01 
    5.7065088069455194E-01 
    5.3210159908123755E-01 
    4.6347687839977381E-01 
    2.9924101881272197E-01 
    6.9114766504591307E-01 
    6.8619427274278377E-01 
    6.7985285795649686E-01 
    6.7277003498665267E-01 
    6.6537204813863327E-01 
    6.5757812385581282E-01 
    6.4947641746322693E-01 
    6.4109898113360075E-01 
    6.3217525595830548E-01 
    6.2209682823288581E-01 
    6.0994375244528898E-01 
    5.9428222646302409E-01 
    5.7230973234268512E-01 
    5.3818018636780440E-01 
    4.7503516704699000E-01 
    3.1906418186627766E-01 
    6.5514604911380225E-01 
    6.5150822369478345E-01 
    6.4697435111982582E-01 
    6.4206778190868863E-01 
    6.3719575476067125E-01 
    6.3214542378296101E-01 
    6.2697985712254933E-01 
    6.2176055813986220E-01 
    6.1629162926692660E-01 
    6.0994375244525312E-01 
    6.0183942474676089E-01 
    5.9057918754700756E-01 
    5.7344761627694929E-01 
    5.4470932389038973E-01 
    4.8850757401791933E-01 
    3.4252399951865287E-01 
    6.1674056318361781E-01 
    6.1426773394269174E-01 
    6.1132361031058646E-01 
    6.0824547213133329E-01 
    6.0575119977594982E-01 
    6.0324124879250485E-01 
    6.0086981233948544E-01 
    5.9867523319368487E-01 
    5.9672856225573023E-01 
    5.9428222646291851E-01 
    5.9057918754693195E-01 
    5.8429287981312328E-01 
    5.7282973070600463E-01 
    5.5073576063169594E-01 
    5.0329308784149041E-01 
    3.6964921491145714E-01 
    5.7295422156856213E-01 
    5.7152574446585414E-01 
    5.7005000748563572E-01 
    5.6876817893013032E-01 
    5.6806480961095074E-01 
    5.6786999142107386E-01 
    5.6823441272951347E-01 
    5.6917194393230941E-01 
    5.7065088069434100E-01 
    5.7230973234247062E-01 
    5.7344761627676188E-01 
    5.7282973070589860E-01 
    5.6811076518544767E-01 
    5.5430896903122351E-01 
    5.1815932985683066E-01 
    4.0127992611819790E-01 
    5.1799336913424321E-01 
    5.1737278358086192E-01 
    5.1695928638358879E-01 
    5.1682098539727983E-01 
    5.1833477867551814E-01 
    5.2024487701292321E-01 
    5.2301220649264157E-01 
    5.2671489794721937E-01 
    5.3210159908083432E-01 
    5.3818018636741405E-01 
    5.4470932389005500E-01 
    5.5073576063145657E-01 
    5.5430896903110893E-01 
    5.5096348545481411E-01 
    5.2925907989695109E-01 
    4.3573532829080869E-01 
    4.3218913485437649E-01 
    4.3220336256161923E-01 
    4.3271492471215561E-01 
    4.3387204238035315E-01 
    4.3705702884852288E-01 
    4.4119116503684014E-01 
    4.4668726470982839E-01 
    4.5378229851950941E-01 
    4.6347687839929497E-01 
    4.7503516704651200E-01 
    4.8850757401748235E-01 
    5.0329308784113647E-01 
    5.1815932985659774E-01 
    5.2925907989685006E-01 
    5.2711419797441350E-01 
    4.6755102901141637E-01 
    2.4035265739516673E-01 
    2.4074498541486122E-01 
    2.4221876010405929E-01 
    2.4505389580571782E-01 
    2.5107080425552225E-01 
    2.5910587234986426E-01 
    2.6952210406144217E-01 
    2.8249922828379109E-01 
    2.9924101881215348E-01 
    3.1906418186574020E-01 
    3.4252399951819135E-01 
    3.6964921491111369E-01 
    4.0127992611803331E-01 
    4.3573532829085665E-01 
    4.6755102901144097E-01 
    4.6678401840298345E-01 
