# vtk DataFile Version 2.0
Pressure Field Data 
ASCII 
DATASET UNSTRUCTURED_GRID 

POINTS 289 double 

    0.0000000000000000E+00     0.0000000000000000E+00     0.0000000000000000E+00 
    1.0000000000000000E+00     0.0000000000000000E+00     0.0000000000000000E+00 
    1.0000000000000000E+00     1.0000000000000000E+00     0.0000000000000000E+00 
    0.0000000000000000E+00     1.0000000000000000E+00     0.0000000000000000E+00 
    6.2499999999872928E-02     0.0000000000000000E+00     0.0000000000000000E+00 
    1.2499999999977310E-01     0.0000000000000000E+00     0.0000000000000000E+00 
    1.8749999999959341E-01     0.0000000000000000E+00     0.0000000000000000E+00 
    2.4999999999941089E-01     0.0000000000000000E+00     0.0000000000000000E+00 
    3.1249999999922851E-01     0.0000000000000000E+00     0.0000000000000000E+00 
    3.7499999999904610E-01     0.0000000000000000E+00     0.0000000000000000E+00 
    4.3749999999886358E-01     0.0000000000000000E+00     0.0000000000000000E+00 
    4.9999999999869210E-01     0.0000000000000000E+00     0.0000000000000000E+00 
    5.6249999999884603E-01     0.0000000000000000E+00     0.0000000000000000E+00 
    6.2499999999901090E-01     0.0000000000000000E+00     0.0000000000000000E+00 
    6.8749999999917577E-01     0.0000000000000000E+00     0.0000000000000000E+00 
    7.4999999999934064E-01     0.0000000000000000E+00     0.0000000000000000E+00 
    8.1249999999950551E-01     0.0000000000000000E+00     0.0000000000000000E+00 
    8.7499999999967026E-01     0.0000000000000000E+00     0.0000000000000000E+00 
    9.3749999999983513E-01     0.0000000000000000E+00     0.0000000000000000E+00 
    1.0000000000000000E+00     6.2499999999872928E-02     0.0000000000000000E+00 
    1.0000000000000000E+00     1.2499999999977310E-01     0.0000000000000000E+00 
    1.0000000000000000E+00     1.8749999999959341E-01     0.0000000000000000E+00 
    1.0000000000000000E+00     2.4999999999941089E-01     0.0000000000000000E+00 
    1.0000000000000000E+00     3.1249999999922851E-01     0.0000000000000000E+00 
    1.0000000000000000E+00     3.7499999999904610E-01     0.0000000000000000E+00 
    1.0000000000000000E+00     4.3749999999886358E-01     0.0000000000000000E+00 
    1.0000000000000000E+00     4.9999999999869210E-01     0.0000000000000000E+00 
    1.0000000000000000E+00     5.6249999999884603E-01     0.0000000000000000E+00 
    1.0000000000000000E+00     6.2499999999901090E-01     0.0000000000000000E+00 
    1.0000000000000000E+00     6.8749999999917577E-01     0.0000000000000000E+00 
    1.0000000000000000E+00     7.4999999999934064E-01     0.0000000000000000E+00 
    1.0000000000000000E+00     8.1249999999950551E-01     0.0000000000000000E+00 
    1.0000000000000000E+00     8.7499999999967026E-01     0.0000000000000000E+00 
    1.0000000000000000E+00     9.3749999999983513E-01     0.0000000000000000E+00 
    9.3749999999973976E-01     1.0000000000000000E+00     0.0000000000000000E+00 
    8.7499999999950118E-01     1.0000000000000000E+00     0.0000000000000000E+00 
    8.1249999999991318E-01     1.0000000000000000E+00     0.0000000000000000E+00 
    7.5000000000034706E-01     1.0000000000000000E+00     0.0000000000000000E+00 
    6.8750000000078049E-01     1.0000000000000000E+00     0.0000000000000000E+00 
    6.2500000000121403E-01     1.0000000000000000E+00     0.0000000000000000E+00 
    5.6250000000164757E-01     1.0000000000000000E+00     0.0000000000000000E+00 
    5.0000000000205946E-01     1.0000000000000000E+00     0.0000000000000000E+00 
    4.3750000000182099E-01     1.0000000000000000E+00     0.0000000000000000E+00 
    3.7500000000156092E-01     1.0000000000000000E+00     0.0000000000000000E+00 
    3.1250000000130068E-01     1.0000000000000000E+00     0.0000000000000000E+00 
    2.5000000000104050E-01     1.0000000000000000E+00     0.0000000000000000E+00 
    1.8750000000078040E-01     1.0000000000000000E+00     0.0000000000000000E+00 
    1.2500000000052031E-01     1.0000000000000000E+00     0.0000000000000000E+00 
    6.2500000000260125E-02     1.0000000000000000E+00     0.0000000000000000E+00 
    0.0000000000000000E+00     9.3749999999973976E-01     0.0000000000000000E+00 
    0.0000000000000000E+00     8.7499999999950118E-01     0.0000000000000000E+00 
    0.0000000000000000E+00     8.1249999999991318E-01     0.0000000000000000E+00 
    0.0000000000000000E+00     7.5000000000034706E-01     0.0000000000000000E+00 
    0.0000000000000000E+00     6.8750000000078049E-01     0.0000000000000000E+00 
    0.0000000000000000E+00     6.2500000000121403E-01     0.0000000000000000E+00 
    0.0000000000000000E+00     5.6250000000164757E-01     0.0000000000000000E+00 
    0.0000000000000000E+00     5.0000000000205946E-01     0.0000000000000000E+00 
    0.0000000000000000E+00     4.3750000000182099E-01     0.0000000000000000E+00 
    0.0000000000000000E+00     3.7500000000156092E-01     0.0000000000000000E+00 
    0.0000000000000000E+00     3.1250000000130068E-01     0.0000000000000000E+00 
    0.0000000000000000E+00     2.5000000000104050E-01     0.0000000000000000E+00 
    0.0000000000000000E+00     1.8750000000078040E-01     0.0000000000000000E+00 
    0.0000000000000000E+00     1.2500000000052031E-01     0.0000000000000000E+00 
    0.0000000000000000E+00     6.2500000000260125E-02     0.0000000000000000E+00 
    6.2499999999897131E-02     6.2500000000235922E-02     0.0000000000000000E+00 
    6.2499999999921327E-02     1.2500000000047351E-01     0.0000000000000000E+00 
    6.2499999999945530E-02     1.8750000000070621E-01     0.0000000000000000E+00 
    6.2499999999969733E-02     2.5000000000093858E-01     0.0000000000000000E+00 
    6.2499999999993928E-02     3.1250000000117117E-01     0.0000000000000000E+00 
    6.2500000000018124E-02     3.7500000000140382E-01     0.0000000000000000E+00 
    6.2500000000042327E-02     4.3750000000163619E-01     0.0000000000000000E+00 
    6.2500000000066530E-02     5.0000000000184897E-01     0.0000000000000000E+00 
    6.2500000000090733E-02     5.6250000000147260E-01     0.0000000000000000E+00 
    6.2500000000114922E-02     6.2500000000107636E-01     0.0000000000000000E+00 
    6.2500000000139125E-02     6.8750000000068034E-01     0.0000000000000000E+00 
    6.2500000000163328E-02     7.5000000000028411E-01     0.0000000000000000E+00 
    6.2500000000187531E-02     8.1249999999988787E-01     0.0000000000000000E+00 
    6.2500000000211720E-02     8.7499999999951172E-01     0.0000000000000000E+00 
    6.2500000000235922E-02     9.3749999999974565E-01     0.0000000000000000E+00 
    1.2499999999981980E-01     6.2500000000211733E-02     0.0000000000000000E+00 
    1.2499999999986650E-01     1.2500000000042691E-01     0.0000000000000000E+00 
    1.2499999999991319E-01     1.8750000000063199E-01     0.0000000000000000E+00 
    1.2499999999995989E-01     2.5000000000083678E-01     0.0000000000000000E+00 
    1.2500000000000661E-01     3.1250000000104172E-01     0.0000000000000000E+00 
    1.2500000000005329E-01     3.7500000000124661E-01     0.0000000000000000E+00 
    1.2500000000010000E-01     4.3750000000145117E-01     0.0000000000000000E+00 
    1.2500000000014669E-01     5.0000000000163858E-01     0.0000000000000000E+00 
    1.2500000000019340E-01     5.6250000000129741E-01     0.0000000000000000E+00 
    1.2500000000024011E-01     6.2500000000093847E-01     0.0000000000000000E+00 
    1.2500000000028680E-01     6.8750000000057998E-01     0.0000000000000000E+00 
    1.2500000000033351E-01     7.5000000000022127E-01     0.0000000000000000E+00 
    1.2500000000038020E-01     8.1249999999986211E-01     0.0000000000000000E+00 
    1.2500000000042691E-01     8.7499999999952238E-01     0.0000000000000000E+00 
    1.2500000000047359E-01     9.3749999999975164E-01     0.0000000000000000E+00 
    1.8749999999966760E-01     6.2500000000187531E-02     0.0000000000000000E+00 
    1.8749999999974179E-01     1.2500000000038020E-01     0.0000000000000000E+00 
    1.8749999999981601E-01     1.8750000000055780E-01     0.0000000000000000E+00 
    1.8749999999989009E-01     2.5000000000073502E-01     0.0000000000000000E+00 
    1.8749999999996431E-01     3.1250000000091221E-01     0.0000000000000000E+00 
    1.8750000000003850E-01     3.7500000000108941E-01     0.0000000000000000E+00 
    1.8750000000011269E-01     4.3750000000126649E-01     0.0000000000000000E+00 
    1.8750000000018691E-01     5.0000000000142808E-01     0.0000000000000000E+00 
    1.8750000000026110E-01     5.6250000000112244E-01     0.0000000000000000E+00 
    1.8750000000033529E-01     6.2500000000080080E-01     0.0000000000000000E+00 
    1.8750000000040951E-01     6.8750000000047962E-01     0.0000000000000000E+00 
    1.8750000000048361E-01     7.5000000000015843E-01     0.0000000000000000E+00 
    1.8750000000055780E-01     8.1249999999983680E-01     0.0000000000000000E+00 
    1.8750000000063199E-01     8.7499999999953304E-01     0.0000000000000000E+00 
    1.8750000000070621E-01     9.3749999999975764E-01     0.0000000000000000E+00 
    2.4999999999951281E-01     6.2500000000163314E-02     0.0000000000000000E+00 
    2.4999999999961461E-01     1.2500000000033351E-01     0.0000000000000000E+00 
    2.4999999999971650E-01     1.8750000000048361E-01     0.0000000000000000E+00 
    2.4999999999981831E-01     2.5000000000063310E-01     0.0000000000000000E+00 
    2.4999999999992020E-01     3.1250000000078260E-01     0.0000000000000000E+00 
    2.5000000000002198E-01     3.7500000000093209E-01     0.0000000000000000E+00 
    2.5000000000012390E-01     4.3750000000108180E-01     0.0000000000000000E+00 
    2.5000000000022571E-01     5.0000000000121769E-01     0.0000000000000000E+00 
    2.5000000000032763E-01     5.6250000000094724E-01     0.0000000000000000E+00 
    2.5000000000042938E-01     6.2500000000066314E-01     0.0000000000000000E+00 
    2.5000000000053119E-01     6.8750000000037925E-01     0.0000000000000000E+00 
[...]
CELL_DATA 256 
SCALARS Pressure double 1 
LOOKUP_TABLE default 

    1.6583232693555257E+00 
    1.5536778639639874E+00 
    1.4864684545650515E+00 
    1.4367571612573684E+00 
    1.3964406840288743E+00 
    1.3619036954344130E+00 
    1.3313959601544438E+00 
    1.3040431020819347E+00 
    1.2794338282249924E+00 
    1.2574263343280421E+00 
    1.2380437132343083E+00 
    1.2214064578220873E+00 
    1.2076776278788044E+00 
    1.1970120438439777E+00 
    1.1894677409114101E+00 
    1.1850419976570881E+00 
    1.5536778639645403E+00 
    1.5105157203810760E+00 
    1.4649663755175464E+00 
    1.4240197496392082E+00 
    1.3877517986359664E+00 
    1.3552850584914309E+00 
    1.3258998848586534E+00 
    1.2991596804012662E+00 
    1.2748627309914049E+00 
    1.2529792227142103E+00 
    1.2335999230433607E+00 
    1.2168926612213862E+00 
    1.2030582181663525E+00 
    1.1922814045941401E+00 
    1.1846436465724195E+00 
    1.1801578711177785E+00 
    1.4864684545658184E+00 
    1.4649663755179125E+00 
    1.4349878859693868E+00 
    1.4032691757453246E+00 
    1.3723331119609026E+00 
    1.3429715751634246E+00 
    1.3153949425874938E+00 
    1.2896729029825462E+00 
    1.2658893684436194E+00 
    1.2441860881393887E+00 
    1.2247673045955927E+00 
    1.2078853800803018E+00 
    1.1938117767243064E+00 
    1.1827897214667296E+00 
    1.1749480112905921E+00 
    1.1703319172176192E+00 
    1.4367571612582783E+00 
    1.4240197496398150E+00 
    1.4032691757456091E+00 
    1.3786213089501718E+00 
    1.3525392324094074E+00 
    1.3263366511866594E+00 
    1.3007189613695251E+00 
    1.2761169310160787E+00 
    1.2528625746904418E+00 
    1.2312715539843575E+00 
    1.2116787671860345E+00 
    1.1944442453006321E+00 
    1.1799350736184553E+00 
    1.1684806106972268E+00 
    1.1602853976809007E+00 
    1.1554455743309515E+00 
    1.3964406840298940E+00 
    1.3877517986367378E+00 
    1.3723331119613955E+00 
    1.3525392324096364E+00 
    1.3302316489256947E+00 
    1.3066929644210115E+00 
    1.2827871347569946E+00 
    1.2591331679551832E+00 
    1.2362313211129172E+00 
    1.2145406767304792E+00 
    1.1945226221919116E+00 
    1.1766561771046891E+00 
    1.1614245375108880E+00 
    1.1492736334231852E+00 
    1.1405156800297311E+00 
    1.1353192668411773E+00 
    1.3619036954355257E+00 
    1.3552850584923253E+00 
    1.3429715751640745E+00 
    1.3263366511870691E+00 
    1.3066929644212029E+00 
    1.2851164246186730E+00 
    1.2624508607990439E+00 
    1.2393770627941076E+00 
    1.2164872355587206E+00 
    1.1943434833910640E+00 
    1.1735189012486171E+00 
    1.1546157594524222E+00 
    1.1382558578966215E+00 
    1.1250369969111031E+00 
    1.1154179270085309E+00 
    1.1096727058707236E+00 
    1.3313959601556358E+00 
    1.3258998848596439E+00 
    1.3153949425882649E+00 
    1.3007189613700789E+00 
    1.2827871347573463E+00 
    1.2624508607992120E+00 
    1.2404593371793922E+00 
    1.2174787851477924E+00 
    1.1941344277346551E+00 
    1.1710528043392168E+00 
    1.1489003647433815E+00 
    1.1284048694485134E+00 
    1.1103523130769917E+00 
    1.0955364950337554E+00 
    1.0846238375327444E+00 
    1.0780510883403995E+00 
    1.3040431020831817E+00 
    1.2991596804023244E+00 
    1.2896729029834062E+00 
    1.2761169310167442E+00 
    1.2591331679556677E+00 
    1.2393770627944245E+00 
    1.2174787851479503E+00 
    1.1940464482439801E+00 
    1.1696937924883428E+00 
    1.1450757835148710E+00 
    1.1209301447971480E+00 
    1.0981098708035302E+00 
    1.0775922602768642E+00 
    1.0604288466341600E+00 
    1.0475912493967383E+00 
    1.0397751533008348E+00 
    1.2794338282260662E+00 
    1.2748627309923299E+00 
    1.2658893684443966E+00 
    1.2528625746910795E+00 
    1.2362313211134270E+00 
    1.2164872355591116E+00 
    1.1941344277349306E+00 
    1.1696937924884960E+00 
    1.1437289872590912E+00 
    1.1168842567325103E+00 
    1.0899366838711910E+00 
    1.0638534712118763E+00 
    1.0398284536424911E+00 
    1.0192553247170040E+00 
    1.0035591036877822E+00 
    9.9386062144910703E-01 
    1.2574263343288083E+00 
    1.2529792227148813E+00 
    1.2441860881399749E+00 
    1.2312715539848731E+00 
    1.2145406767309366E+00 
    1.1943434833914730E+00 
    1.1710528043395811E+00 
    1.1450757835151841E+00 
    1.1168842567327093E+00 
    1.0870599190054309E+00 
    1.0563654225038575E+00 
    1.0258432666725104E+00 
    9.9691107896832287E-01 
    9.7140153245733096E-01 
    9.5141654696007494E-01 
    9.3881023991509749E-01 
    1.2380437132348066E+00 
    1.2335999230438095E+00 
    1.2247673045960095E+00 
    1.2116787671864402E+00 
    1.1945226221923246E+00 
    1.1735189012490528E+00 
    1.1489003647438503E+00 
    1.1209301447976490E+00 
    1.0899366838716347E+00 
    1.0563654225041135E+00 
    1.0208711961031174E+00 
    9.8447545554436522E-01 
    9.4876339946044486E-01 
    9.1607498326258652E-01 
    8.8951171848444233E-01 
    8.7225034714799043E-01 
    1.2214064578223645E+00 
    1.2168926612216497E+00 
    1.2078853800805773E+00 
    1.1944442453009505E+00 
    1.1766561771050772E+00 
    1.1546157594529043E+00 
    1.1284048694491118E+00 
    1.0981098708042580E+00 
    1.0638534712126193E+00 
    1.0258432666730875E+00 
    9.8447545554469795E-01 
    9.4055104418937108E-01 
    8.9561436148035534E-01 
    8.5243390811733255E-01 
    8.1546747832719768E-01 
    7.9031853216910830E-01 
    1.2076776278789083E+00 
    1.2030582181664722E+00 
    1.1938117767244758E+00 
    1.1799350736187151E+00 
    1.1614245375112762E+00 
    1.1382558578971749E+00 
    1.1103523130777488E+00 
    1.0775922602778594E+00 
    1.0398284536435887E+00 
    9.9691107896928755E-01 
    9.4876339946119181E-01 
    8.9561436148078777E-01 
    8.3846169627781875E-01 
    7.7997049352821157E-01 
    7.2596690296139299E-01 
    6.8633810701569020E-01 
    1.1970120438439611E+00 
    1.1922814045941621E+00 
    1.1827897214668324E+00 
    1.1684806106974619E+00 
    1.1492736334236029E+00 
    1.1250369969117555E+00 
    1.0955364950347000E+00 
    1.0604288466354570E+00 
    1.0192553247185019E+00 
    9.7140153245873717E-01 
    9.1607498326381409E-01 
    8.5243390811828412E-01 
    7.7997049352875880E-01 
    6.9964235212779169E-01 
    6.1688968107188269E-01 
    5.4752021987456656E-01 
    1.1894677409113767E+00 
    1.1846436465724353E+00 
    1.1749480112907076E+00 
    1.1602853976811787E+00 
    1.1405156800302345E+00 
    1.1154179270093272E+00 
    1.0846238375339117E+00 
    1.0475912493983635E+00 
    1.0035591036896958E+00 
    9.5141654696191802E-01 
    8.8951171848611976E-01 
    8.1546747832860000E-01 
    7.2596690296236555E-01 
    6.1688968107221709E-01 
    4.8580150264255506E-01 
    3.4553461309245420E-01 
    1.1850419976570672E+00 
    1.1801578711178136E+00 
    1.1703319172177691E+00 
    1.1554455743312910E+00 
    1.1353192668417811E+00 
    1.1096727058716735E+00 
    1.0780510883417929E+00 
    1.0397751533027828E+00 
    9.9386062145142062E-01 
    9.3881023991735268E-01 
    8.7225034715008010E-01 
    7.9031853217090209E-01 
    6.8633810701697873E-01 
    5.4752021987496446E-01 
    3.4553461309199279E-01 
    0.0000000000000000E+00 

SCALARS Saturarion double 1 
LOOKUP_TABLE default 

    1.0000000000000000E+00 
    9.6823060870074928E-01 
    9.3862447164849661E-01 
    9.0574505999177179E-01 
    8.7118998323582408E-01 
    8.3634359248887258E-01 
    8.0167294019579705E-01 
    7.6736412748411054E-01 
    7.3313792982110593E-01 
    6.9869965425043978E-01 
    6.6315866602115048E-01 
    6.2526815249898382E-01 
    5.8222214504829395E-01 
    5.2867042606891390E-01 
    4.4648365704826393E-01 
    2.6417028133988396E-01 
    9.6823060870089950E-01 
    9.4579154765359974E-01 
    9.1864283821449710E-01 
    8.8850800381984396E-01 
    8.5663326661574568E-01 
    8.2422437366860013E-01 
    7.9170188911195538E-01 
    7.5930626178483984E-01 
    7.2677575565787533E-01 
    6.9381418970103648E-01 
    6.5956917539357851E-01 
    6.2283024665453368E-01 
    5.8081978675314805E-01 
    5.2807783052346380E-01 
    4.4654417746891933E-01 
    2.6471390854227222E-01 
    9.3862447164893570E-01 
    9.1864283821470571E-01 
    8.9407514317837411E-01 
    8.6687162370894710E-01 
    8.3803574184925500E-01 
    8.0850439033155419E-01 
    7.7865755976897977E-01 
    7.4874241493949756E-01 
    7.1851013307896294E-01 
    6.8755345966148818E-01 
    6.5509092020746484E-01 
    6.1992441564677647E-01 
    5.7936717003695504E-01 
    5.2768676689707261E-01 
    4.4708708731717878E-01 
    2.6626744831594423E-01 
    9.0574505999247257E-01 
    8.8850800382032269E-01 
    8.6687162370918847E-01 
    8.4275141050991886E-01 
    8.1712554624815370E-01 
    7.9075445589828008E-01 
    7.6394489016237233E-01 
    7.3680990182930584E-01 
    7.0916410587062451E-01 
    6.8055103012371387E-01 
    6.5023645370967920E-01 
    6.1688133163600800E-01 
    5.7809917376151287E-01 
    5.2756492269221045E-01 
    4.4825258487164088E-01 
    2.6907538390324903E-01 
    8.7118998323674890E-01 
    8.5663326661645944E-01 
    8.3803574184971119E-01 
    8.1712554624837064E-01 
    7.9479080054269324E-01 
    7.7165225556321759E-01 
    7.4796597432137291E-01 
    7.2387295745462443E-01 
    6.9908552101189558E-01 
    6.7322564580931343E-01 
    6.4540361742174168E-01 
    6.1439559752679218E-01 
    5.7738822139313917E-01 
    5.2901757326299037E-01 
    4.5132992790359716E-01 
    2.7467134528126264E-01 
    8.3634359248997026E-01 
    8.2422437366949675E-01 
    8.0850439033219024E-01 
    7.9075445589868398E-01 
    7.7165225556341499E-01 
    7.5180993313556421E-01 
    7.3131171308207632E-01 
    7.1033060361438438E-01 
    6.8849817478093522E-01 
    6.6550594673419672E-01 
    6.4039262134118402E-01 
    6.1189388496638097E-01 
    5.7716904007572223E-01 
    5.3085726987379689E-01 
    4.5531204908137246E-01 
    2.8207321792089396E-01 
    8.0167294019712654E-01 
    7.9170188911306161E-01 
    7.7865755976980333E-01 
    7.6394489016294431E-01 
    7.4796597432173206E-01 
    7.3131171308222387E-01 
    7.1400050845200158E-01 
    6.9619677711338857E-01 
    6.7748304873549026E-01 
    6.5748034737826433E-01 
    6.3526662030166292E-01 
    6.0952686764811004E-01 
    5.7749261840976462E-01 
    5.3352474405971062E-01 
    4.6058824079304672E-01 
    2.9166249110228842E-01 
    7.6736412748562932E-01 
    7.5930626178609562E-01 
    7.4874241494047311E-01 
    7.3680990183003658E-01 
    7.2387295745511182E-01 
    7.1033060361468814E-01 
    6.9619677711352246E-01 
    6.8155153509262023E-01 
    6.6603573859850085E-01 
    6.4918119764226778E-01 
    6.3008597267204636E-01 
    6.0733236294853377E-01 
    5.7837340419918859E-01 
    5.3709687156416930E-01 
    4.6738481699849072E-01 
    3.0365048456317317E-01 
    7.3313792982230730E-01 
    7.2677575565888530E-01 
    7.1851013307979628E-01 
    7.0916410587125744E-01 
    6.9908552101232946E-01 
    6.8849817478122521E-01 
    6.7748304873564402E-01 
    6.6603573859854703E-01 
    6.5384001369893063E-01 
    6.4034370939231189E-01 
    6.2465765935006579E-01 
    6.0537514449569374E-01 
    5.7977981002958101E-01 
    5.4228412109411228E-01 
    4.7664248625169209E-01 
    3.1918614606493356E-01 
    6.9869965425137981E-01 
    6.9381418970183373E-01 
    6.8755345966215042E-01 
    6.8055103012420115E-01 
    6.7322564580967015E-01 
    6.6550594673445129E-01 
    6.5748034737835626E-01 
    6.4918119764232562E-01 
    6.4034370939231899E-01 
    6.3037259594836748E-01 
    6.1836664728211233E-01 
    6.0292797890351035E-01 
    5.8135874280894939E-01 
    5.4814420630416183E-01 
    4.8768184918031260E-01 
    3.3771846233713593E-01 
    6.6315866602185647E-01 
    6.5956917539416793E-01 
    6.5509092020793569E-01 
    6.5023645371003147E-01 
    6.4540361742199892E-01 
    6.4039262134135821E-01 
    6.3526662030174308E-01 
    6.3008597267209709E-01 
    6.2465765935005613E-01 
    6.1836664728208013E-01 
    6.1035246882014182E-01 
    5.9924756537820456E-01 
    5.8242564259041218E-01 
    5.5444002981249640E-01 
    5.0055460292276210E-01 
    3.5982291805272504E-01 
    6.2526815249945233E-01 
    6.2283024665493025E-01 
    6.1992441564707190E-01 
    6.1688133163623371E-01 
    6.1439559752692852E-01 
    6.1189388496645869E-01 
    6.0952686764812336E-01 
    6.0733236294850435E-01 
    6.0537514449560170E-01 
    6.0292797890341188E-01 
    5.9924756537813384E-01 
    5.9303547068405960E-01 
    5.8177319897141111E-01 
    5.6024555389262087E-01 
    5.1469499992226031E-01 
    3.8558385299069631E-01 
    5.8222214504846870E-01 
    5.8081978675328338E-01 
    5.7936717003704097E-01 
    5.7809917376155362E-01 
    5.7738822139312873E-01 
    5.7716904007565861E-01 
    5.7749261840964872E-01 
    5.7837340419901884E-01 
    5.7977981002937362E-01 
    5.8135874280874134E-01 
    5.8242564259023355E-01 
    5.8177319897130630E-01 
    5.7711738711252858E-01 
    5.6366235416610611E-01 
    5.2891310407217251E-01 
    4.1582275481515313E-01 
    5.2867042606871262E-01 
    5.2807783052326274E-01 
    5.2768676689686544E-01 
    5.2756492269197885E-01 
    5.2901757326273235E-01 
    5.3085726987350190E-01 
    5.3352474405938188E-01 
    5.3709687156379005E-01 
    5.4228412109372592E-01 
    5.4814420630378646E-01 
    5.5444002981217166E-01 
    5.6024555389238706E-01 
    5.6366235416599575E-01 
    5.6037384722754813E-01 
    5.3950994618421488E-01 
    4.4896090205333511E-01 
    4.4648365704812454E-01 
    4.4654417746877306E-01 
    4.4708708731703733E-01 
    4.4825258487147596E-01 
    4.5132992790339571E-01 
    4.5531204908111589E-01 
    4.6058824079271565E-01 
    4.6738481699806445E-01 
    4.7664248625123606E-01 
    4.8768184917985258E-01 
    5.0055460292233844E-01 
    5.1469499992191514E-01 
    5.2891310407194514E-01 
    5.3950994618411818E-01 
    5.3741909119342690E-01 
    4.7971563366487835E-01 
    2.6417028133985265E-01 
    2.6471390854223276E-01 
    2.6626744831590216E-01 
    2.6907538390318220E-01 
    2.7467134528113363E-01 
    2.8207321792067080E-01 
    2.9166249110193715E-01 
    3.0365048456265881E-01 
    3.1918614606441398E-01 
    3.3771846233664260E-01 
    3.5982291805229816E-01 
    3.8558385299037667E-01 
    4.1582275481499997E-01 
    4.4896090205338535E-01 
    4.7971563366490400E-01 
    4.7896105940953271E-01 
