# vtk DataFile Version 2.0
Pressure Field Data 
ASCII 
DATASET UNSTRUCTURED_GRID 

POINTS 289 double 

    0.0000000000000000E+00     0.0000000000000000E+00     0.0000000000000000E+00 
    1.0000000000000000E+00     0.0000000000000000E+00     0.0000000000000000E+00 
    1.0000000000000000E+00     1.0000000000000000E+00     0.0000000000000000E+00 
    0.0000000000000000E+00     1.0000000000000000E+00     0.0000000000000000E+00 
    6.2499999999872928E-02     0.0000000000000000E+00     0.0000000000000000E+00 
    1.2499999999977310E-01     0.0000000000000000E+00     0.0000000000000000E+00 
    1.8749999999959341E-01     0.0000000000000000E+00     0.0000000000000000E+00 
    2.4999999999941089E-01     0.0000000000000000E+00     0.0000000000000000E+00 
    3.1249999999922851E-01     0.0000000000000000E+00     0.0000000000000000E+00 
    3.7499999999904610E-01     0.0000000000000000E+00     0.0000000000000000E+00 
    4.3749999999886358E-01     0.0000000000000000E+00     0.0000000000000000E+00 
    4.9999999999869210E-01     0.0000000000000000E+00     0.0000000000000000E+00 
    5.6249999999884603E-01     0.0000000000000000E+00     0.0000000000000000E+00 
    6.2499999999901090E-01     0.0000000000000000E+00     0.0000000000000000E+00 
    6.8749999999917577E-01     0.0000000000000000E+00     0.0000000000000000E+00 
    7.4999999999934064E-01     0.0000000000000000E+00     0.0000000000000000E+00 
    8.1249999999950551E-01     0.0000000000000000E+00     0.0000000000000000E+00 
    8.7499999999967026E-01     0.0000000000000000E+00     0.0000000000000000E+00 
    9.3749999999983513E-01     0.0000000000000000E+00     0.0000000000000000E+00 
    1.0000000000000000E+00     6.2499999999872928E-02     0.0000000000000000E+00 
    1.0000000000000000E+00     1.2499999999977310E-01     0.0000000000000000E+00 
    1.0000000000000000E+00     1.8749999999959341E-01     0.0000000000000000E+00 
    1.0000000000000000E+00     2.4999999999941089E-01     0.0000000000000000E+00 
    1.0000000000000000E+00     3.1249999999922851E-01     0.0000000000000000E+00 
    1.0000000000000000E+00     3.7499999999904610E-01     0.0000000000000000E+00 
    1.0000000000000000E+00     4.3749999999886358E-01     0.0000000000000000E+00 
    1.0000000000000000E+00     4.9999999999869210E-01     0.0000000000000000E+00 
    1.0000000000000000E+00     5.6249999999884603E-01     0.0000000000000000E+00 
    1.0000000000000000E+00     6.2499999999901090E-01     0.0000000000000000E+00 
    1.0000000000000000E+00     6.8749999999917577E-01     0.0000000000000000E+00 
    1.0000000000000000E+00     7.4999999999934064E-01     0.0000000000000000E+00 
    1.0000000000000000E+00     8.1249999999950551E-01     0.0000000000000000E+00 
    1.0000000000000000E+00     8.7499999999967026E-01     0.0000000000000000E+00 
    1.0000000000000000E+00     9.3749999999983513E-01     0.0000000000000000E+00 
    9.3749999999973976E-01     1.0000000000000000E+00     0.0000000000000000E+00 
    8.7499999999950118E-01     1.0000000000000000E+00     0.0000000000000000E+00 
    8.1249999999991318E-01     1.0000000000000000E+00     0.0000000000000000E+00 
    7.5000000000034706E-01     1.0000000000000000E+00     0.0000000000000000E+00 
    6.8750000000078049E-01     1.0000000000000000E+00     0.0000000000000000E+00 
    6.2500000000121403E-01     1.0000000000000000E+00     0.0000000000000000E+00 
    5.6250000000164757E-01     1.0000000000000000E+00     0.0000000000000000E+00 
    5.0000000000205946E-01     1.0000000000000000E+00     0.0000000000000000E+00 
    4.3750000000182099E-01     1.0000000000000000E+00     0.0000000000000000E+00 
    3.7500000000156092E-01     1.0000000000000000E+00     0.0000000000000000E+00 
    3.1250000000130068E-01     1.0000000000000000E+00     0.0000000000000000E+00 
    2.5000000000104050E-01     1.0000000000000000E+00     0.0000000000000000E+00 
    1.8750000000078040E-01     1.0000000000000000E+00     0.0000000000000000E+00 
    1.2500000000052031E-01     1.0000000000000000E+00     0.0000000000000000E+00 
    6.2500000000260125E-02     1.0000000000000000E+00     0.0000000000000000E+00 
    0.0000000000000000E+00     9.3749999999973976E-01     0.0000000000000000E+00 
    0.0000000000000000E+00     8.7499999999950118E-01     0.0000000000000000E+00 
    0.0000000000000000E+00     8.1249999999991318E-01     0.0000000000000000E+00 
    0.0000000000000000E+00     7.5000000000034706E-01     0.0000000000000000E+00 
    0.0000000000000000E+00     6.8750000000078049E-01     0.0000000000000000E+00 
    0.0000000000000000E+00     6.2500000000121403E-01     0.0000000000000000E+00 
    0.0000000000000000E+00     5.6250000000164757E-01     0.0000000000000000E+00 
    0.0000000000000000E+00     5.0000000000205946E-01     0.0000000000000000E+00 
    0.0000000000000000E+00     4.3750000000182099E-01     0.0000000000000000E+00 
    0.0000000000000000E+00     3.7500000000156092E-01     0.0000000000000000E+00 
    0.0000000000000000E+00     3.1250000000130068E-01     0.0000000000000000E+00 
    0.0000000000000000E+00     2.5000000000104050E-01     0.0000000000000000E+00 
    0.0000000000000000E+00     1.8750000000078040E-01     0.0000000000000000E+00 
    0.0000000000000000E+00     1.2500000000052031E-01     0.0000000000000000E+00 
    0.0000000000000000E+00     6.2500000000260125E-02     0.0000000000000000E+00 
    6.2499999999897131E-02     6.2500000000235922E-02     0.0000000000000000E+00 
    6.2499999999921327E-02     1.2500000000047351E-01     0.0000000000000000E+00 
    6.2499999999945530E-02     1.8750000000070621E-01     0.0000000000000000E+00 
    6.2499999999969733E-02     2.5000000000093858E-01     0.0000000000000000E+00 
    6.2499999999993928E-02     3.1250000000117117E-01     0.0000000000000000E+00 
    6.2500000000018124E-02     3.7500000000140382E-01     0.0000000000000000E+00 
    6.2500000000042327E-02     4.3750000000163619E-01     0.0000000000000000E+00 
    6.2500000000066530E-02     5.0000000000184897E-01     0.0000000000000000E+00 
    6.2500000000090733E-02     5.6250000000147260E-01     0.0000000000000000E+00 
    6.2500000000114922E-02     6.2500000000107636E-01     0.0000000000000000E+00 
    6.2500000000139125E-02     6.8750000000068034E-01     0.0000000000000000E+00 
    6.2500000000163328E-02     7.5000000000028411E-01     0.0000000000000000E+00 
    6.2500000000187531E-02     8.1249999999988787E-01     0.0000000000000000E+00 
    6.2500000000211720E-02     8.7499999999951172E-01     0.0000000000000000E+00 
    6.2500000000235922E-02     9.3749999999974565E-01     0.0000000000000000E+00 
    1.2499999999981980E-01     6.2500000000211733E-02     0.0000000000000000E+00 
    1.2499999999986650E-01     1.2500000000042691E-01     0.0000000000000000E+00 
    1.2499999999991319E-01     1.8750000000063199E-01     0.0000000000000000E+00 
    1.2499999999995989E-01     2.5000000000083678E-01     0.0000000000000000E+00 
    1.2500000000000661E-01     3.1250000000104172E-01     0.0000000000000000E+00 
    1.2500000000005329E-01     3.7500000000124661E-01     0.0000000000000000E+00 
    1.2500000000010000E-01     4.3750000000145117E-01     0.0000000000000000E+00 
    1.2500000000014669E-01     5.0000000000163858E-01     0.0000000000000000E+00 
    1.2500000000019340E-01     5.6250000000129741E-01     0.0000000000000000E+00 
    1.2500000000024011E-01     6.2500000000093847E-01     0.0000000000000000E+00 
    1.2500000000028680E-01     6.8750000000057998E-01     0.0000000000000000E+00 
    1.2500000000033351E-01     7.5000000000022127E-01     0.0000000000000000E+00 
    1.2500000000038020E-01     8.1249999999986211E-01     0.0000000000000000E+00 
    1.2500000000042691E-01     8.7499999999952238E-01     0.0000000000000000E+00 
    1.2500000000047359E-01     9.3749999999975164E-01     0.0000000000000000E+00 
    1.8749999999966760E-01     6.2500000000187531E-02     0.0000000000000000E+00 
    1.8749999999974179E-01     1.2500000000038020E-01     0.0000000000000000E+00 
    1.8749999999981601E-01     1.8750000000055780E-01     0.0000000000000000E+00 
    1.8749999999989009E-01     2.5000000000073502E-01     0.0000000000000000E+00 
    1.8749999999996431E-01     3.1250000000091221E-01     0.0000000000000000E+00 
    1.8750000000003850E-01     3.7500000000108941E-01     0.0000000000000000E+00 
    1.8750000000011269E-01     4.3750000000126649E-01     0.0000000000000000E+00 
    1.8750000000018691E-01     5.0000000000142808E-01     0.0000000000000000E+00 
    1.8750000000026110E-01     5.6250000000112244E-01     0.0000000000000000E+00 
    1.8750000000033529E-01     6.2500000000080080E-01     0.0000000000000000E+00 
    1.8750000000040951E-01     6.8750000000047962E-01     0.0000000000000000E+00 
    1.8750000000048361E-01     7.5000000000015843E-01     0.0000000000000000E+00 
    1.8750000000055780E-01     8.1249999999983680E-01     0.0000000000000000E+00 
    1.8750000000063199E-01     8.7499999999953304E-01     0.0000000000000000E+00 
    1.8750000000070621E-01     9.3749999999975764E-01     0.0000000000000000E+00 
    2.4999999999951281E-01     6.2500000000163314E-02     0.0000000000000000E+00 
    2.4999999999961461E-01     1.2500000000033351E-01     0.0000000000000000E+00 
    2.4999999999971650E-01     1.8750000000048361E-01     0.0000000000000000E+00 
    2.4999999999981831E-01     2.5000000000063310E-01     0.0000000000000000E+00 
    2.4999999999992020E-01     3.1250000000078260E-01     0.0000000000000000E+00 
    2.5000000000002198E-01     3.7500000000093209E-01     0.0000000000000000E+00 
    2.5000000000012390E-01     4.3750000000108180E-01     0.0000000000000000E+00 
    2.5000000000022571E-01     5.0000000000121769E-01     0.0000000000000000E+00 
    2.5000000000032763E-01     5.6250000000094724E-01     0.0000000000000000E+00 
    2.5000000000042938E-01     6.2500000000066314E-01     0.0000000000000000E+00 
    2.5000000000053119E-01     6.8750000000037925E-01     0.0000000000000000E+00 
[...]
CELL_DATA 256 
SCALARS Pressure double 1 
LOOKUP_TABLE default 

    1.7347195845588863E+00 
    1.6296796042372399E+00 
    1.5618965863344523E+00 
    1.5115311793178425E+00 
    1.4705058728096836E+00 
    1.4352252026407666E+00 
    1.4039574153045482E+00 
    1.3758459248358534E+00 
    1.3504974414233355E+00 
    1.3277886410695370E+00 
    1.3077610712029561E+00 
    1.2905517262898432E+00 
    1.2763333371203966E+00 
    1.2652547296974859E+00 
    1.2573407178748479E+00 
    1.2526856464747953E+00 
    1.6296796042377948E+00 
    1.5862109987042099E+00 
    1.5401566278171073E+00 
    1.4985936825870840E+00 
    1.4616376631864381E+00 
    1.4284378239429731E+00 
    1.3982963129608754E+00 
    1.3707961996799309E+00 
    1.3457550818628774E+00 
    1.3231626354857817E+00 
    1.3031290487361689E+00 
    1.2858397954554579E+00 
    1.2715066954199055E+00 
    1.2603096659280151E+00 
    1.2522972226185813E+00 
    1.2475797599332954E+00 
    1.5618965863352259E+00 
    1.5401566278174774E+00 
    1.5097460564429122E+00 
    1.4774619279516492E+00 
    1.4458696150607331E+00 
    1.4157918975445498E+00 
    1.3874641711047508E+00 
    1.3609782751047348E+00 
    1.3364394846385230E+00 
    1.3140108573649134E+00 
    1.2939179595372750E+00 
    1.2764330366100742E+00 
    1.2618413041740182E+00 
    1.2503834235927160E+00 
    1.2421564085759795E+00 
    1.2373038111132428E+00 
    1.5115311793187658E+00 
    1.4985936825877006E+00 
    1.4774619279519385E+00 
    1.4522918294255109E+00 
    1.4255827710040632E+00 
    1.3986787215688226E+00 
    1.3723111682508859E+00 
    1.3469347057488195E+00 
    1.3229046163727971E+00 
    1.3005600556622456E+00 
    1.2802598919980854E+00 
    1.2623873163385542E+00 
    1.2473270368669993E+00 
    1.2354097467077474E+00 
    1.2268111667858461E+00 
    1.2217269171513312E+00 
    1.4705058728107221E+00 
    1.4616376631872250E+00 
    1.4458696150612373E+00 
    1.4255827710042979E+00 
    1.4026673804887597E+00 
    1.3784331751084502E+00 
    1.3537693676718039E+00 
    1.3293193095965896E+00 
    1.3056078924088952E+00 
    1.2831198910564068E+00 
    1.2623437846008501E+00 
    1.2437859483088543E+00 
    1.2279522830768799E+00 
    1.2152959973441710E+00 
    1.2061053217478361E+00 
    1.2006499765817669E+00 
    1.4352252026419028E+00 
    1.4284378239438882E+00 
    1.4157918975452171E+00 
    1.3986787215692440E+00 
    1.3784331751086474E+00 
    1.3561543081826928E+00 
    1.3327092154597393E+00 
    1.3088025404743429E+00 
    1.2850518612686781E+00 
    1.2620469136366572E+00 
    1.2403912280808103E+00 
    1.2207193731611974E+00 
    1.2036826332564872E+00 
    1.1898943012003651E+00 
    1.1797954451078625E+00 
    1.1737645337014972E+00 
    1.4039574153057703E+00 
    1.3982963129618926E+00 
    1.3874641711055442E+00 
    1.3723111682514577E+00 
    1.3537693676721680E+00 
    1.3327092154599138E+00 
    1.3099004692257563E+00 
    1.2860318012248768E+00 
    1.2617537727538941E+00 
    1.2377219870875569E+00 
    1.2146366412065015E+00 
    1.1932634230072812E+00 
    1.1744264883979241E+00 
    1.1589458845159231E+00 
    1.1474796092570356E+00 
    1.1405760131969036E+00 
    1.3758459248371373E+00 
    1.3707961996810201E+00 
    1.3609782751056214E+00 
    1.3469347057495082E+00 
    1.3293193095970928E+00 
    1.3088025404746726E+00 
    1.2860318012250409E+00 
    1.2616353133789782E+00 
    1.2362510763177803E+00 
    1.2105636598041241E+00 
    1.1853473318799925E+00 
    1.1614990952673383E+00 
    1.1400447610599358E+00 
    1.1220763182003914E+00 
    1.1085714101382311E+00 
    1.1003505626951990E+00 
    1.3504974414244426E+00 
    1.3457550818638313E+00 
    1.3364394846393268E+00 
    1.3229046163734588E+00 
    1.3056078924094259E+00 
    1.2850518612690860E+00 
    1.2617537727541814E+00 
    1.2362510763179402E+00 
    1.2091291479329538E+00 
    1.1810608612164573E+00 
    1.1528612949863351E+00 
    1.1255473799849107E+00 
    1.1003731742284903E+00 
    1.0787917217789063E+00 
    1.0622555444536377E+00 
    1.0520319731799750E+00 
    1.3277886410703297E+00 
    1.3231626354864772E+00 
    1.3140108573655223E+00 
    1.3005600556627821E+00 
    1.2831198910568844E+00 
    1.2620469136370849E+00 
    1.2377219870879390E+00 
    1.2105636598044522E+00 
    1.1810608612166664E+00 
    1.1498203859697498E+00 
    1.1176415626257790E+00 
    1.0856202185446611E+00 
    1.0552462445861868E+00 
    1.0284355629033268E+00 
    1.0073490600619164E+00 
    9.9402301732050147E-01 
    1.3077610712034731E+00 
    1.3031290487366354E+00 
    1.2939179595377097E+00 
    1.2802598919985100E+00 
    1.2623437846012833E+00 
    1.2403912280812679E+00 
    1.2146366412069944E+00 
    1.1853473318805197E+00 
    1.1528612949868022E+00 
    1.1176415626260490E+00 
    1.0803731943732113E+00 
    1.0421291805992405E+00 
    1.0045756465495406E+00 
    9.7016260259388887E-01 
    9.4209747563724500E-01 
    9.2380056490802709E-01 
    1.2905517262901316E+00 
    1.2858397954557335E+00 
    1.2764330366103638E+00 
    1.2623873163388883E+00 
    1.2437859483092624E+00 
    1.2207193731617052E+00 
    1.1932634230079116E+00 
    1.1614990952681052E+00 
    1.1255473799856932E+00 
    1.0856202185452692E+00 
    1.0421291805995914E+00 
    9.9591391573059285E-01 
    9.4859643206842847E-01 
    9.0307672419572904E-01 
    8.6398205344871171E-01 
    8.3726604073971567E-01 
    1.2763333371205059E+00 
    1.2715066954200327E+00 
    1.2618413041741980E+00 
    1.2473270368672738E+00 
    1.2279522830772893E+00 
    1.2036826332570709E+00 
    1.1744264883987230E+00 
    1.1400447610609850E+00 
    1.1003731742296470E+00 
    1.0552462445872037E+00 
    1.0045756465503284E+00 
    9.4859643206888500E-01 
    8.8835270121018484E-01 
    8.2663253829185290E-01 
    7.6949174339844462E-01 
    7.2734430458682531E-01 
    1.2652547296974710E+00 
    1.2603096659280415E+00 
    1.2503834235928268E+00 
    1.2354097467079965E+00 
    1.2152959973446118E+00 
    1.1898943012010528E+00 
    1.1589458845169189E+00 
    1.1220763182017581E+00 
    1.0787917217804852E+00 
    1.0284355629048103E+00 
    9.7016260259518405E-01 
    9.0307672419673346E-01 
    8.2663253829243089E-01 
    7.4181423216421816E-01 
    6.5425084238674114E-01 
    5.8048495513991583E-01 
    1.2573407178748157E+00 
    1.2522972226186011E+00 
    1.2421564085761037E+00 
    1.2268111667861410E+00 
    1.2061053217483679E+00 
    1.1797954451087029E+00 
    1.1474796092582662E+00 
    1.1085714101399431E+00 
    1.0622555444556547E+00 
    1.0073490600638602E+00 
    9.4209747563901480E-01 
    8.6398205345019219E-01 
    7.6949174339947168E-01 
    6.5425084238709441E-01 
    5.1555922092082995E-01 
    3.6661091139301538E-01 
    1.2526856464747762E+00 
    1.2475797599333351E+00 
    1.2373038111134029E+00 
    1.2217269171516911E+00 
    1.2006499765824046E+00 
    1.1737645337024998E+00 
    1.1405760131983727E+00 
    1.1003505626972514E+00 
    1.0520319731824141E+00 
    9.9402301732288090E-01 
    9.2380056491023332E-01 
    8.3726604074161026E-01 
    7.2734430458818677E-01 
    5.8048495514033605E-01 
    3.6661091139252444E-01 
    0.0000000000000000E+00 

SCALARS Saturarion double 1 
LOOKUP_TABLE default 

    1.0000000000000000E+00 
    9.6554897460439082E-01 
    9.3383339403264254E-01 
    8.9897565037474481E-01 
    8.6266685473347504E-01 
    8.2633188635717980E-01 
    7.9039813847230911E-01 
    7.5501027086964922E-01 
    7.1983241235072548E-01 
    6.8452682634859863E-01 
    6.4812614477425912E-01 
    6.0926586732922028E-01 
    5.6480180153794213E-01 
    5.0850222600095607E-01 
    4.1919937907896121E-01 
    2.1908215987969337E-01 
    9.6554897460454547E-01 
    9.4146277846054827E-01 
    9.1257318974959811E-01 
    8.8078526496607779E-01 
    8.4741455836511315E-01 
    8.1371038649614547E-01 
    7.8006633766267330E-01 
    7.4669609257898273E-01 
    7.1328980293220567E-01 
    6.7951349714914566E-01 
    6.4444453365803867E-01 
    6.0675996131193377E-01 
    5.6334654792904992E-01 
    5.0785020941658199E-01 
    4.1915785173015996E-01 
    2.1929792094801762E-01 
    9.3383339403310239E-01 
    9.1257318974983392E-01 
    8.8661046233520024E-01 
    8.5807248726167507E-01 
    8.2801045345609214E-01 
    7.9739364086662479E-01 
    7.6658639312438304E-01 
    7.3582004129222012E-01 
    7.0480645776641915E-01 
    6.7310028552129664E-01 
    6.3985952070070451E-01 
    6.0377861093357044E-01 
    5.6184555890870025E-01 
    5.0740892145429661E-01 
    4.1962556252361027E-01 
    2.2064619011366107E-01 
    8.9897565037548344E-01 
    8.8078526496656595E-01 
    8.5807248726190966E-01 
    8.3290262536279380E-01 
    8.0629877300068198E-01 
    7.7904475924228145E-01 
    7.5143712071763979E-01 
    7.2357288155580002E-01 
    6.9523972675823165E-01 
    6.6594541987566558E-01 
    6.3490429251603553E-01 
    6.0066530715623179E-01 
    5.6054611502004581E-01 
    5.0724700094793052E-01 
    4.2075815161607893E-01 
    2.2343932809731318E-01 
    8.6266685473433280E-01 
    8.4741455836584922E-01 
    8.2801045345656521E-01 
    8.0629877300090680E-01 
    7.8320445090443602E-01 
    7.5936318901262045E-01 
    7.3502479178268931E-01 
    7.1032274654281935E-01 
    6.8494271555547459E-01 
    6.5848174345007104E-01 
    6.2999461370501486E-01 
    5.9815950074582669E-01 
    5.5984443362395231E-01 
    5.0881100856052797E-01 
    4.2403142744675959E-01 
    2.2983203819524109E-01 
    8.2633188635831112E-01 
    8.1371038649707039E-01 
    7.9739364086729625E-01 
    7.7904475924269445E-01 
    7.5936318901281274E-01 
    7.3897674376030975E-01 
    7.1795681865250882E-01 
    6.9647553337983048E-01 
    6.7413827475146204E-01 
    6.5062022270226738E-01 
    6.2490600727204582E-01 
    5.9563781919684167E-01 
    5.5966646758063088E-01 
    5.1077963430292739E-01 
    4.2829735041619316E-01 
    2.3844043361029363E-01 
    7.9039813847369766E-01 
    7.8006633766381606E-01 
    7.6658639312523158E-01 
    7.5143712071822899E-01 
    7.3502479178304270E-01 
    7.1795681865267447E-01 
    7.0023818286989381E-01 
    6.8203468228202691E-01 
    6.6290352216751047E-01 
    6.4244888235676267E-01 
    6.1970165147667677E-01 
    5.9325784477926891E-01 
    5.6006298682167233E-01 
    5.1363353906598663E-01 
    4.3399201223442418E-01 
    2.4960593279567569E-01 
    7.5501027087119155E-01 
    7.4669609258026726E-01 
    7.3582004129324374E-01 
    7.2357288155655963E-01 
    7.1032274654332939E-01 
    6.9647553338013768E-01 
    6.8203468228216124E-01 
    6.6707908528712534E-01 
    6.5123000163692302E-01 
    6.3399973750617822E-01 
    6.1444440944748369E-01 
    5.9105875636633809E-01 
    5.6104776972442327E-01 
    5.1745266998296979E-01 
    4.4136354914887810E-01 
    2.6348789288615426E-01 
    7.1983241235196704E-01 
    7.1328980293326305E-01 
    7.0480645776727435E-01 
    6.9523972675886936E-01 
    6.8494271555591979E-01 
    6.7413827475174271E-01 
    6.6290352216765924E-01 
    6.5123000163696465E-01 
    6.3878620070725201E-01 
    6.2499726598677008E-01 
    6.0893614249108818E-01 
    5.8911793176544447E-01 
    5.6258950275463226E-01 
    5.2302348762282869E-01 
    4.5147206815877788E-01 
    2.8135096357600686E-01 
    6.8452682634955775E-01 
    6.7951349714996023E-01 
    6.7310028552194212E-01 
    6.6594541987616163E-01 
    6.5848174345043331E-01 
    6.5062022270251185E-01 
    6.4244888235690190E-01 
    6.3399973750624661E-01 
    6.2499726598677985E-01 
    6.1482132079674823E-01 
    6.0253471956623894E-01 
    5.8666937756720205E-01 
    5.6431924636871189E-01 
    5.2930618929460005E-01 
    4.6352689845794809E-01 
    3.0237561565664828E-01 
    6.4812614477497088E-01 
    6.4444453365864662E-01 
    6.3985952070118501E-01 
    6.3490429251640546E-01 
    6.2999461370528098E-01 
    6.2490600727222845E-01 
    6.1970165147679046E-01 
    6.1444440944752021E-01 
    6.0893614249106942E-01 
    6.0253471956620241E-01 
    5.9434707876316661E-01 
    5.8294356906813005E-01 
    5.6552115133514369E-01 
    5.3605573500388759E-01 
    4.7757737280842721E-01 
    3.2709039296684084E-01 
    6.0926586732969601E-01 
    6.0675996131232812E-01 
    6.0377861093387852E-01 
    6.0066530715645827E-01 
    5.9815950074597535E-01 
    5.9563781919691694E-01 
    5.9325784477928178E-01 
    5.9105875636629768E-01 
    5.8911793176535276E-01 
    5.8666937756709381E-01 
    5.8294356906805289E-01 
    5.7658754357186004E-01 
    5.6493461621909324E-01 
    5.4229288485547444E-01 
    4.9298818770658948E-01 
    3.5546709832406870E-01 
    5.6480180153811843E-01 
    5.6334654792918415E-01 
    5.6184555890878785E-01 
    5.6054611502008411E-01 
    5.5984443362393121E-01 
    5.5966646758055805E-01 
    5.6006298682154387E-01 
    5.6104776972424431E-01 
    5.6258950275441566E-01 
    5.6431924636848618E-01 
    5.6552115133495762E-01 
    5.6493461621898211E-01 
    5.6015511624726366E-01 
    5.4601672675560675E-01 
    5.0848629416878488E-01 
    3.8836073782234565E-01 
    5.0850222600073236E-01 
    5.0785020941635761E-01 
    5.0740892145406113E-01 
    5.0724700094767372E-01 
    5.0881100856024142E-01 
    5.1077963430261408E-01 
    5.1363353906562648E-01 
    5.1745266998255990E-01 
    5.2302348762240580E-01 
    5.2930618929419537E-01 
    5.3605573500354675E-01 
    5.4229288485523008E-01 
    5.4601672675548796E-01 
    5.4261517455589647E-01 
    5.2007924763195978E-01 
    4.2399508058243740E-01 
    4.1919937907881505E-01 
    4.1915785173000381E-01 
    4.1962556252345384E-01 
    4.2075815161589969E-01 
    4.2403142744654476E-01 
    4.2829735041592110E-01 
    4.3399201223407208E-01 
    4.4136354914841852E-01 
    4.5147206815828311E-01 
    4.6352689845745909E-01 
    4.7757737280797635E-01 
    4.9298818770621988E-01 
    5.0848629416854330E-01 
    5.2007924763185831E-01 
    5.1788086171679515E-01 
    4.5673498950050984E-01 
    2.1908215987966204E-01 
    2.1929792094797687E-01 
    2.2064619011361633E-01 
    2.2343932809723990E-01 
    2.2983203819508760E-01 
    2.3844043361002287E-01 
    2.4960593279525589E-01 
    2.6348789288554531E-01 
    2.8135096357538847E-01 
    3.0237561565607068E-01 
    3.2709039296635029E-01 
    3.5546709832370638E-01 
    3.8836073782217079E-01 
    4.2399508058248453E-01 
    4.5673498950053287E-01 
    4.5595572838883286E-01 
