# vtk DataFile Version 2.0
Pressure Field Data 
ASCII 
DATASET UNSTRUCTURED_GRID 

POINTS 289 double 

    0.0000000000000000E+00     0.0000000000000000E+00     0.0000000000000000E+00 
    1.0000000000000000E+00     0.0000000000000000E+00     0.0000000000000000E+00 
    1.0000000000000000E+00     1.0000000000000000E+00     0.0000000000000000E+00 
    0.0000000000000000E+00     1.0000000000000000E+00     0.0000000000000000E+00 
    6.2499999999872928E-02     0.0000000000000000E+00     0.0000000000000000E+00 
    1.2499999999977310E-01     0.0000000000000000E+00     0.0000000000000000E+00 
    1.8749999999959341E-01     0.0000000000000000E+00     0.0000000000000000E+00 
    2.4999999999941089E-01     0.0000000000000000E+00     0.0000000000000000E+00 
    3.1249999999922851E-01     0.0000000000000000E+00     0.0000000000000000E+00 
    3.7499999999904610E-01     0.0000000000000000E+00     0.0000000000000000E+00 
    4.3749999999886358E-01     0.0000000000000000E+00     0.0000000000000000E+00 
    4.9999999999869210E-01     0.0000000000000000E+00     0.0000000000000000E+00 
    5.6249999999884603E-01     0.0000000000000000E+00     0.0000000000000000E+00 
    6.2499999999901090E-01     0.0000000000000000E+00     0.0000000000000000E+00 
    6.8749999999917577E-01     0.0000000000000000E+00     0.0000000000000000E+00 
    7.4999999999934064E-01     0.0000000000000000E+00     0.0000000000000000E+00 
    8.1249999999950551E-01     0.0000000000000000E+00     0.0000000000000000E+00 
    8.7499999999967026E-01     0.0000000000000000E+00     0.0000000000000000E+00 
    9.3749999999983513E-01     0.0000000000000000E+00     0.0000000000000000E+00 
    1.0000000000000000E+00     6.2499999999872928E-02     0.0000000000000000E+00 
    1.0000000000000000E+00     1.2499999999977310E-01     0.0000000000000000E+00 
    1.0000000000000000E+00     1.8749999999959341E-01     0.0000000000000000E+00 
    1.0000000000000000E+00     2.4999999999941089E-01     0.0000000000000000E+00 
    1.0000000000000000E+00     3.1249999999922851E-01     0.0000000000000000E+00 
    1.0000000000000000E+00     3.7499999999904610E-01     0.0000000000000000E+00 
    1.0000000000000000E+00     4.3749999999886358E-01     0.0000000000000000E+00 
    1.0000000000000000E+00     4.9999999999869210E-01     0.0000000000000000E+00 
    1.0000000000000000E+00     5.6249999999884603E-01     0.0000000000000000E+00 
    1.0000000000000000E+00     6.2499999999901090E-01     0.0000000000000000E+00 
    1.0000000000000000E+00     6.8749999999917577E-01     0.0000000000000000E+00 
    1.0000000000000000E+00     7.4999999999934064E-01     0.0000000000000000E+00 
    1.0000000000000000E+00     8.1249999999950551E-01     0.0000000000000000E+00 
    1.0000000000000000E+00     8.7499999999967026E-01     0.0000000000000000E+00 
    1.0000000000000000E+00     9.3749999999983513E-01     0.0000000000000000E+00 
    9.3749999999973976E-01     1.0000000000000000E+00     0.0000000000000000E+00 
    8.7499999999950118E-01     1.0000000000000000E+00     0.0000000000000000E+00 
    8.1249999999991318E-01     1.0000000000000000E+00     0.0000000000000000E+00 
    7.5000000000034706E-01     1.0000000000000000E+00     0.0000000000000000E+00 
    6.8750000000078049E-01     1.0000000000000000E+00     0.0000000000000000E+00 
    6.2500000000121403E-01     1.0000000000000000E+00     0.0000000000000000E+00 
    5.6250000000164757E-01     1.0000000000000000E+00     0.0000000000000000E+00 
    5.0000000000205946E-01     1.0000000000000000E+00     0.0000000000000000E+00 
    4.3750000000182099E-01     1.0000000000000000E+00     0.0000000000000000E+00 
    3.7500000000156092E-01     1.0000000000000000E+00     0.0000000000000000E+00 
    3.1250000000130068E-01     1.0000000000000000E+00     0.0000000000000000E+00 
    2.5000000000104050E-01     1.0000000000000000E+00     0.0000000000000000E+00 
    1.8750000000078040E-01     1.0000000000000000E+00     0.0000000000000000E+00 
    1.2500000000052031E-01     1.0000000000000000E+00     0.0000000000000000E+00 
    6.2500000000260125E-02     1.0000000000000000E+00     0.0000000000000000E+00 
    0.0000000000000000E+00     9.3749999999973976E-01     0.0000000000000000E+00 
    0.0000000000000000E+00     8.7499999999950118E-01     0.0000000000000000E+00 
    0.0000000000000000E+00     8.1249999999991318E-01     0.0000000000000000E+00 
    0.0000000000000000E+00     7.5000000000034706E-01     0.0000000000000000E+00 
    0.0000000000000000E+00     6.8750000000078049E-01     0.0000000000000000E+00 
    0.0000000000000000E+00     6.2500000000121403E-01     0.0000000000000000E+00 
    0.0000000000000000E+00     5.6250000000164757E-01     0.0000000000000000E+00 
    0.0000000000000000E+00     5.0000000000205946E-01     0.0000000000000000E+00 
    0.0000000000000000E+00     4.3750000000182099E-01     0.0000000000000000E+00 
    0.0000000000000000E+00     3.7500000000156092E-01     0.0000000000000000E+00 
    0.0000000000000000E+00     3.1250000000130068E-01     0.0000000000000000E+00 
    0.0000000000000000E+00     2.5000000000104050E-01     0.0000000000000000E+00 
    0.0000000000000000E+00     1.8750000000078040E-01     0.0000000000000000E+00 
    0.0000000000000000E+00     1.2500000000052031E-01     0.0000000000000000E+00 
    0.0000000000000000E+00     6.2500000000260125E-02     0.0000000000000000E+00 
    6.2499999999897131E-02     6.2500000000235922E-02     0.0000000000000000E+00 
    6.2499999999921327E-02     1.2500000000047351E-01     0.0000000000000000E+00 
    6.2499999999945530E-02     1.8750000000070621E-01     0.0000000000000000E+00 
    6.2499999999969733E-02     2.5000000000093858E-01     0.0000000000000000E+00 
    6.2499999999993928E-02     3.1250000000117117E-01     0.0000000000000000E+00 
    6.2500000000018124E-02     3.7500000000140382E-01     0.0000000000000000E+00 
    6.2500000000042327E-02     4.3750000000163619E-01     0.0000000000000000E+00 
    6.2500000000066530E-02     5.0000000000184897E-01     0.0000000000000000E+00 
    6.2500000000090733E-02     5.6250000000147260E-01     0.0000000000000000E+00 
    6.2500000000114922E-02     6.2500000000107636E-01     0.0000000000000000E+00 
    6.2500000000139125E-02     6.8750000000068034E-01     0.0000000000000000E+00 
    6.2500000000163328E-02     7.5000000000028411E-01     0.0000000000000000E+00 
    6.2500000000187531E-02     8.1249999999988787E-01     0.0000000000000000E+00 
    6.2500000000211720E-02     8.7499999999951172E-01     0.0000000000000000E+00 
    6.2500000000235922E-02     9.3749999999974565E-01     0.0000000000000000E+00 
    1.2499999999981980E-01     6.2500000000211733E-02     0.0000000000000000E+00 
    1.2499999999986650E-01     1.2500000000042691E-01     0.0000000000000000E+00 
    1.2499999999991319E-01     1.8750000000063199E-01     0.0000000000000000E+00 
    1.2499999999995989E-01     2.5000000000083678E-01     0.0000000000000000E+00 
    1.2500000000000661E-01     3.1250000000104172E-01     0.0000000000000000E+00 
    1.2500000000005329E-01     3.7500000000124661E-01     0.0000000000000000E+00 
    1.2500000000010000E-01     4.3750000000145117E-01     0.0000000000000000E+00 
    1.2500000000014669E-01     5.0000000000163858E-01     0.0000000000000000E+00 
    1.2500000000019340E-01     5.6250000000129741E-01     0.0000000000000000E+00 
    1.2500000000024011E-01     6.2500000000093847E-01     0.0000000000000000E+00 
    1.2500000000028680E-01     6.8750000000057998E-01     0.0000000000000000E+00 
    1.2500000000033351E-01     7.5000000000022127E-01     0.0000000000000000E+00 
    1.2500000000038020E-01     8.1249999999986211E-01     0.0000000000000000E+00 
    1.2500000000042691E-01     8.7499999999952238E-01     0.0000000000000000E+00 
    1.2500000000047359E-01     9.3749999999975164E-01     0.0000000000000000E+00 
    1.8749999999966760E-01     6.2500000000187531E-02     0.0000000000000000E+00 
    1.8749999999974179E-01     1.2500000000038020E-01     0.0000000000000000E+00 
    1.8749999999981601E-01     1.8750000000055780E-01     0.0000000000000000E+00 
    1.8749999999989009E-01     2.5000000000073502E-01     0.0000000000000000E+00 
    1.8749999999996431E-01     3.1250000000091221E-01     0.0000000000000000E+00 
    1.8750000000003850E-01     3.7500000000108941E-01     0.0000000000000000E+00 
    1.8750000000011269E-01     4.3750000000126649E-01     0.0000000000000000E+00 
    1.8750000000018691E-01     5.0000000000142808E-01     0.0000000000000000E+00 
    1.8750000000026110E-01     5.6250000000112244E-01     0.0000000000000000E+00 
    1.8750000000033529E-01     6.2500000000080080E-01     0.0000000000000000E+00 
    1.8750000000040951E-01     6.8750000000047962E-01     0.0000000000000000E+00 
    1.8750000000048361E-01     7.5000000000015843E-01     0.0000000000000000E+00 
    1.8750000000055780E-01     8.1249999999983680E-01     0.0000000000000000E+00 
    1.8750000000063199E-01     8.7499999999953304E-01     0.0000000000000000E+00 
    1.8750000000070621E-01     9.3749999999975764E-01     0.0000000000000000E+00 
    2.4999999999951281E-01     6.2500000000163314E-02     0.0000000000000000E+00 
    2.4999999999961461E-01     1.2500000000033351E-01     0.0000000000000000E+00 
    2.4999999999971650E-01     1.8750000000048361E-01     0.0000000000000000E+00 
    2.4999999999981831E-01     2.5000000000063310E-01     0.0000000000000000E+00 
    2.4999999999992020E-01     3.1250000000078260E-01     0.0000000000000000E+00 
    2.5000000000002198E-01     3.7500000000093209E-01     0.0000000000000000E+00 
    2.5000000000012390E-01     4.3750000000108180E-01     0.0000000000000000E+00 
    2.5000000000022571E-01     5.0000000000121769E-01     0.0000000000000000E+00 
    2.5000000000032763E-01     5.6250000000094724E-01     0.0000000000000000E+00 
    2.5000000000042938E-01     6.2500000000066314E-01     0.0000000000000000E+00 
    2.5000000000053119E-01     6.8750000000037925E-01     0.0000000000000000E+00 
[...]
CELL_DATA 256 
SCALARS Pressure double 1 
LOOKUP_TABLE default 

    2.2635333518134084E+00 
    2.1560009768956307E+00 
    2.0845671470049481E+00 
    2.0300538240851984E+00 
    1.9845434231651569E+00 
    1.9445549758257044E+00 
    1.9084589194927086E+00 
    1.8754932144660401E+00 
    1.8453570097642227E+00 
    1.8180161787005666E+00 
    1.7935879823270124E+00 
    1.7722396376069249E+00 
    1.7540439487091284E+00 
    1.7387935564663315E+00 
    1.7264452549908209E+00 
    1.7198012520538100E+00 
    2.1560009768962081E+00 
    2.1105899443356759E+00 
    2.0613277444302986E+00 
    2.0158655971177732E+00 
    1.9745655681409586E+00 
    1.9367349909078524E+00 
    1.9017993852317223E+00 
    1.8694485726908596E+00 
    1.8396012634019110E+00 
    1.8123431128626355E+00 
    1.7878663124710816E+00 
    1.7663931011610374E+00 
    1.7480396795853763E+00 
    1.7326200136677556E+00 
    1.7201128060857804E+00 
    1.7133851746799800E+00 
    2.0845671470057772E+00 
    2.0613277444307005E+00 
    2.0281924894178283E+00 
    1.9923512179240341E+00 
    1.9566354210827135E+00 
    1.9220535233482379E+00 
    1.8889855020453756E+00 
    1.8576464013937612E+00 
    1.8282563053047640E+00 
    1.8010865121091599E+00 
    1.7764571185634650E+00 
    1.7546901752409809E+00 
    1.7359858357346538E+00 
    1.7202076125577206E+00 
    1.7073810727935279E+00 
    1.7004876437255341E+00 
    2.0300538240862123E+00 
    2.0158655971184567E+00 
    1.9923512179243588E+00 
    1.9639206660694715E+00 
    1.9332984410731873E+00 
    1.9020102588882326E+00 
    1.8709394582033898E+00 
    1.8406751508855324E+00 
    1.8117003193633558E+00 
    1.7844773031781282E+00 
    1.7594773996351161E+00 
    1.7371541777051709E+00 
    1.7178248508789624E+00 
    1.7014415132477463E+00 
    1.6881106284516298E+00 
    1.6809584681624177E+00 
    1.9845434231663233E+00 
    1.9745655681418481E+00 
    1.9566354210832884E+00 
    1.9332984410734566E+00 
    1.9066204888737448E+00 
    1.8780727432873967E+00 
    1.8486910344567176E+00 
    1.8192570060693376E+00 
    1.7904328720919771E+00 
    1.7628422079885504E+00 
    1.7371080770344007E+00 
    1.7138359889184522E+00 
    1.6934909927177442E+00 
    1.6761627588366697E+00 
    1.6620672970020736E+00 
    1.6545110924375357E+00 
    1.9445549758270062E+00 
    1.9367349909089044E+00 
    1.9220535233490086E+00 
    1.9020102588887238E+00 
    1.8780727432876290E+00 
    1.8514754605127297E+00 
    1.8232191792886905E+00 
    1.7941439682514686E+00 
    1.7650105299389625E+00 
    1.7365622228517499E+00 
    1.7095627154798676E+00 
    1.6847825414932536E+00 
    1.6628749749808771E+00 
    1.6441212869895101E+00 
    1.6288734579258277E+00 
    1.6206925545293633E+00 
    1.9084589194941293E+00 
    1.9017993852329069E+00 
    1.8889855020463042E+00 
    1.8709394582040633E+00 
    1.8486910344571503E+00 
    1.8232191792888996E+00 
    1.7954093287535084E+00 
    1.7660762963501877E+00 
    1.7360143803395001E+00 
    1.7060449432465159E+00 
    1.6770558324117113E+00 
    1.6499946254799089E+00 
    1.6257528593077994E+00 
    1.6048756144186760E+00 
    1.5879295508141154E+00 
    1.5788407231658865E+00 
    1.8754932144675525E+00 
    1.8694485726921461E+00 
    1.8576464013948137E+00 
    1.8406751508863555E+00 
    1.8192570060699420E+00 
    1.7941439682518678E+00 
    1.7660762963503882E+00 
    1.7357918389093996E+00 
    1.7040650800728234E+00 
    1.6717521946104434E+00 
    1.6398404821557582E+00 
    1.6094630737653635E+00 
    1.5818020131821764E+00 
    1.5577761788454090E+00 
    1.5383326480794823E+00 
    1.5279192591590547E+00 
    1.8453570097655425E+00 
    1.8396012634030503E+00 
    1.8282563053057275E+00 
    1.8117003193641534E+00 
    1.7904328720926206E+00 
    1.7650105299394603E+00 
    1.7360143803398540E+00 
    1.7040650800730226E+00 
    1.6698652867879258E+00 
    1.6342530388146648E+00 
    1.5982717462531653E+00 
    1.5632295073141922E+00 
    1.5306456421573829E+00 
    1.5019580801071801E+00 
    1.4787313033043841E+00 
    1.4662089728468464E+00 
    1.8180161787015234E+00 
    1.8123431128634755E+00 
    1.8010865121098978E+00 
    1.7844773031787817E+00 
    1.7628422079891346E+00 
    1.7365622228522772E+00 
    1.7060449432469909E+00 
    1.6717521946108567E+00 
    1.6342530388149312E+00 
    1.5942908547358137E+00 
    1.5528846657230744E+00 
    1.5114596878374973E+00 
    1.4718880206771574E+00 
    1.4362751892213499E+00 
    1.4071093183419470E+00 
    1.3909476542833203E+00 
    1.7935879823276468E+00 
    1.7878663124716532E+00 
    1.7764571185639966E+00 
    1.7594773996356379E+00 
    1.7371080770349361E+00 
    1.7095627154804374E+00 
    1.6770558324123301E+00 
    1.6398404821564265E+00 
    1.5982717462537637E+00 
    1.5528846657234230E+00 
    1.5045286357567986E+00 
    1.4545964858887686E+00 
    1.4052247263494948E+00 
    1.3592737379486481E+00 
    1.3205527618955988E+00 
    1.2978556464801108E+00 
    1.7722396376072860E+00 
    1.7663931011613807E+00 
    1.7546901752413393E+00 
    1.7371541777055861E+00 
    1.7138359889189607E+00 
    1.6847825414938902E+00 
    1.6499946254807036E+00 
    1.6094630737663398E+00 
    1.5632295073151994E+00 
    1.5114596878382882E+00 
    1.4545964858892302E+00 
    1.3936913443823946E+00 
    1.3308229330277468E+00 
    1.2694664691449260E+00 
    1.2151305080347112E+00 
    1.1804145928333507E+00 
    1.7540439487092674E+00 
    1.7480396795855349E+00 
    1.7359858357348756E+00 
    1.7178248508793028E+00 
    1.6934909927182540E+00 
    1.6628749749816094E+00 
    1.6257528593088078E+00 
    1.5818020131835147E+00 
    1.5306456421588774E+00 
    1.4718880206784875E+00 
    1.4052247263505397E+00 
    1.3308229330283594E+00 
    1.2499461562783891E+00 
    1.1658998913096428E+00 
    1.0857792140963680E+00 
    1.0284032640718170E+00 
    1.7387935564663033E+00 
    1.7326200136677770E+00 
    1.7202076125578469E+00 
    1.7014415132480476E+00 
    1.6761627588372130E+00 
    1.6441212869903687E+00 
    1.6048756144199325E+00 
    1.5577761788471545E+00 
    1.5019580801092238E+00 
    1.4362751892232974E+00 
    1.3592737379503776E+00 
    1.2694664691462878E+00 
    1.1658998913104373E+00 
    1.0494157520861624E+00 
    9.2612603433264884E-01 
    8.2277150321517101E-01 
    1.7264452549907654E+00 
    1.7201128060857886E+00 
    1.7073810727936667E+00 
    1.6881106284519842E+00 
    1.6620672970027277E+00 
    1.6288734579268760E+00 
    1.5879295508156674E+00 
    1.5383326480816668E+00 
    1.4787313033069891E+00 
    1.4071093183445009E+00 
    1.3205527618979720E+00 
    1.2151305080367314E+00 
    1.0857792140977851E+00 
    9.2612603433313423E-01 
    7.3069759381981203E-01 
    5.2011158580668249E-01 
    1.7198012520537731E+00 
    1.7133851746800157E+00 
    1.7004876437257204E+00 
    1.6809584681628542E+00 
    1.6545110924383224E+00 
    1.6206925545306132E+00 
    1.5788407231677337E+00 
    1.5279192591616624E+00 
    1.4662089728499765E+00 
    1.3909476542864381E+00 
    1.2978556464830788E+00 
    1.1804145928359595E+00 
    1.0284032640737149E+00 
    8.2277150321574621E-01 
    5.2011158580596484E-01 
    0.0000000000000000E+00 

SCALARS Saturarion double 1 
LOOKUP_TABLE default 

    1.0000000000000000E+00 
    9.4871244368187124E-01 
    9.0469563882404402E-01 
    8.5897781049370725E-01 
    8.1351308688012147E-01 
    7.6971794051671960E-01 
    7.2762550518975022E-01 
    6.8704715130010074E-01 
    6.4725753543023801E-01 
    6.0757704154905279E-01 
    5.6637384268336477E-01 
    5.2087127446027992E-01 
    4.6339241537936504E-01 
    3.7499057014593967E-01 
    2.0163703683057546E-01 
    1.8665432812096757E-02 
    9.4871244368215069E-01 
    9.1494248048366700E-01 
    8.7631549765496053E-01 
    8.3572358044948314E-01 
    7.9470003103521702E-01 
    7.5458413361579868E-01 
    7.1549845482144747E-01 
    6.7743140738011121E-01 
    6.3974411507607620E-01 
    6.0179535610236745E-01 
    5.6202948256546670E-01 
    5.1772071129466501E-01 
    4.6112406595634642E-01 
    3.7271550464448339E-01 
    1.9761236052637515E-01 
    1.7353917033463683E-02 
    9.0469563882465232E-01 
    8.7631549765523264E-01 
    8.4286119896094081E-01 
    8.0743051582266689E-01 
    7.7122261838269435E-01 
    7.3528808174845006E-01 
    6.9982521104114326E-01 
    6.6492481436932260E-01 
    6.3003229277711914E-01 
    5.9439919602881941E-01 
    5.5660029858731741E-01 
    5.1393711591119695E-01 
    4.5874030100833546E-01 
    3.7052720483661095E-01 
    1.9392181091544736E-01 
    1.6249674821475883E-02 
    8.5897781049459510E-01 
    8.3572358045010364E-01 
    8.0743051582296155E-01 
    7.7696912516403405E-01 
    7.4553260571368818E-01 
    7.1396903609320894E-01 
    6.8246816212479489E-01 
    6.5100221726931284E-01 
    6.1917081048808642E-01 
    5.8620120278253596E-01 
    5.5077039185803778E-01 
    5.0996925490804634E-01 
    4.5661943938305793E-01 
    3.6847447656044136E-01 
    1.9094906956771260E-01 
    1.5471629288038267E-02 
    8.1351308688124369E-01 
    7.9470003103603060E-01 
    7.7122261838326012E-01 
    7.4553260571393432E-01 
    7.1870206956345462E-01 
    6.9140466868196626E-01 
    6.6382396418810630E-01 
    6.3602974627666831E-01 
    6.0752973948417532E-01 
    5.7771199921958161E-01 
    5.4508582753647505E-01 
    5.0697506678236515E-01 
    4.5541453215179856E-01 
    3.7017623959370471E-01 
    1.9586784138164323E-01 
    1.7672327539646468E-02 
    7.6971794051807196E-01 
    7.5458413361677878E-01 
    7.3528808174918470E-01 
    7.1396903609368856E-01 
    6.9140466868217443E-01 
    6.6828127546346072E-01 
    6.4457691377478510E-01 
    6.2044673641108772E-01 
    5.9532287746438639E-01 
    5.6873217424025468E-01 
    5.3912820977340459E-01 
    5.0385389408450221E-01 
    4.5492326633702435E-01 
    3.7230960418629772E-01 
    2.0215200864638311E-01 
    1.9873377514054932E-02 
    7.2762550519131852E-01 
    7.1549845482268282E-01 
    6.9982521104209827E-01 
    6.8246816212547212E-01 
    6.6382396418850298E-01 
    6.4457691377496196E-01 
    6.2464133942596156E-01 
    6.0418781375716424E-01 
    5.8260602215564883E-01 
    5.5935379512217354E-01 
    5.3297963380521629E-01 
    5.0083939573163394E-01 
    4.5523036507256448E-01 
    3.7582095329433379E-01 
    2.1089907874303723E-01 
    2.3611510032409591E-02 
    6.8704715130187000E-01 
    6.7743140738155472E-01 
    6.6492481437046613E-01 
    6.5100221727014995E-01 
    6.3602974627721764E-01 
    6.2044673641140868E-01 
    6.0418781375731467E-01 
    5.8732685662592565E-01 
    5.6935703269270266E-01 
    5.4963097678034967E-01 
    5.2676303143782155E-01 
    4.9803258049356819E-01 
    4.5642599171066184E-01 
    3.8090799235826489E-01 
    2.2318407805600946E-01 
    3.0292627919139947E-02 
    6.4725753543160225E-01 
    6.3974411507727902E-01 
    6.3003229277807271E-01 
    6.1917081048879496E-01 
    6.0752973948466837E-01 
    5.9532287746470547E-01 
    5.8260602215582613E-01 
    5.6935703269277227E-01 
    5.5514993720019523E-01 
    5.3923497552326893E-01 
    5.2029326706609991E-01 
    4.9574327505894888E-01 
    4.5861315843881578E-01 
    3.8982497863024040E-01 
    2.4290184590208236E-01 
    4.6060319158888668E-02 
    6.0757704155014292E-01 
    6.0179535610331070E-01 
    5.9439919602959312E-01 
    5.8620120278310561E-01 
    5.7771199921999639E-01 
    5.6873217424052958E-01 
    5.5935379512234784E-01 
    5.4963097678043982E-01 
    5.3923497552329280E-01 
    5.2735893435043080E-01 
    5.1271323446006667E-01 
    4.9286922216122969E-01 
    4.6135086595168245E-01 
    4.0028068754086338E-01 
    2.6684163020429669E-01 
    7.0770497427775053E-02 
    5.6637384268416846E-01 
    5.6202948256615548E-01 
    5.5660029858787097E-01 
    5.5077039185845200E-01 
    5.4508582753677837E-01 
    5.3912820977360787E-01 
    5.3297963380533619E-01 
    5.2676303143787717E-01 
    5.2029326706608670E-01 
    5.1271323446003292E-01 
    5.0283164696095772E-01 
    4.8841435489067170E-01 
    4.6365636510729685E-01 
    4.1215886365431259E-01 
    2.9484337695519069E-01 
    1.0835329402275086E-01 
    5.2087127446079229E-01 
    5.1772071129508479E-01 
    5.1393711591152758E-01 
    5.0996925490828315E-01 
    5.0697506678251547E-01 
    5.0385389408457992E-01 
    5.0083939573164882E-01 
    4.9803258049352439E-01 
    4.9574327505884525E-01 
    4.9286922216110335E-01 
    4.8841435489058332E-01 
    4.8036838449017849E-01 
    4.6363963565030869E-01 
    4.2387680650257153E-01 
    3.2554509800087555E-01 
    1.5568018893865765E-01 
    4.6339241537951820E-01 
    4.6112406595644578E-01 
    4.5874030100838459E-01 
    4.5661943938305261E-01 
    4.5541453215173155E-01 
    4.5492326633689273E-01 
    4.5523036507237552E-01 
    4.5642599171041698E-01 
    4.5861315843851957E-01 
    4.6135086595137981E-01 
    4.6365636510703984E-01 
    4.6363963565015681E-01 
    4.5699732515448305E-01 
    4.3187846514610129E-01 
    3.5689024797644464E-01 
    2.0847535303692519E-01 
    3.7499057014556147E-01 
    3.7271550464410841E-01 
    3.7052720483622753E-01 
    3.6847447656003651E-01 
    3.7017623959327495E-01 
    3.7230960418582038E-01 
    3.7582095329378806E-01 
    3.8090799235763528E-01 
    3.8982497862957921E-01 
    4.0028068754022122E-01 
    4.1215886365376131E-01 
    4.2387680650217424E-01 
    4.3187846514591138E-01 
    4.2629468123315378E-01 
    3.8075676187484042E-01 
    2.6108734605460088E-01 
    2.0163703683051895E-01 
    1.9761236052629180E-01 
    1.9392181091534108E-01 
    1.9094906956754454E-01 
    1.9586784138136512E-01 
    2.0215200864594482E-01 
    2.1089907874238370E-01 
    2.2318407805509244E-01 
    2.4290184590107389E-01 
    2.6684163020328111E-01 
    2.9484337695426438E-01 
    3.2554509800012454E-01 
    3.5689024797595720E-01 
    3.8075676187462615E-01 
    3.7671899551014060E-01 
    3.0352947953346299E-01 
    1.8665432812116002E-02 
    1.7353917033471927E-02 
    1.6249674821474575E-02 
    1.5471629288014844E-02 
    1.7672327539579428E-02 
    1.9873377513910481E-02 
    2.3611510032131924E-02 
    3.0292627918630358E-02 
    4.6060319158008539E-02 
    7.0770497426542400E-02 
    1.0835329402142158E-01 
    1.5568018893761668E-01 
    2.0847535303631973E-01 
    2.6108734605441997E-01 
    3.0352947953334425E-01 
    3.0206405652481144E-01 
