# vtk DataFile Version 2.0
Pressure Field Data 
ASCII 
DATASET UNSTRUCTURED_GRID 

POINTS 289 double 

    0.0000000000000000E+00     0.0000000000000000E+00     0.0000000000000000E+00 
    1.0000000000000000E+00     0.0000000000000000E+00     0.0000000000000000E+00 
    1.0000000000000000E+00     1.0000000000000000E+00     0.0000000000000000E+00 
    0.0000000000000000E+00     1.0000000000000000E+00     0.0000000000000000E+00 
    6.2499999999872928E-02     0.0000000000000000E+00     0.0000000000000000E+00 
    1.2499999999977310E-01     0.0000000000000000E+00     0.0000000000000000E+00 
    1.8749999999959341E-01     0.0000000000000000E+00     0.0000000000000000E+00 
    2.4999999999941089E-01     0.0000000000000000E+00     0.0000000000000000E+00 
    3.1249999999922851E-01     0.0000000000000000E+00     0.0000000000000000E+00 
    3.7499999999904610E-01     0.0000000000000000E+00     0.0000000000000000E+00 
    4.3749999999886358E-01     0.0000000000000000E+00     0.0000000000000000E+00 
    4.9999999999869210E-01     0.0000000000000000E+00     0.0000000000000000E+00 
    5.6249999999884603E-01     0.0000000000000000E+00     0.0000000000000000E+00 
    6.2499999999901090E-01     0.0000000000000000E+00     0.0000000000000000E+00 
    6.8749999999917577E-01     0.0000000000000000E+00     0.0000000000000000E+00 
    7.4999999999934064E-01     0.0000000000000000E+00     0.0000000000000000E+00 
    8.1249999999950551E-01     0.0000000000000000E+00     0.0000000000000000E+00 
    8.7499999999967026E-01     0.0000000000000000E+00     0.0000000000000000E+00 
    9.3749999999983513E-01     0.0000000000000000E+00     0.0000000000000000E+00 
    1.0000000000000000E+00     6.2499999999872928E-02     0.0000000000000000E+00 
    1.0000000000000000E+00     1.2499999999977310E-01     0.0000000000000000E+00 
    1.0000000000000000E+00     1.8749999999959341E-01     0.0000000000000000E+00 
    1.0000000000000000E+00     2.4999999999941089E-01     0.0000000000000000E+00 
    1.0000000000000000E+00     3.1249999999922851E-01     0.0000000000000000E+00 
    1.0000000000000000E+00     3.7499999999904610E-01     0.0000000000000000E+00 
    1.0000000000000000E+00     4.3749999999886358E-01     0.0000000000000000E+00 
    1.0000000000000000E+00     4.9999999999869210E-01     0.0000000000000000E+00 
    1.0000000000000000E+00     5.6249999999884603E-01     0.0000000000000000E+00 
    1.0000000000000000E+00     6.2499999999901090E-01     0.0000000000000000E+00 
    1.0000000000000000E+00     6.8749999999917577E-01     0.0000000000000000E+00 
    1.0000000000000000E+00     7.4999999999934064E-01     0.0000000000000000E+00 
    1.0000000000000000E+00     8.1249999999950551E-01     0.0000000000000000E+00 
    1.0000000000000000E+00     8.7499999999967026E-01     0.0000000000000000E+00 
    1.0000000000000000E+00     9.3749999999983513E-01     0.0000000000000000E+00 
    9.3749999999973976E-01     1.0000000000000000E+00     0.0000000000000000E+00 
    8.7499999999950118E-01     1.0000000000000000E+00     0.0000000000000000E+00 
    8.1249999999991318E-01     1.0000000000000000E+00     0.0000000000000000E+00 
    7.5000000000034706E-01     1.0000000000000000E+00     0.0000000000000000E+00 
    6.8750000000078049E-01     1.0000000000000000E+00     0.0000000000000000E+00 
    6.2500000000121403E-01     1.0000000000000000E+00     0.0000000000000000E+00 
    5.6250000000164757E-01     1.0000000000000000E+00     0.0000000000000000E+00 
    5.0000000000205946E-01     1.0000000000000000E+00     0.0000000000000000E+00 
    4.3750000000182099E-01     1.0000000000000000E+00     0.0000000000000000E+00 
    3.7500000000156092E-01     1.0000000000000000E+00     0.0000000000000000E+00 
    3.1250000000130068E-01     1.0000000000000000E+00     0.0000000000000000E+00 
    2.5000000000104050E-01     1.0000000000000000E+00     0.0000000000000000E+00 
    1.8750000000078040E-01     1.0000000000000000E+00     0.0000000000000000E+00 
    1.2500000000052031E-01     1.0000000000000000E+00     0.0000000000000000E+00 
    6.2500000000260125E-02     1.0000000000000000E+00     0.0000000000000000E+00 
    0.0000000000000000E+00     9.3749999999973976E-01     0.0000000000000000E+00 
    0.0000000000000000E+00     8.7499999999950118E-01     0.0000000000000000E+00 
    0.0000000000000000E+00     8.1249999999991318E-01     0.0000000000000000E+00 
    0.0000000000000000E+00     7.5000000000034706E-01     0.0000000000000000E+00 
    0.0000000000000000E+00     6.8750000000078049E-01     0.0000000000000000E+00 
    0.0000000000000000E+00     6.2500000000121403E-01     0.0000000000000000E+00 
    0.0000000000000000E+00     5.6250000000164757E-01     0.0000000000000000E+00 
    0.0000000000000000E+00     5.0000000000205946E-01     0.0000000000000000E+00 
    0.0000000000000000E+00     4.3750000000182099E-01     0.0000000000000000E+00 
    0.0000000000000000E+00     3.7500000000156092E-01     0.0000000000000000E+00 
    0.0000000000000000E+00     3.1250000000130068E-01     0.0000000000000000E+00 
    0.0000000000000000E+00     2.5000000000104050E-01     0.0000000000000000E+00 
    0.0000000000000000E+00     1.8750000000078040E-01     0.0000000000000000E+00 
    0.0000000000000000E+00     1.2500000000052031E-01     0.0000000000000000E+00 
    0.0000000000000000E+00     6.2500000000260125E-02     0.0000000000000000E+00 
    6.2499999999897131E-02     6.2500000000235922E-02     0.0000000000000000E+00 
    6.2499999999921327E-02     1.2500000000047351E-01     0.0000000000000000E+00 
    6.2499999999945530E-02     1.8750000000070621E-01     0.0000000000000000E+00 
    6.2499999999969733E-02     2.5000000000093858E-01     0.0000000000000000E+00 
    6.2499999999993928E-02     3.1250000000117117E-01     0.0000000000000000E+00 
    6.2500000000018124E-02     3.7500000000140382E-01     0.0000000000000000E+00 
    6.2500000000042327E-02     4.3750000000163619E-01     0.0000000000000000E+00 
    6.2500000000066530E-02     5.0000000000184897E-01     0.0000000000000000E+00 
    6.2500000000090733E-02     5.6250000000147260E-01     0.0000000000000000E+00 
    6.2500000000114922E-02     6.2500000000107636E-01     0.0000000000000000E+00 
    6.2500000000139125E-02     6.8750000000068034E-01     0.0000000000000000E+00 
    6.2500000000163328E-02     7.5000000000028411E-01     0.0000000000000000E+00 
    6.2500000000187531E-02     8.1249999999988787E-01     0.0000000000000000E+00 
    6.2500000000211720E-02     8.7499999999951172E-01     0.0000000000000000E+00 
    6.2500000000235922E-02     9.3749999999974565E-01     0.0000000000000000E+00 
    1.2499999999981980E-01     6.2500000000211733E-02     0.0000000000000000E+00 
    1.2499999999986650E-01     1.2500000000042691E-01     0.0000000000000000E+00 
    1.2499999999991319E-01     1.8750000000063199E-01     0.0000000000000000E+00 
    1.2499999999995989E-01     2.5000000000083678E-01     0.0000000000000000E+00 
    1.2500000000000661E-01     3.1250000000104172E-01     0.0000000000000000E+00 
    1.2500000000005329E-01     3.7500000000124661E-01     0.0000000000000000E+00 
    1.2500000000010000E-01     4.3750000000145117E-01     0.0000000000000000E+00 
    1.2500000000014669E-01     5.0000000000163858E-01     0.0000000000000000E+00 
    1.2500000000019340E-01     5.6250000000129741E-01     0.0000000000000000E+00 
    1.2500000000024011E-01     6.2500000000093847E-01     0.0000000000000000E+00 
    1.2500000000028680E-01     6.8750000000057998E-01     0.0000000000000000E+00 
    1.2500000000033351E-01     7.5000000000022127E-01     0.0000000000000000E+00 
    1.2500000000038020E-01     8.1249999999986211E-01     0.0000000000000000E+00 
    1.2500000000042691E-01     8.7499999999952238E-01     0.0000000000000000E+00 
    1.2500000000047359E-01     9.3749999999975164E-01     0.0000000000000000E+00 
    1.8749999999966760E-01     6.2500000000187531E-02     0.0000000000000000E+00 
    1.8749999999974179E-01     1.2500000000038020E-01     0.0000000000000000E+00 
    1.8749999999981601E-01     1.8750000000055780E-01     0.0000000000000000E+00 
    1.8749999999989009E-01     2.5000000000073502E-01     0.0000000000000000E+00 
    1.8749999999996431E-01     3.1250000000091221E-01     0.0000000000000000E+00 
    1.8750000000003850E-01     3.7500000000108941E-01     0.0000000000000000E+00 
    1.8750000000011269E-01     4.3750000000126649E-01     0.0000000000000000E+00 
    1.8750000000018691E-01     5.0000000000142808E-01     0.0000000000000000E+00 
    1.8750000000026110E-01     5.6250000000112244E-01     0.0000000000000000E+00 
    1.8750000000033529E-01     6.2500000000080080E-01     0.0000000000000000E+00 
    1.8750000000040951E-01     6.8750000000047962E-01     0.0000000000000000E+00 
    1.8750000000048361E-01     7.5000000000015843E-01     0.0000000000000000E+00 
    1.8750000000055780E-01     8.1249999999983680E-01     0.0000000000000000E+00 
    1.8750000000063199E-01     8.7499999999953304E-01     0.0000000000000000E+00 
    1.8750000000070621E-01     9.3749999999975764E-01     0.0000000000000000E+00 
    2.4999999999951281E-01     6.2500000000163314E-02     0.0000000000000000E+00 
    2.4999999999961461E-01     1.2500000000033351E-01     0.0000000000000000E+00 
    2.4999999999971650E-01     1.8750000000048361E-01     0.0000000000000000E+00 
    2.4999999999981831E-01     2.5000000000063310E-01     0.0000000000000000E+00 
    2.4999999999992020E-01     3.1250000000078260E-01     0.0000000000000000E+00 
    2.5000000000002198E-01     3.7500000000093209E-01     0.0000000000000000E+00 
    2.5000000000012390E-01     4.3750000000108180E-01     0.0000000000000000E+00 
    2.5000000000022571E-01     5.0000000000121769E-01     0.0000000000000000E+00 
    2.5000000000032763E-01     5.6250000000094724E-01     0.0000000000000000E+00 
    2.5000000000042938E-01     6.2500000000066314E-01     0.0000000000000000E+00 
    2.5000000000053119E-01     6.8750000000037925E-01     0.0000000000000000E+00 
[...]
CELL_DATA 256 
SCALARS Pressure double 1 
LOOKUP_TABLE default 

    1.8425279497527660E+00 
    1.7369423548812879E+00 
    1.6683645409557926E+00 
    1.6170943334978090E+00 
    1.5750897881177532E+00 
    1.5387822407855458E+00 
    1.5064645995751382E+00 
    1.4773037963568136E+00 
    1.4509301804128993E+00 
    1.4272443999761417E+00 
    1.4063112492273213E+00 
    1.3882866192895413E+00 
    1.3733484769188613E+00 
    1.3616208624073263E+00 
    1.3530615110906672E+00 
    1.3480405620822997E+00 
    1.7369423548818475E+00 
    1.6930496145918079E+00 
    1.6462960463609855E+00 
    1.6038812874986565E+00 
    1.5659754166956215E+00 
    1.5317639954548077E+00 
    1.5005784429564064E+00 
    1.4720279878512417E+00 
    1.4459557394524203E+00 
    1.4223768250032518E+00 
    1.4014261173142584E+00 
    1.3833096783618566E+00 
    1.3682464943098793E+00 
    1.3563928441727136E+00 
    1.3477292348929941E+00 
    1.3426441444613393E+00 
    1.6683645409565786E+00 
    1.6462960463613623E+00 
    1.6152887775173994E+00 
    1.5822246641425350E+00 
    1.5497277998631143E+00 
    1.5186631397403343E+00 
    1.4892998898550860E+00 
    1.4617595757935136E+00 
    1.4361759369349143E+00 
    1.4127401563061235E+00 
    1.3917053265768038E+00 
    1.3733676212568635E+00 
    1.3580233711716849E+00 
    1.3458924642353822E+00 
    1.3370038840130494E+00 
    1.3317826418802694E+00 
    1.6170943334987515E+00 
    1.6038812874992878E+00 
    1.5822246641428319E+00 
    1.5563359058750208E+00 
    1.5287643865295730E+00 
    1.5008953780351484E+00 
    1.4734957147024368E+00 
    1.4470520916883383E+00 
    1.4219510330698801E+00 
    1.3985630624790326E+00 
    1.3772785577099003E+00 
    1.3585096048875547E+00 
    1.3426578501228894E+00 
    1.3300388009985646E+00 
    1.3207638845106082E+00 
    1.3153130705028184E+00 
    1.5750897881188197E+00 
    1.5659754166964304E+00 
    1.5497277998636341E+00 
    1.5287643865298142E+00 
    1.5050148268480701E+00 
    1.4798257734572220E+00 
    1.4541206455038842E+00 
    1.4285756849168307E+00 
    1.4037490653777105E+00 
    1.3801602347299864E+00 
    1.3583339248933239E+00 
    1.3388118550250010E+00 
    1.3221246838990082E+00 
    1.3087195343573226E+00 
    1.2988280327527157E+00 
    1.2930061870273357E+00 
    1.5387822407867187E+00 
    1.5317639954557525E+00 
    1.5186631397410240E+00 
    1.5008953780355840E+00 
    1.4798257734574265E+00 
    1.4565846970760536E+00 
    1.4320706644317220E+00 
    1.4070205700647787E+00 
    1.3820864316244421E+00 
    1.3578956228169941E+00 
    1.3350930532409246E+00 
    1.3143562767711596E+00 
    1.2963718362189061E+00 
    1.2817595636273176E+00 
    1.2709136908871981E+00 
    1.2645026091934131E+00 
    1.5064645995764030E+00 
    1.5005784429574596E+00 
    1.4892998898559084E+00 
    1.4734957147030292E+00 
    1.4541206455042619E+00 
    1.4320706644319035E+00 
    1.4081431158290931E+00 
    1.3830569520177720E+00 
    1.3574972060262525E+00 
    1.3321593535371519E+00 
    1.3077900677741130E+00 
    1.2852066991348583E+00 
    1.2652820559435252E+00 
    1.2488591192413727E+00 
    1.2365628532226580E+00 
    1.2292417333181898E+00 
    1.4773037963581446E+00 
    1.4720279878523719E+00 
    1.4617595757944344E+00 
    1.4470520916890544E+00 
    1.4285756849173543E+00 
    1.4070205700651224E+00 
    1.3830569520179441E+00 
    1.3573399507953101E+00 
    1.3305405130792438E+00 
    1.3033839812146737E+00 
    1.2766954093414109E+00 
    1.2514327558857425E+00 
    1.2286862683231481E+00 
    1.2095922026617723E+00 
    1.1951158560258672E+00 
    1.1863988705984838E+00 
    1.4509301804140491E+00 
    1.4459557394534117E+00 
    1.4361759369357496E+00 
    1.4219510330705694E+00 
    1.4037490653782636E+00 
    1.3820864316248678E+00 
    1.3574972060265535E+00 
    1.3305405130794126E+00 
    1.3018309530837739E+00 
    1.2720807969691019E+00 
    1.2421581766116465E+00 
    1.2131496330053626E+00 
    1.1863912122600961E+00 
    1.1634079518223086E+00 
    1.1456688322901871E+00 
    1.1347982303064215E+00 
    1.4272443999769653E+00 
    1.4223768250039739E+00 
    1.4127401563067570E+00 
    1.3985630624795922E+00 
    1.3801602347304851E+00 
    1.3578956228174421E+00 
    1.3321593535375540E+00 
    1.3033839812150201E+00 
    1.2720807969693237E+00 
    1.2388908148486690E+00 
    1.2046645601688275E+00 
    1.1705729100178739E+00 
    1.1382055457716935E+00 
    1.1095846870411947E+00 
    1.0869277188312296E+00 
    1.0726873639645003E+00 
    1.4063112492278598E+00 
    1.4014261173147431E+00 
    1.3917053265772563E+00 
    1.3772785577103437E+00 
    1.3583339248937785E+00 
    1.3350930532414067E+00 
    1.3077900677746341E+00 
    1.2766954093419698E+00 
    1.2421581766121428E+00 
    1.2046645601691151E+00 
    1.1649414355165497E+00 
    1.1241344099008346E+00 
    1.0840221917540391E+00 
    1.0471991306965216E+00 
    1.0169888890293775E+00 
    9.9732764630721782E-01 
    1.3882866192898411E+00 
    1.3833096783621428E+00 
    1.3733676212571655E+00 
    1.3585096048879062E+00 
    1.3388118550254315E+00 
    1.3143562767716970E+00 
    1.2852066991355269E+00 
    1.2514327558865566E+00 
    1.2131496330061950E+00 
    1.1705729100185220E+00 
    1.1241344099012089E+00 
    1.0747280024864756E+00 
    1.0240840133058451E+00 
    9.7527715282910299E-01 
    9.3313284820271047E-01 
    9.0428569572694673E-01 
    1.3733484769189732E+00 
    1.3682464943100101E+00 
    1.3580233711718730E+00 
    1.3426578501231790E+00 
    1.3221246838994416E+00 
    1.2963718362195253E+00 
    1.2652820559443732E+00 
    1.2286862683242632E+00 
    1.1863912122613285E+00 
    1.1382055457727789E+00 
    1.0840221917548813E+00 
    1.0240840133063338E+00 
    9.5949934863432496E-01 
    8.9321926789741657E-01 
    8.3157473318864805E-01 
    7.8592161434024610E-01 
    1.3616208624073063E+00 
    1.3563928441727382E+00 
    1.3458924642354981E+00 
    1.3300388009988284E+00 
    1.3087195343577898E+00 
    1.2817595636280477E+00 
    1.2488591192424310E+00 
    1.2095922026632273E+00 
    1.1634079518239924E+00 
    1.1095846870427784E+00 
    1.0471991306979076E+00 
    9.7527715283017935E-01 
    8.9321926789803729E-01 
    8.0203701949120998E-01 
    7.0756976264443650E-01 
    6.2759585183101385E-01 
    1.3530615110906294E+00 
    1.3477292348930126E+00 
    1.3370038840131795E+00 
    1.3207638845109206E+00 
    1.2988280327532797E+00 
    1.2709136908880898E+00 
    1.2365628532239665E+00 
    1.1951158560276915E+00 
    1.1456688322923403E+00 
    1.0869277188333082E+00 
    1.0169888890312733E+00 
    9.3313284820429854E-01 
    8.3157473318975106E-01 
    7.0756976264481586E-01 
    5.5798232622472554E-01 
    3.9669116418765205E-01 
    1.3480405620822777E+00 
    1.3426441444613804E+00 
    1.3317826418804384E+00 
    1.3153130705031990E+00 
    1.2930061870280114E+00 
    1.2645026091944767E+00 
    1.2292417333197521E+00 
    1.1863988706006723E+00 
    1.1347982303090272E+00 
    1.0726873639670478E+00 
    9.9732764630958393E-01 
    9.0428569572898243E-01 
    7.8592161434171026E-01 
    6.2759585183146460E-01 
    3.9669116418711797E-01 
    0.0000000000000000E+00 

SCALARS Saturarion double 1 
LOOKUP_TABLE default 

    1.0000000000000000E+00 
    9.6184746562515755E-01 
    9.2729333678510772E-01 
    8.8983041082501924E-01 
    8.5125484139174734E-01 
    8.1302617181586212E-01 
    7.7550428552232531E-01 
    7.3877007187791033E-01 
    7.0240707131381430E-01 
    6.6601458454688578E-01 
    6.2851212096618581E-01 
    5.8834291181628451E-01 
    5.4178558357654150E-01 
    4.8107331200718684E-01 
    3.7991565718886988E-01 
    1.5915621326385390E-01 
    9.6184746562534673E-01 
    9.3553795874521184E-01 
    9.0433993426324333E-01 
    8.7039907479481105E-01 
    8.3510978269790737E-01 
    7.9976633509324946E-01 
    7.6471599635320697E-01 
    7.3013042296036634E-01 
    6.9563169281013981E-01 
    6.6083047990289134E-01 
    6.2469961495471926E-01 
    5.8573046334237966E-01 
    5.4023276905980711E-01 
    4.8028989097684033E-01 
    3.7961191866845295E-01 
    1.5869467982408950E-01 
    9.2729333678561221E-01 
    9.0433993426350268E-01 
    8.7655453194449151E-01 
    8.4629861359203795E-01 
    8.1467696538874690E-01 
    7.8269324878137392E-01 
    7.5068409006797765E-01 
    7.1885540212328769E-01 
    6.8686387579279284E-01 
    6.5420913324592023E-01 
    6.1995751097503093E-01 
    5.8262431634093881E-01 
    5.3863286251682940E-01 
    4.7972121406381646E-01 
    3.7984696965744552E-01 
    1.5939221590748232E-01 
    8.8983041082580294E-01 
    8.7039907479533907E-01 
    8.4629861359230318E-01 
    8.1979070573796542E-01 
    7.9195110420259940E-01 
    7.6358880176955113E-01 
    7.3498239796260190E-01 
    7.0620485290372581E-01 
    6.7700595044586920E-01 
    6.4684234292111153E-01 
    6.1484862869551404E-01 
    5.7938755187388336E-01 
    5.3725347275368829E-01 
    4.7943753802505867E-01 
    3.8079880970252789E-01 
    1.6162383175907852E-01 
    8.5125484139269492E-01 
    8.3510978269866476E-01 
    8.1467696538924494E-01 
    7.9195110420283243E-01 
    7.6790081766125851E-01 
    7.4317751736359461E-01 
    7.1802002210408544E-01 
    6.9255022413929135E-01 
    6.6641709167377727E-01 
    6.3918153868753080E-01 
    6.0981424808342566E-01 
    5.7682720517881647E-01 
    5.3652953117888724E-01 
    4.8112523255916856E-01 
    3.8429501495188984E-01 
    1.6892010736609828E-01 
    8.1302617181705461E-01 
    7.9976633509420680E-01 
    7.8269324878206692E-01 
    7.6358880176998178E-01 
    7.4317751736380355E-01 
    7.2210523933508453E-01 
    7.0042468666357094E-01 
    6.7830598827082866E-01 
    6.5531882522735652E-01 
    6.3111443521458677E-01 
    6.0459580252652190E-01 
    5.7424698319093270E-01 
    5.3637389152569037E-01 
    4.8324059193082691E-01 
    3.8894131255496067E-01 
    1.7879415716141264E-01 
    7.7550428552374717E-01 
    7.6471599635434051E-01 
    7.5068409006884551E-01 
    7.3498239796319109E-01 
    7.1802002210445715E-01 
    7.0042468666375002E-01 
    6.8218259881011445E-01 
    6.6346124412836804E-01 
    6.4378344574887525E-01 
    6.2272920707897472E-01 
    5.9925779006673563E-01 
    5.7181563505334732E-01 
    5.3683922130715200E-01 
    4.8633151349544135E-01 
    3.9524628284270108E-01 
    1.9170538798063047E-01 
    7.3877007187951393E-01 
    7.3013042296170794E-01 
    7.1885540212433452E-01 
    7.0620485290450030E-01 
    6.9255022413981338E-01 
    6.7830598827113930E-01 
    6.6346124412850249E-01 
    6.4809361888659700E-01 
    6.3179798943286125E-01 
    6.1405911833807403E-01 
    5.9386909643520758E-01 
    5.6957705388384949E-01 
    5.3794178571673446E-01 
    4.9048747127040421E-01 
    4.0349504288639909E-01 
    2.0796526790388509E-01 
    7.0240707131506352E-01 
    6.9563169281123738E-01 
    6.8686387579366703E-01 
    6.7700595044651635E-01 
    6.6641709167422181E-01 
    6.5531882522765117E-01 
    6.4378344574902435E-01 
    6.3179798943291809E-01 
    6.1901076976114355E-01 
    6.0481529368401765E-01 
    5.8822712962549117E-01 
    5.6763190028052113E-01 
    5.3965516400055258E-01 
    4.9663120233600988E-01 
    4.1495984897766602E-01 
    2.2914828417658883E-01 
    6.6601458454787654E-01 
    6.6083047990373789E-01 
    6.5420913324659502E-01 
    6.4684234292163378E-01 
    6.3918153868791217E-01 
    6.3111443521483801E-01 
    6.2272920707912160E-01 
    6.1405911833814053E-01 
    6.0481529368402720E-01 
    5.9434319256358337E-01 
    5.8165196102434913E-01 
    5.6515885160999979E-01 
    5.4158953307070801E-01 
    5.0356437194041870E-01 
    4.2866382174525042E-01 
    2.5385778129838216E-01 
    6.2851212096692777E-01 
    6.2469961495534310E-01 
    6.1995751097554297E-01 
    6.1484862869590240E-01 
    6.0981424808370255E-01 
    6.0459580252670442E-01 
    5.9925779006683200E-01 
    5.9386909643523844E-01 
    5.8822712962547019E-01 
    5.8165196102431482E-01 
    5.7320281790624361E-01 
    5.6135055913004483E-01 
    5.4298317589482359E-01 
    5.1103315276702466E-01 
    4.4465634807646331E-01 
    2.8243218148578791E-01 
    5.8834291181676257E-01 
    5.8573046334278100E-01 
    5.8262431634125622E-01 
    5.7938755187411839E-01 
    5.7682720517896124E-01 
    5.7424698319099898E-01 
    5.7181563505335520E-01 
    5.6957705388380364E-01 
    5.6763190028042665E-01 
    5.6515885160989210E-01 
    5.6135055912997012E-01 
    5.5476849830680008E-01 
    5.4249192197631235E-01 
    5.1797206437675569E-01 
    4.6218711418481295E-01 
    3.1460592224332545E-01 
    5.4178558357671092E-01 
    5.4023276905994166E-01 
    5.3863286251690412E-01 
    5.3725347275372104E-01 
    5.3652953117884916E-01 
    5.3637389152559667E-01 
    5.3683922130700168E-01 
    5.3794178571653861E-01 
    5.3965516400031410E-01 
    5.4158953307046587E-01 
    5.4298317589462664E-01 
    5.4249192197619389E-01 
    5.3750805960886860E-01 
    5.2220725152820413E-01 
    4.7984937606216188E-01 
    3.5125503993222096E-01 
    4.8107331200692599E-01 
    4.8028989097657537E-01 
    4.7972121406354024E-01 
    4.7943753802476530E-01 
    4.8112523255885237E-01 
    4.8324059193046953E-01 
    4.8633151349503523E-01 
    4.9048747126994663E-01 
    4.9663120233554742E-01 
    5.0356437193998071E-01 
    5.1103315276665284E-01 
    5.1797206437649101E-01 
    5.2220725152807768E-01 
    5.1860661546256148E-01 
    4.9314624071273166E-01 
    3.9029894424071460E-01 
    3.7991565718871606E-01 
    3.7961191866829458E-01 
    3.7984696965728426E-01 
    3.8079880970234187E-01 
    3.8429501495166046E-01 
    3.8894131255465958E-01 
    3.9524628284231000E-01 
    4.0349504288587906E-01 
    4.1495984897711097E-01 
    4.2866382174469608E-01 
    4.4465634807595800E-01 
    4.6218711418440250E-01 
    4.7984937606189626E-01 
    4.9314624071262131E-01 
    4.9075806214153012E-01 
    4.2555263772067548E-01 
    1.5915621326382759E-01 
    1.5869467982405164E-01 
    1.5939221590743938E-01 
    1.6162383175899570E-01 
    1.6892010736592949E-01 
    1.7879415716109404E-01 
    1.9170538798010936E-01 
    2.0796526790312087E-01 
    2.2914828417582192E-01 
    2.5385778129767189E-01 
    2.8243218148519389E-01 
    3.1460592224289174E-01 
    3.5125503993200702E-01 
    3.9029894424074951E-01 
    4.2555263772068969E-01 
    4.2472831591933513E-01 
