# vtk DataFile Version 2.0
Pressure Field Data 
ASCII 
DATASET UNSTRUCTURED_GRID 

POINTS 289 double 

    0.0000000000000000E+00     0.0000000000000000E+00     0.0000000000000000E+00 
    1.0000000000000000E+00     0.0000000000000000E+00     0.0000000000000000E+00 
    1.0000000000000000E+00     1.0000000000000000E+00     0.0000000000000000E+00 
    0.0000000000000000E+00     1.0000000000000000E+00     0.0000000000000000E+00 
    6.2499999999872928E-02     0.0000000000000000E+00     0.0000000000000000E+00 
    1.2499999999977310E-01     0.0000000000000000E+00     0.0000000000000000E+00 
    1.8749999999959341E-01     0.0000000000000000E+00     0.0000000000000000E+00 
    2.4999999999941089E-01     0.0000000000000000E+00     0.0000000000000000E+00 
    3.1249999999922851E-01     0.0000000000000000E+00     0.0000000000000000E+00 
    3.7499999999904610E-01     0.0000000000000000E+00     0.0000000000000000E+00 
    4.3749999999886358E-01     0.0000000000000000E+00     0.0000000000000000E+00 
    4.9999999999869210E-01     0.0000000000000000E+00     0.0000000000000000E+00 
    5.6249999999884603E-01     0.0000000000000000E+00     0.0000000000000000E+00 
    6.2499999999901090E-01     0.0000000000000000E+00     0.0000000000000000E+00 
    6.8749999999917577E-01     0.0000000000000000E+00     0.0000000000000000E+00 
    7.4999999999934064E-01     0.0000000000000000E+00     0.0000000000000000E+00 
    8.1249999999950551E-01     0.0000000000000000E+00     0.0000000000000000E+00 
    8.7499999999967026E-01     0.0000000000000000E+00     0.0000000000000000E+00 
    9.3749999999983513E-01     0.0000000000000000E+00     0.0000000000000000E+00 
    1.0000000000000000E+00     6.2499999999872928E-02     0.0000000000000000E+00 
    1.0000000000000000E+00     1.2499999999977310E-01     0.0000000000000000E+00 
    1.0000000000000000E+00     1.8749999999959341E-01     0.0000000000000000E+00 
    1.0000000000000000E+00     2.4999999999941089E-01     0.0000000000000000E+00 
    1.0000000000000000E+00     3.1249999999922851E-01     0.0000000000000000E+00 
    1.0000000000000000E+00     3.7499999999904610E-01     0.0000000000000000E+00 
    1.0000000000000000E+00     4.3749999999886358E-01     0.0000000000000000E+00 
    1.0000000000000000E+00     4.9999999999869210E-01     0.0000000000000000E+00 
    1.0000000000000000E+00     5.6249999999884603E-01     0.0000000000000000E+00 
    1.0000000000000000E+00     6.2499999999901090E-01     0.0000000000000000E+00 
    1.0000000000000000E+00     6.8749999999917577E-01     0.0000000000000000E+00 
    1.0000000000000000E+00     7.4999999999934064E-01     0.0000000000000000E+00 
    1.0000000000000000E+00     8.1249999999950551E-01     0.0000000000000000E+00 
    1.0000000000000000E+00     8.7499999999967026E-01     0.0000000000000000E+00 
    1.0000000000000000E+00     9.3749999999983513E-01     0.0000000000000000E+00 
    9.3749999999973976E-01     1.0000000000000000E+00     0.0000000000000000E+00 
    8.7499999999950118E-01     1.0000000000000000E+00     0.0000000000000000E+00 
    8.1249999999991318E-01     1.0000000000000000E+00     0.0000000000000000E+00 
    7.5000000000034706E-01     1.0000000000000000E+00     0.0000000000000000E+00 
    6.8750000000078049E-01     1.0000000000000000E+00     0.0000000000000000E+00 
    6.2500000000121403E-01     1.0000000000000000E+00     0.0000000000000000E+00 
    5.6250000000164757E-01     1.0000000000000000E+00     0.0000000000000000E+00 
    5.0000000000205946E-01     1.0000000000000000E+00     0.0000000000000000E+00 
    4.3750000000182099E-01     1.0000000000000000E+00     0.0000000000000000E+00 
    3.7500000000156092E-01     1.0000000000000000E+00     0.0000000000000000E+00 
    3.1250000000130068E-01     1.0000000000000000E+00     0.0000000000000000E+00 
    2.5000000000104050E-01     1.0000000000000000E+00     0.0000000000000000E+00 
    1.8750000000078040E-01     1.0000000000000000E+00     0.0000000000000000E+00 
    1.2500000000052031E-01     1.0000000000000000E+00     0.0000000000000000E+00 
    6.2500000000260125E-02     1.0000000000000000E+00     0.0000000000000000E+00 
    0.0000000000000000E+00     9.3749999999973976E-01     0.0000000000000000E+00 
    0.0000000000000000E+00     8.7499999999950118E-01     0.0000000000000000E+00 
    0.0000000000000000E+00     8.1249999999991318E-01     0.0000000000000000E+00 
    0.0000000000000000E+00     7.5000000000034706E-01     0.0000000000000000E+00 
    0.0000000000000000E+00     6.8750000000078049E-01     0.0000000000000000E+00 
    0.0000000000000000E+00     6.2500000000121403E-01     0.0000000000000000E+00 
    0.0000000000000000E+00     5.6250000000164757E-01     0.0000000000000000E+00 
    0.0000000000000000E+00     5.0000000000205946E-01     0.0000000000000000E+00 
    0.0000000000000000E+00     4.3750000000182099E-01     0.0000000000000000E+00 
    0.0000000000000000E+00     3.7500000000156092E-01     0.0000000000000000E+00 
    0.0000000000000000E+00     3.1250000000130068E-01     0.0000000000000000E+00 
    0.0000000000000000E+00     2.5000000000104050E-01     0.0000000000000000E+00 
    0.0000000000000000E+00     1.8750000000078040E-01     0.0000000000000000E+00 
    0.0000000000000000E+00     1.2500000000052031E-01     0.0000000000000000E+00 
    0.0000000000000000E+00     6.2500000000260125E-02     0.0000000000000000E+00 
    6.2499999999897131E-02     6.2500000000235922E-02     0.0000000000000000E+00 
    6.2499999999921327E-02     1.2500000000047351E-01     0.0000000000000000E+00 
    6.2499999999945530E-02     1.8750000000070621E-01     0.0000000000000000E+00 
    6.2499999999969733E-02     2.5000000000093858E-01     0.0000000000000000E+00 
    6.2499999999993928E-02     3.1250000000117117E-01     0.0000000000000000E+00 
    6.2500000000018124E-02     3.7500000000140382E-01     0.0000000000000000E+00 
    6.2500000000042327E-02     4.3750000000163619E-01     0.0000000000000000E+00 
    6.2500000000066530E-02     5.0000000000184897E-01     0.0000000000000000E+00 
    6.2500000000090733E-02     5.6250000000147260E-01     0.0000000000000000E+00 
    6.2500000000114922E-02     6.2500000000107636E-01     0.0000000000000000E+00 
    6.2500000000139125E-02     6.8750000000068034E-01     0.0000000000000000E+00 
    6.2500000000163328E-02     7.5000000000028411E-01     0.0000000000000000E+00 
    6.2500000000187531E-02     8.1249999999988787E-01     0.0000000000000000E+00 
    6.2500000000211720E-02     8.7499999999951172E-01     0.0000000000000000E+00 
    6.2500000000235922E-02     9.3749999999974565E-01     0.0000000000000000E+00 
    1.2499999999981980E-01     6.2500000000211733E-02     0.0000000000000000E+00 
    1.2499999999986650E-01     1.2500000000042691E-01     0.0000000000000000E+00 
    1.2499999999991319E-01     1.8750000000063199E-01     0.0000000000000000E+00 
    1.2499999999995989E-01     2.5000000000083678E-01     0.0000000000000000E+00 
    1.2500000000000661E-01     3.1250000000104172E-01     0.0000000000000000E+00 
    1.2500000000005329E-01     3.7500000000124661E-01     0.0000000000000000E+00 
    1.2500000000010000E-01     4.3750000000145117E-01     0.0000000000000000E+00 
    1.2500000000014669E-01     5.0000000000163858E-01     0.0000000000000000E+00 
    1.2500000000019340E-01     5.6250000000129741E-01     0.0000000000000000E+00 
    1.2500000000024011E-01     6.2500000000093847E-01     0.0000000000000000E+00 
    1.2500000000028680E-01     6.8750000000057998E-01     0.0000000000000000E+00 
    1.2500000000033351E-01     7.5000000000022127E-01     0.0000000000000000E+00 
    1.2500000000038020E-01     8.1249999999986211E-01     0.0000000000000000E+00 
    1.2500000000042691E-01     8.7499999999952238E-01     0.0000000000000000E+00 
    1.2500000000047359E-01     9.3749999999975164E-01     0.0000000000000000E+00 
    1.8749999999966760E-01     6.2500000000187531E-02     0.0000000000000000E+00 
    1.8749999999974179E-01     1.2500000000038020E-01     0.0000000000000000E+00 
    1.8749999999981601E-01     1.8750000000055780E-01     0.0000000000000000E+00 
    1.8749999999989009E-01     2.5000000000073502E-01     0.0000000000000000E+00 
    1.8749999999996431E-01     3.1250000000091221E-01     0.0000000000000000E+00 
    1.8750000000003850E-01     3.7500000000108941E-01     0.0000000000000000E+00 
    1.8750000000011269E-01     4.3750000000126649E-01     0.0000000000000000E+00 
    1.8750000000018691E-01     5.0000000000142808E-01     0.0000000000000000E+00 
    1.8750000000026110E-01     5.6250000000112244E-01     0.0000000000000000E+00 
    1.8750000000033529E-01     6.2500000000080080E-01     0.0000000000000000E+00 
    1.8750000000040951E-01     6.8750000000047962E-01     0.0000000000000000E+00 
    1.8750000000048361E-01     7.5000000000015843E-01     0.0000000000000000E+00 
    1.8750000000055780E-01     8.1249999999983680E-01     0.0000000000000000E+00 
    1.8750000000063199E-01     8.7499999999953304E-01     0.0000000000000000E+00 
    1.8750000000070621E-01     9.3749999999975764E-01     0.0000000000000000E+00 
    2.4999999999951281E-01     6.2500000000163314E-02     0.0000000000000000E+00 
    2.4999999999961461E-01     1.2500000000033351E-01     0.0000000000000000E+00 
    2.4999999999971650E-01     1.8750000000048361E-01     0.0000000000000000E+00 
    2.4999999999981831E-01     2.5000000000063310E-01     0.0000000000000000E+00 
    2.4999999999992020E-01     3.1250000000078260E-01     0.0000000000000000E+00 
    2.5000000000002198E-01     3.7500000000093209E-01     0.0000000000000000E+00 
    2.5000000000012390E-01     4.3750000000108180E-01     0.0000000000000000E+00 
    2.5000000000022571E-01     5.0000000000121769E-01     0.0000000000000000E+00 
    2.5000000000032763E-01     5.6250000000094724E-01     0.0000000000000000E+00 
    2.5000000000042938E-01     6.2500000000066314E-01     0.0000000000000000E+00 
    2.5000000000053119E-01     6.8750000000037925E-01     0.0000000000000000E+00 
[...]
CELL_DATA 256 
SCALARS Pressure double 1 
LOOKUP_TABLE default 

    2.2903337001606623E+00 
    2.1826898429004267E+00 
    2.1110913286265958E+00 
    2.0563911578610332E+00 
    2.0106786918913206E+00 
    1.9704775454271890E+00 
    1.9341620131178847E+00 
    1.9009733916564542E+00 
    1.8706138631447571E+00 
    1.8430518182362337E+00 
    1.8184056153844483E+00 
    1.7968393742451216E+00 
    1.7784111620165250E+00 
    1.7628795714225334E+00 
    1.7502811303268699E+00 
    1.7435562818107604E+00 
    2.1826898429010053E+00 
    2.1371915718318828E+00 
    2.0877848425908554E+00 
    2.0421473660485070E+00 
    2.0006520107466663E+00 
    1.9626126461123103E+00 
    1.9274595943614476E+00 
    1.8948865509876016E+00 
    1.8648156278513746E+00 
    1.8373352620127696E+00 
    1.8126389403592720E+00 
    1.7909458873959383E+00 
    1.7723570933195352E+00 
    1.7566501534416230E+00 
    1.7438883117665123E+00 
    1.7370789843617813E+00 
    2.1110913286274289E+00 
    2.0877848425912600E+00 
    2.0545275457956618E+00 
    2.0185270963873161E+00 
    1.9826267067148196E+00 
    1.9478426112827654E+00 
    1.9145605512315975E+00 
    1.8830001695009686E+00 
    1.8533855239554418E+00 
    1.8259911626530845E+00 
    1.8011388788632501E+00 
    1.7791479016878711E+00 
    1.7602025457583383E+00 
    1.7441264188302184E+00 
    1.7310362787566298E+00 
    1.7240580407082180E+00 
    2.0563911578620520E+00 
    2.0421473660491944E+00 
    2.0185270963876429E+00 
    1.9899516885994564E+00 
    1.9591554742193460E+00 
    1.9276718096597081E+00 
    1.8963901208577298E+00 
    1.8659046002878255E+00 
    1.8367027168232986E+00 
    1.8092506106917430E+00 
    1.7840218602267501E+00 
    1.7614676623706487E+00 
    1.7418888298831547E+00 
    1.7251942280695374E+00 
    1.7115855835636775E+00 
    1.7043407123686827E+00 
    2.0106786918924939E+00 
    2.0006520107475607E+00 
    1.9826267067153980E+00 
    1.9591554742196176E+00 
    1.9323117421940534E+00 
    1.9035734127599335E+00 
    1.8739821569013126E+00 
    1.8443248358674165E+00 
    1.8152685083335742E+00 
    1.7874411186363828E+00 
    1.7614687588797269E+00 
    1.7379553431703607E+00 
    1.7173490863186571E+00 
    1.6996936450976543E+00 
    1.6852989596337367E+00 
    1.6776367010450521E+00 
    1.9704775454284995E+00 
    1.9626126461133695E+00 
    1.9478426112835412E+00 
    1.9276718096602024E+00 
    1.9035734127601680E+00 
    1.8767874616237215E+00 
    1.8483199791461566E+00 
    1.8190160974555136E+00 
    1.7896415660963136E+00 
    1.7609446674903448E+00 
    1.7336930209617103E+00 
    1.7086566447505684E+00 
    1.6864719979928333E+00 
    1.6673708569691146E+00 
    1.6517927295571557E+00 
    1.6434880892779489E+00 
    1.9341620131193171E+00 
    1.9274595943626422E+00 
    1.9145605512325352E+00 
    1.8963901208584102E+00 
    1.8739821569017518E+00 
    1.8483199791463689E+00 
    1.8202934813286564E+00 
    1.7907221125408992E+00 
    1.7604052119479017E+00 
    1.7301695428828394E+00 
    1.7009079903259796E+00 
    1.6735691662030203E+00 
    1.6490288814737535E+00 
    1.6277790302101438E+00 
    1.6104622733805327E+00 
    1.6012276395368328E+00 
    1.9009733916579805E+00 
    1.8948865509889010E+00 
    1.8830001695020322E+00 
    1.8659046002886575E+00 
    1.8443248358680298E+00 
    1.8190160974559177E+00 
    1.7907221125411026E+00 
    1.7601846311118412E+00 
    1.7281828446556446E+00 
    1.6955785691591667E+00 
    1.6633652534743841E+00 
    1.6326793106981186E+00 
    1.6046897280245858E+00 
    1.5802604880045854E+00 
    1.5603993727603387E+00 
    1.5498195023087993E+00 
    1.8706138631460902E+00 
    1.8648156278525261E+00 
    1.8533855239564165E+00 
    1.8367027168241055E+00 
    1.8152685083342257E+00 
    1.7896415660968175E+00 
    1.7604052119482605E+00 
    1.7281828446558469E+00 
    1.6936809835700966E+00 
    1.6577430292736104E+00 
    1.6214193179398906E+00 
    1.5860240661906868E+00 
    1.5530684124261558E+00 
    1.5239384453514306E+00 
    1.5002472656674837E+00 
    1.4875569024290609E+00 
    1.8430518182372004E+00 
    1.8373352620136194E+00 
    1.8259911626538317E+00 
    1.8092506106924044E+00 
    1.7874411186369747E+00 
    1.7609446674908802E+00 
    1.7301695428833213E+00 
    1.6955785691595857E+00 
    1.6577430292738800E+00 
    1.6174103394522235E+00 
    1.5756060774788836E+00 
    1.5337640928501226E+00 
    1.4937556798161595E+00 
    1.4576449850117301E+00 
    1.4279731688714374E+00 
    1.4116840010476104E+00 
    1.8184056153850896E+00 
    1.8126389403598506E+00 
    1.8011388788637901E+00 
    1.7840218602272795E+00 
    1.7614687588802695E+00 
    1.7336930209622887E+00 
    1.7009079903266069E+00 
    1.6633652534750614E+00 
    1.6214193179404959E+00 
    1.5756060774792360E+00 
    1.5267782996728017E+00 
    1.4763372258209742E+00 
    1.4264259799054981E+00 
    1.3798807666402393E+00 
    1.3405886184710847E+00 
    1.3178230751388804E+00 
    1.7968393742454880E+00 
    1.7909458873962867E+00 
    1.7791479016882361E+00 
    1.7614676623710708E+00 
    1.7379553431708767E+00 
    1.7086566447512137E+00 
    1.6735691662038257E+00 
    1.6326793106991069E+00 
    1.5860240661917056E+00 
    1.5337640928509231E+00 
    1.4763372258214411E+00 
    1.4147955176974811E+00 
    1.3512242907620016E+00 
    1.2890889758992439E+00 
    1.2339967704940165E+00 
    1.1991571109149057E+00 
    1.7784111620166676E+00 
    1.7723570933196979E+00 
    1.7602025457585653E+00 
    1.7418888298835014E+00 
    1.7173490863191734E+00 
    1.6864719979935741E+00 
    1.6490288814747736E+00 
    1.6046897280259391E+00 
    1.5530684124276668E+00 
    1.4937556798175056E+00 
    1.4264259799065555E+00 
    1.3512242907626217E+00 
    1.2694016910776138E+00 
    1.1842505060327204E+00 
    1.1029541496204645E+00 
    1.0451008428452149E+00 
    1.7628795714225067E+00 
    1.7566501534416465E+00 
    1.7441264188303482E+00 
    1.7251942280698431E+00 
    1.6996936450982036E+00 
    1.6673708569699810E+00 
    1.6277790302114123E+00 
    1.5802604880063482E+00 
    1.5239384453534945E+00 
    1.4576449850136985E+00 
    1.3798807666419890E+00 
    1.2890889759006239E+00 
    1.1842505060335269E+00 
    1.0661544715790028E+00 
    9.4094127719750620E-01 
    8.3627086734905764E-01 
    1.7502811303268151E+00 
    1.7438883117665225E+00 
    1.7310362787567719E+00 
    1.7115855835640366E+00 
    1.6852989596343968E+00 
    1.6517927295582127E+00 
    1.6104622733820986E+00 
    1.5603993727625443E+00 
    1.5002472656701134E+00 
    1.4279731688740176E+00 
    1.3405886184734852E+00 
    1.2339967704960644E+00 
    1.1029541496219040E+00 
    9.4094127719799947E-01 
    7.4233590577720643E-01 
    5.2855550399745177E-01 
    1.7435562818107249E+00 
    1.7370789843618195E+00 
    1.7240580407084076E+00 
    1.7043407123691232E+00 
    1.6776367010458455E+00 
    1.6434880892792101E+00 
    1.6012276395386984E+00 
    1.5498195023114318E+00 
    1.4875569024322186E+00 
    1.4116840010507559E+00 
    1.3178230751418796E+00 
    1.1991571109175514E+00 
    1.0451008428471453E+00 
    8.3627086734964318E-01 
    5.2855550399672191E-01 
    0.0000000000000000E+00 

SCALARS Saturarion double 1 
LOOKUP_TABLE default 

    1.0000000000000000E+00 
    9.4796444762975340E-01 
    9.0343467909359587E-01 
    8.5728674505780189E-01 
    8.1147427950705631E-01 
    7.6740473916775320E-01 
    7.2508953721953995E-01 
    6.8432308869734271E-01 
    6.4436102813873564E-01 
    6.0450384488514397E-01 
    5.6307662343726472E-01 
    5.1719263243260238E-01 
    4.5880410862200927E-01 
    3.6785954536930615E-01 
    1.8924966012540262E-01 
    1.5243330719036082E-02 
    9.4796444763003163E-01 
    9.1378822367062262E-01 
    8.7476963745373060E-01 
    8.3383796187273407E-01 
    7.9252851247807288E-01 
    7.5217871061663222E-01 
    7.1289620615683003E-01 
    6.7465762059614787E-01 
    6.3680783090889415E-01 
    5.9868709600465075E-01 
    5.5869727492583976E-01 
    5.1400032749196178E-01 
    4.5646392792302598E-01 
    3.6539426943390069E-01 
    1.8484945567416039E-01 
    1.4034734037399533E-02 
    9.0343467909421227E-01 
    8.7476963745401326E-01 
    8.4102437794227614E-01 
    8.0533432796240167E-01 
    7.6890023210995739E-01 
    7.3277249276625922E-01 
    6.9714010054320397E-01 
    6.6208621035295301E-01 
    6.2704288311228729E-01 
    5.9124326785000136E-01 
    5.5322096751650818E-01 
    5.1016280236237521E-01 
    4.5399892839869982E-01 
    3.6298541802380280E-01 
    1.8071140902058119E-01 
    1.2994678251434782E-02 
    8.5728674505869518E-01 
    8.3383796187334625E-01 
    8.0533432796268345E-01 
    7.7467731477297241E-01 
    7.4306413944236027E-01 
    7.1134322517708548E-01 
    6.7969828143786859E-01 
    6.4809495661597083E-01 
    6.1612290770795242E-01 
    5.8299216810534815E-01 
    5.4733976443036636E-01 
    5.0613456978440408E-01 
    4.5179640264322801E-01 
    3.6067578980937964E-01 
    1.7722340205269602E-01 
    1.2223698650404827E-02 
    8.1147427950819750E-01 
    7.9252851247888501E-01 
    7.6890023211051939E-01 
    7.4306413944259775E-01 
    7.1609624395438543E-01 
    6.8867021493884162E-01 
    6.6096573455237950E-01 
    6.3304890259999069E-01 
    6.0441807026356886E-01 
    5.7444749951739460E-01 
    5.4160656882719516E-01 
    5.0310191918702174E-01 
    4.5052691567684605E-01 
    3.6231332769435792E-01 
    1.8215785054104905E-01 
    1.4010299888828699E-02 
    7.6740473916911722E-01 
    7.5217871061761399E-01 
    7.3277249276700307E-01 
    7.1134322517756443E-01 
    6.8867021493904479E-01 
    6.6544117736206942E-01 
    6.4162936888719513E-01 
    6.1738848734940910E-01 
    5.9214135991217687E-01 
    5.6540396006039650E-01 
    5.3559023757011148E-01 
    4.9992797390553795E-01 
    4.4997557621483486E-01 
    3.6436417786459285E-01 
    1.8813972005570823E-01 
    1.5704778565917423E-02 
    7.2508953722110792E-01 
    7.1289620615807481E-01 
    6.9714010054416431E-01 
    6.7969828143854527E-01 
    6.6096573455278118E-01 
    6.4162936888736721E-01 
    6.2159890275640428E-01 
    6.0104470802469445E-01 
    5.7934734641416308E-01 
    5.5595387817214581E-01 
    5.2937503069588054E-01 
    4.9685326516354889E-01 
    4.5023356390246361E-01 
    3.6781154236848018E-01 
    1.9661934457303049E-01 
    1.8681899056065529E-02 
    6.8432308869911462E-01 
    6.7465762059759760E-01 
    6.6208621035410220E-01 
    6.4809495661682037E-01 
    6.3304890260054392E-01 
    6.1738848734973284E-01 
    6.0104470802484711E-01 
    5.8409096157694962E-01 
    5.6601331962879176E-01 
    5.4615311530303812E-01 
    5.2308886358434381E-01 
    4.9398511747807144E-01 
    4.5140272738114157E-01 
    3.7287510169891769E-01 
    2.0890448988615820E-01 
    2.4179241435292435E-02 
    6.4436102814011220E-01 
    6.3680783091009707E-01 
    6.2704288311324585E-01 
    6.1612290770866562E-01 
    6.0441807026406369E-01 
    5.9214135991250094E-01 
    5.7934734641433849E-01 
    5.6601331962886159E-01 
    5.5170815114033922E-01 
    5.3567036298032511E-01 
    5.1654938538432138E-01 
    4.9165706771308504E-01 
    4.5360495569360909E-01 
    3.8199002624906980E-01 
    2.2941048095276775E-01 
    3.7899081214582214E-02 
    6.0450384488624631E-01 
    5.9868709600559700E-01 
    5.9124326785077419E-01 
    5.8299216810591825E-01 
    5.7444749951781637E-01 
    5.6540396006067783E-01 
    5.5595387817232378E-01 
    5.4615311530313093E-01 
    5.3567036298034876E-01 
    5.2368619976308284E-01 
    5.0888340291587497E-01 
    4.8873927779801862E-01 
    4.5639652543428422E-01 
    3.9274256990101780E-01 
    2.5434071959983306E-01 
    6.0129048369077703E-02 
    5.6307662343807774E-01 
    5.5869727492653121E-01 
    5.5322096751705696E-01 
    5.4733976443078269E-01 
    5.4160656882750402E-01 
    5.3559023757031954E-01 
    5.2937503069600245E-01 
    5.2308886358439854E-01 
    5.1654938538431017E-01 
    5.0888340291584278E-01 
    4.9887690060603856E-01 
    4.8421817175676268E-01 
    4.5877512806279441E-01 
    4.0503554619852455E-01 
    2.8339551443900768E-01 
    9.5899685976055540E-02 
    5.1719263243311664E-01 
    5.1400032749238378E-01 
    5.1016280236270561E-01 
    5.0613456978464266E-01 
    5.0310191918717528E-01 
    4.9992797390561822E-01 
    4.9685326516356071E-01 
    4.9398511747802948E-01 
    4.9165706771298123E-01 
    4.8873927779789522E-01 
    4.8421817175667387E-01 
    4.7602208285276504E-01 
    4.5879357027019241E-01 
    4.1723541605658743E-01 
    3.1519056858054884E-01 
    1.4365331999771336E-01 
    4.5880410862216320E-01 
    4.5646392792312951E-01 
    4.5399892839874956E-01 
    4.5179640264322363E-01 
    4.5052691567677716E-01 
    4.4997557621470519E-01 
    4.5023356390227343E-01 
    4.5140272738089426E-01 
    4.5360495569330750E-01 
    4.5639652543397508E-01 
    4.5877512806253229E-01 
    4.5879357027003637E-01 
    4.5194183429193396E-01 
    4.2562821951251878E-01 
    3.4766725808604609E-01 
    1.9776422689072376E-01 
    3.6785954536892618E-01 
    3.6539426943352371E-01 
    3.6298541802341716E-01 
    3.6067578980897325E-01 
    3.6231332769392288E-01 
    3.6436417786411052E-01 
    3.6781154236793012E-01 
    3.7287510169827376E-01 
    3.8199002624839024E-01 
    3.9274256990035500E-01 
    4.0503554619795207E-01 
    4.1723541605617442E-01 
    4.2562821951232105E-01 
    4.1976408451549374E-01 
    3.7235930516320925E-01 
    2.5152517181640266E-01 
    1.8924966012536268E-01 
    1.8484945567409078E-01 
    1.8071140902048582E-01 
    1.7722340205253523E-01 
    1.8215785054077230E-01 
    1.8813972005526378E-01 
    1.9661934457235730E-01 
    2.0890448988520449E-01 
    2.2941048095170730E-01 
    2.5434071959876037E-01 
    2.8339551443802657E-01 
    3.1519056857975170E-01 
    3.4766725808552429E-01 
    3.7235930516297455E-01 
    3.6808091194268833E-01 
    2.9443492007622479E-01 
    1.5243330719056536E-02 
    1.4034734037409194E-02 
    1.2994678251435585E-02 
    1.2223698650386420E-02 
    1.4010299888771824E-02 
    1.5704778565795791E-02 
    1.8681899055829641E-02 
    2.4179241434854316E-02 
    3.7899081213786226E-02 
    6.0129048367904080E-02 
    9.5899685974691007E-02 
    1.4365331999659486E-01 
    1.9776422689006232E-01 
    2.5152517181618722E-01 
    2.9443492007608663E-01 
    2.9284194051450568E-01 
