# vtk DataFile Version 2.0
Pressure Field Data 
ASCII 
DATASET UNSTRUCTURED_GRID 

POINTS 289 double 

    0.0000000000000000E+00     0.0000000000000000E+00     0.0000000000000000E+00 
    1.0000000000000000E+00     0.0000000000000000E+00     0.0000000000000000E+00 
    1.0000000000000000E+00     1.0000000000000000E+00     0.0000000000000000E+00 
    0.0000000000000000E+00     1.0000000000000000E+00     0.0000000000000000E+00 
    6.2499999999872928E-02     0.0000000000000000E+00     0.0000000000000000E+00 
    1.2499999999977310E-01     0.0000000000000000E+00     0.0000000000000000E+00 
    1.8749999999959341E-01     0.0000000000000000E+00     0.0000000000000000E+00 
    2.4999999999941089E-01     0.0000000000000000E+00     0.0000000000000000E+00 
    3.1249999999922851E-01     0.0000000000000000E+00     0.0000000000000000E+00 
    3.7499999999904610E-01     0.0000000000000000E+00     0.0000000000000000E+00 
    4.3749999999886358E-01     0.0000000000000000E+00     0.0000000000000000E+00 
    4.9999999999869210E-01     0.0000000000000000E+00     0.0000000000000000E+00 
    5.6249999999884603E-01     0.0000000000000000E+00     0.0000000000000000E+00 
    6.2499999999901090E-01     0.0000000000000000E+00     0.0000000000000000E+00 
    6.8749999999917577E-01     0.0000000000000000E+00     0.0000000000000000E+00 
    7.4999999999934064E-01     0.0000000000000000E+00     0.0000000000000000E+00 
    8.1249999999950551E-01     0.0000000000000000E+00     0.0000000000000000E+00 
    8.7499999999967026E-01     0.0000000000000000E+00     0.0000000000000000E+00 
    9.3749999999983513E-01     0.0000000000000000E+00     0.0000000000000000E+00 
    1.0000000000000000E+00     6.2499999999872928E-02     0.0000000000000000E+00 
    1.0000000000000000E+00     1.2499999999977310E-01     0.0000000000000000E+00 
    1.0000000000000000E+00     1.8749999999959341E-01     0.0000000000000000E+00 
    1.0000000000000000E+00     2.4999999999941089E-01     0.0000000000000000E+00 
    1.0000000000000000E+00     3.1249999999922851E-01     0.0000000000000000E+00 
    1.0000000000000000E+00     3.7499999999904610E-01     0.0000000000000000E+00 
    1.0000000000000000E+00     4.3749999999886358E-01     0.0000000000000000E+00 
    1.0000000000000000E+00     4.9999999999869210E-01     0.0000000000000000E+00 
    1.0000000000000000E+00     5.6249999999884603E-01     0.0000000000000000E+00 
    1.0000000000000000E+00     6.2499999999901090E-01     0.0000000000000000E+00 
    1.0000000000000000E+00     6.8749999999917577E-01     0.0000000000000000E+00 
    1.0000000000000000E+00     7.4999999999934064E-01     0.0000000000000000E+00 
    1.0000000000000000E+00     8.1249999999950551E-01     0.0000000000000000E+00 
    1.0000000000000000E+00     8.7499999999967026E-01     0.0000000000000000E+00 
    1.0000000000000000E+00     9.3749999999983513E-01     0.0000000000000000E+00 
    9.3749999999973976E-01     1.0000000000000000E+00     0.0000000000000000E+00 
    8.7499999999950118E-01     1.0000000000000000E+00     0.0000000000000000E+00 
    8.1249999999991318E-01     1.0000000000000000E+00     0.0000000000000000E+00 
    7.5000000000034706E-01     1.0000000000000000E+00     0.0000000000000000E+00 
    6.8750000000078049E-01     1.0000000000000000E+00     0.0000000000000000E+00 
    6.2500000000121403E-01     1.0000000000000000E+00     0.0000000000000000E+00 
    5.6250000000164757E-01     1.0000000000000000E+00     0.0000000000000000E+00 
    5.0000000000205946E-01     1.0000000000000000E+00     0.0000000000000000E+00 
    4.3750000000182099E-01     1.0000000000000000E+00     0.0000000000000000E+00 
    3.7500000000156092E-01     1.0000000000000000E+00     0.0000000000000000E+00 
    3.1250000000130068E-01     1.0000000000000000E+00     0.0000000000000000E+00 
    2.5000000000104050E-01     1.0000000000000000E+00     0.0000000000000000E+00 
    1.8750000000078040E-01     1.0000000000000000E+00     0.0000000000000000E+00 
    1.2500000000052031E-01     1.0000000000000000E+00     0.0000000000000000E+00 
    6.2500000000260125E-02     1.0000000000000000E+00     0.0000000000000000E+00 
    0.0000000000000000E+00     9.3749999999973976E-01     0.0000000000000000E+00 
    0.0000000000000000E+00     8.7499999999950118E-01     0.0000000000000000E+00 
    0.0000000000000000E+00     8.1249999999991318E-01     0.0000000000000000E+00 
    0.0000000000000000E+00     7.5000000000034706E-01     0.0000000000000000E+00 
    0.0000000000000000E+00     6.8750000000078049E-01     0.0000000000000000E+00 
    0.0000000000000000E+00     6.2500000000121403E-01     0.0000000000000000E+00 
    0.0000000000000000E+00     5.6250000000164757E-01     0.0000000000000000E+00 
    0.0000000000000000E+00     5.0000000000205946E-01     0.0000000000000000E+00 
    0.0000000000000000E+00     4.3750000000182099E-01     0.0000000000000000E+00 
    0.0000000000000000E+00     3.7500000000156092E-01     0.0000000000000000E+00 
    0.0000000000000000E+00     3.1250000000130068E-01     0.0000000000000000E+00 
    0.0000000000000000E+00     2.5000000000104050E-01     0.0000000000000000E+00 
    0.0000000000000000E+00     1.8750000000078040E-01     0.0000000000000000E+00 
    0.0000000000000000E+00     1.2500000000052031E-01     0.0000000000000000E+00 
    0.0000000000000000E+00     6.2500000000260125E-02     0.0000000000000000E+00 
    6.2499999999897131E-02     6.2500000000235922E-02     0.0000000000000000E+00 
    6.2499999999921327E-02     1.2500000000047351E-01     0.0000000000000000E+00 
    6.2499999999945530E-02     1.8750000000070621E-01     0.0000000000000000E+00 
    6.2499999999969733E-02     2.5000000000093858E-01     0.0000000000000000E+00 
    6.2499999999993928E-02     3.1250000000117117E-01     0.0000000000000000E+00 
    6.2500000000018124E-02     3.7500000000140382E-01     0.0000000000000000E+00 
    6.2500000000042327E-02     4.3750000000163619E-01     0.0000000000000000E+00 
    6.2500000000066530E-02     5.0000000000184897E-01     0.0000000000000000E+00 
    6.2500000000090733E-02     5.6250000000147260E-01     0.0000000000000000E+00 
    6.2500000000114922E-02     6.2500000000107636E-01     0.0000000000000000E+00 
    6.2500000000139125E-02     6.8750000000068034E-01     0.0000000000000000E+00 
    6.2500000000163328E-02     7.5000000000028411E-01     0.0000000000000000E+00 
    6.2500000000187531E-02     8.1249999999988787E-01     0.0000000000000000E+00 
    6.2500000000211720E-02     8.7499999999951172E-01     0.0000000000000000E+00 
    6.2500000000235922E-02     9.3749999999974565E-01     0.0000000000000000E+00 
    1.2499999999981980E-01     6.2500000000211733E-02     0.0000000000000000E+00 
    1.2499999999986650E-01     1.2500000000042691E-01     0.0000000000000000E+00 
    1.2499999999991319E-01     1.8750000000063199E-01     0.0000000000000000E+00 
    1.2499999999995989E-01     2.5000000000083678E-01     0.0000000000000000E+00 
    1.2500000000000661E-01     3.1250000000104172E-01     0.0000000000000000E+00 
    1.2500000000005329E-01     3.7500000000124661E-01     0.0000000000000000E+00 
    1.2500000000010000E-01     4.3750000000145117E-01     0.0000000000000000E+00 
    1.2500000000014669E-01     5.0000000000163858E-01     0.0000000000000000E+00 
    1.2500000000019340E-01     5.6250000000129741E-01     0.0000000000000000E+00 
    1.2500000000024011E-01     6.2500000000093847E-01     0.0000000000000000E+00 
    1.2500000000028680E-01     6.8750000000057998E-01     0.0000000000000000E+00 
    1.2500000000033351E-01     7.5000000000022127E-01     0.0000000000000000E+00 
    1.2500000000038020E-01     8.1249999999986211E-01     0.0000000000000000E+00 
    1.2500000000042691E-01     8.7499999999952238E-01     0.0000000000000000E+00 
    1.2500000000047359E-01     9.3749999999975164E-01     0.0000000000000000E+00 
    1.8749999999966760E-01     6.2500000000187531E-02     0.0000000000000000E+00 
    1.8749999999974179E-01     1.2500000000038020E-01     0.0000000000000000E+00 
    1.8749999999981601E-01     1.8750000000055780E-01     0.0000000000000000E+00 
    1.8749999999989009E-01     2.5000000000073502E-01     0.0000000000000000E+00 
    1.8749999999996431E-01     3.1250000000091221E-01     0.0000000000000000E+00 
    1.8750000000003850E-01     3.7500000000108941E-01     0.0000000000000000E+00 
    1.8750000000011269E-01     4.3750000000126649E-01     0.0000000000000000E+00 
    1.8750000000018691E-01     5.0000000000142808E-01     0.0000000000000000E+00 
    1.8750000000026110E-01     5.6250000000112244E-01     0.0000000000000000E+00 
    1.8750000000033529E-01     6.2500000000080080E-01     0.0000000000000000E+00 
    1.8750000000040951E-01     6.8750000000047962E-01     0.0000000000000000E+00 
    1.8750000000048361E-01     7.5000000000015843E-01     0.0000000000000000E+00 
    1.8750000000055780E-01     8.1249999999983680E-01     0.0000000000000000E+00 
    1.8750000000063199E-01     8.7499999999953304E-01     0.0000000000000000E+00 
    1.8750000000070621E-01     9.3749999999975764E-01     0.0000000000000000E+00 
    2.4999999999951281E-01     6.2500000000163314E-02     0.0000000000000000E+00 
    2.4999999999961461E-01     1.2500000000033351E-01     0.0000000000000000E+00 
    2.4999999999971650E-01     1.8750000000048361E-01     0.0000000000000000E+00 
    2.4999999999981831E-01     2.5000000000063310E-01     0.0000000000000000E+00 
    2.4999999999992020E-01     3.1250000000078260E-01     0.0000000000000000E+00 
    2.5000000000002198E-01     3.7500000000093209E-01     0.0000000000000000E+00 
    2.5000000000012390E-01     4.3750000000108180E-01     0.0000000000000000E+00 
    2.5000000000022571E-01     5.0000000000121769E-01     0.0000000000000000E+00 
    2.5000000000032763E-01     5.6250000000094724E-01     0.0000000000000000E+00 
    2.5000000000042938E-01     6.2500000000066314E-01     0.0000000000000000E+00 
    2.5000000000053119E-01     6.8750000000037925E-01     0.0000000000000000E+00 
[...]
CELL_DATA 256 
SCALARS Pressure double 1 
LOOKUP_TABLE default 

    1.7970550435155161E+00 
    1.6916978570466183E+00 
    1.6234530139868946E+00 
    1.5725616736527950E+00 
    1.5309670256086834E+00 
    1.4950892903933344E+00 
    1.4632111903524920E+00 
    1.4344899807611158E+00 
    1.4085463144120827E+00 
    1.3852710599115345E+00 
    1.3647196514244657E+00 
    1.3470407137801901E+00 
    1.3324113556898751E+00 
    1.3209686727161671E+00 
    1.3127015337696730E+00 
    1.3078414294750773E+00 
    1.6916978570471763E+00 
    1.6479827272636467E+00 
    1.6015220046283409E+00 
    1.5594638278814907E+00 
    1.5219554519542455E+00 
    1.4881673391723622E+00 
    1.4574187889056547E+00 
    1.4293082409683473E+00 
    1.4036683155066041E+00 
    1.3805037294922806E+00 
    1.3599393803612247E+00 
    1.3421733432027476E+00 
    1.3274229424077844E+00 
    1.3158571144574105E+00 
    1.3074881428686245E+00 
    1.3025645240996229E+00 
    1.6234530139876744E+00 
    1.6015220046287149E+00 
    1.5707644415877466E+00 
    1.5380266325998031E+00 
    1.5059081057549355E+00 
    1.4752562478219431E+00 
    1.4463262336374016E+00 
    1.4192273103887691E+00 
    1.3940814756728173E+00 
    1.3710683603482314E+00 
    1.3504298633688618E+00 
    1.3324527432138455E+00 
    1.3174300026279953E+00 
    1.3055930813882850E+00 
    1.2970030585004444E+00 
    1.2919430475791827E+00 
    1.5725616736537271E+00 
    1.5594638278821145E+00 
    1.5380266326000960E+00 
    1.5124382689479112E+00 
    1.4852272202287544E+00 
    1.4577615536831419E+00 
    1.4307934211284308E+00 
    1.4047962147229918E+00 
    1.3801435332418066E+00 
    1.3571929586820948E+00 
    1.3363219614524215E+00 
    1.3179310734998309E+00 
    1.3024161194437900E+00 
    1.2901018252204088E+00 
    1.2811302360532026E+00 
    1.2758379099685806E+00 
    1.5309670256097345E+00 
    1.5219554519550429E+00 
    1.5059081057554462E+00 
    1.4852272202289925E+00 
    1.4618260094596076E+00 
    1.4370357616809737E+00 
    1.4117656888785801E+00 
    1.3866783879569682E+00 
    1.3623182305957706E+00 
    1.3391902996574412E+00 
    1.3178043697344661E+00 
    1.2986878101217056E+00 
    1.2823620740954598E+00 
    1.2692795825912253E+00 
    1.2596991882257562E+00 
    1.2540327051549232E+00 
    1.4950892903944888E+00 
    1.4881673391732919E+00 
    1.4752562478226203E+00 
    1.4577615536835700E+00 
    1.4370357616811744E+00 
    1.4141962341587309E+00 
    1.3901284497132564E+00 
    1.3655559195568852E+00 
    1.3411163535802750E+00 
    1.3174214746255422E+00 
    1.2950990095375214E+00 
    1.2748088362437964E+00 
    1.2572237240168214E+00 
    1.2429633356439114E+00 
    1.2324448455900820E+00 
    1.2261910986479636E+00 
    1.4632111903537368E+00 
    1.4574187889066899E+00 
    1.4463262336382097E+00 
    1.4307934211290134E+00 
    1.4117656888789512E+00 
    1.3901284497134347E+00 
    1.3666676294959319E+00 
    1.3420896267476399E+00 
    1.3170651401270574E+00 
    1.2922730173597723E+00 
    1.2684405293580054E+00 
    1.2463635694128785E+00 
    1.2268953343866849E+00 
    1.2108715222163637E+00 
    1.1989340176656273E+00 
    1.1917814847495212E+00 
    1.4344899807624250E+00 
    1.4293082409694586E+00 
    1.4192273103896744E+00 
    1.4047962147236952E+00 
    1.3866783879574816E+00 
    1.3655559195572216E+00 
    1.3420896267478080E+00 
    1.3169235135457389E+00 
    1.2907148352007198E+00 
    1.2641719030026028E+00 
    1.2380984884035662E+00 
    1.2134270486202321E+00 
    1.1912213550238413E+00 
    1.1726011448743991E+00 
    1.1585397285045940E+00 
    1.1500197764016948E+00 
    1.4085463144132122E+00 
    1.4036683155075771E+00 
    1.3940814756736375E+00 
    1.3801435332424825E+00 
    1.3623182305963129E+00 
    1.3411163535806923E+00 
    1.3170651401273532E+00 
    1.2907148352008850E+00 
    1.2626679409965087E+00 
    1.2336202771781291E+00 
    1.2044176974107026E+00 
    1.1761174857311760E+00 
    1.1500216216705887E+00 
    1.1276267239111579E+00 
    1.1103977677821357E+00 
    1.0997841776052142E+00 
    1.3852710599123421E+00 
    1.3805037294929883E+00 
    1.3710683603488518E+00 
    1.3571929586826421E+00 
    1.3391902996579299E+00 
    1.3174214746259811E+00 
    1.2922730173601653E+00 
    1.2641719030029419E+00 
    1.2336202771783460E+00 
    1.2012449222339352E+00 
    1.1678748670842873E+00 
    1.1346493718268023E+00 
    1.1031163951262737E+00 
    1.0752551610730996E+00 
    1.0532628355274711E+00 
    1.0393906305914828E+00 
    1.3647196514249911E+00 
    1.3599393803616973E+00 
    1.3504298633693022E+00 
    1.3363219614528530E+00 
    1.3178043697349100E+00 
    1.2950990095379924E+00 
    1.2684405293585139E+00 
    1.2380984884041115E+00 
    1.2044176974111862E+00 
    1.1678748670845667E+00 
    1.1291793848710336E+00 
    1.0894462517913492E+00 
    1.0504069583497095E+00 
    1.0145967833124141E+00 
    9.8529507393717453E-01 
    9.6619232838694813E-01 
    1.3470407137804796E+00 
    1.3421733432030236E+00 
    1.3324527432141378E+00 
    1.3179310735001712E+00 
    1.2986878101221242E+00 
    1.2748088362443195E+00 
    1.2463635694135298E+00 
    1.2134270486210252E+00 
    1.1761174857319865E+00 
    1.1346493718274324E+00 
    1.0894462517917134E+00 
    1.0413791875391611E+00 
    9.9213303290304988E-01 
    9.4471060735089252E-01 
    9.0385982281694455E-01 
    8.7589727382076832E-01 
    1.3324113556899793E+00 
    1.3274229424079071E+00 
    1.3174300026281733E+00 
    1.3024161194440680E+00 
    1.2823620740958794E+00 
    1.2572237240174227E+00 
    1.2268953343875098E+00 
    1.1912213550249269E+00 
    1.1500216216717880E+00 
    1.1031163951273293E+00 
    1.0504069583505278E+00 
    9.9213303290352439E-01 
    9.2937605773047904E-01 
    8.6502012096473135E-01 
    8.0528760777473285E-01 
    7.6110395682503340E-01 
    1.3209686727161427E+00 
    1.3158571144574280E+00 
    1.3055930813883909E+00 
    1.2901018252206604E+00 
    1.2692795825916767E+00 
    1.2429633356446197E+00 
    1.2108715222173925E+00 
    1.1726011448758149E+00 
    1.1276267239127959E+00 
    1.0752551610746399E+00 
    1.0145967833137606E+00 
    9.4471060735193779E-01 
    8.6502012096533365E-01 
    7.7652699800768576E-01 
    6.8499064074548455E-01 
    6.0763425263324300E-01 
    1.3127015337696306E+00 
    1.3074881428686362E+00 
    1.2970030585005656E+00 
    1.2811302360535020E+00 
    1.2596991882263018E+00 
    1.2324448455909476E+00 
    1.1989340176669003E+00 
    1.1585397285063683E+00 
    1.1103977677842292E+00 
    1.0532628355294915E+00 
    9.8529507393901616E-01 
    9.0385982281848620E-01 
    8.0528760777580288E-01 
    6.8499064074585259E-01 
    5.4002634585069520E-01 
    3.8395382346126433E-01 
    1.3078414294750496E+00 
    1.3025645240996571E+00 
    1.2919430475793423E+00 
    1.2758379099689474E+00 
    1.2540327051555782E+00 
    1.2261910986489972E+00 
    1.1917814847510406E+00 
    1.1500197764038229E+00 
    1.0997841776077475E+00 
    1.0393906305939580E+00 
    9.6619232838924585E-01 
    8.7589727382274374E-01 
    7.6110395682645360E-01 
    6.0763425263368076E-01 
    3.8395382346074858E-01 
    0.0000000000000000E+00 

SCALARS Saturarion double 1 
LOOKUP_TABLE default 

    1.0000000000000000E+00 
    9.6339604514521393E-01 
    9.3001945037661382E-01 
    8.9362951831036241E-01 
    8.5598182480201823E-01 
    8.1852428016090550E-01 
    7.8164666378820902E-01 
    7.4545737450683980E-01 
    7.0957398103308678E-01 
    6.7362267653151697E-01 
    6.3657155085063521E-01 
    5.9694921900248865E-01 
    5.5129373100540457E-01 
    4.9253190838597760E-01 
    3.9666606237485730E-01 
    1.8369415252494212E-01 
    9.6339604514538102E-01 
    9.3800976814464310E-01 
    9.0776468770222585E-01 
    8.7470730262501639E-01 
    8.4020134680181180E-01 
    8.0552431249646328E-01 
    7.7104400838449494E-01 
    7.3695031310528558E-01 
    7.0289400801531510E-01 
    6.6850943913556948E-01 
    6.3281448091270864E-01 
    5.9438323778160118E-01 
    5.4978542136472786E-01 
    4.9181132323337712E-01 
    3.9649282993514368E-01 
    1.8353644922278511E-01 
    9.3001945037711209E-01 
    9.0776468770244667E-01 
    8.8072801733378847E-01 
    8.5117438687916758E-01 
    8.2018781455533307E-01 
    7.8875893768223115E-01 
    7.5723675454603601E-01 
    7.2583826104077209E-01 
    6.9424336780207552E-01 
    6.6197513881337600E-01 
    6.2813965484594902E-01 
    5.9133230311220575E-01 
    5.4823156784370586E-01 
    4.9130490440616992E-01 
    3.9684656796255996E-01 
    1.8455255735372475E-01 
    8.9362951831111836E-01 
    8.7470730262553165E-01 
    8.5117438687941616E-01 
    8.2521173439768114E-01 
    7.9787430591556252E-01 
    7.6996149513972856E-01 
    7.4175988833355910E-01 
    7.1335275790436059E-01 
    6.8450586055025553E-01 
    6.5469756312756155E-01 
    6.2309730921320838E-01 
    5.8815104064072488E-01 
    5.4689082190415894E-01 
    4.9108228690202399E-01 
    3.9789566719508723E-01 
    1.8710036869681701E-01 
    8.5598182480293383E-01 
    8.4020134680255476E-01 
    8.2018781455583467E-01 
    7.9787430591581088E-01 
    7.7421209934719570E-01 
    7.4984666537510614E-01 
    7.2502171295329410E-01 
    6.9986414024243115E-01 
    6.7403828011769629E-01 
    6.4712048021413082E-01 
    6.1811791530791749E-01 
    5.8561725052731961E-01 
    5.4618102597197404E-01 
    4.9272200278261313E-01 
    4.0130287336828280E-01 
    1.9407841429344344E-01 
    8.1852428016207224E-01 
    8.0552431249741707E-01 
    7.8875893768292649E-01 
    7.6996149514014478E-01 
    7.4984666537529798E-01 
    7.2905320231531234E-01 
    7.0764175915347882E-01 
    6.8578339507950392E-01 
    6.6306270690443070E-01 
    6.3914120998125046E-01 
    6.1295727964046121E-01 
    5.8306598530412990E-01 
    5.4602084040755805E-01 
    4.9478010091151775E-01 
    4.0578739586775003E-01 
    2.0355124067250313E-01 
    7.8164666378961334E-01 
    7.7104400838562359E-01 
    7.5723675454690342E-01 
    7.4175988833413586E-01 
    7.2502171295367512E-01 
    7.0764175915364880E-01 
    6.8961412377689235E-01 
    6.7110560835662081E-01 
    6.5165338598797096E-01 
    6.3084777281394999E-01 
    6.0767917129430049E-01 
    5.8066108816217155E-01 
    5.4646187509084276E-01 
    4.9777452834207014E-01 
    4.1182790641434286E-01 
    2.1586688022412215E-01 
    7.4545737450842064E-01 
    7.3695031310659853E-01 
    7.2583826104179661E-01 
    7.1335275790512787E-01 
    6.9986414024295496E-01 
    6.8578339507981745E-01 
    6.7110560835675770E-01 
    6.5590888569461259E-01 
    6.3979908622960280E-01 
    6.2227265492030204E-01 
    6.0234955746869800E-01 
    5.7844403598672556E-01 
    5.4751880663313091E-01 
    5.0178996784098595E-01 
    4.1969392489963259E-01 
    2.3121765810131092E-01 
    7.0957398103432756E-01 
    7.0289400801640689E-01 
    6.9424336780293605E-01 
    6.8450586055089746E-01 
    6.7403828011814326E-01 
    6.6306270690472402E-01 
    6.5165338598811529E-01 
    6.3979908622965276E-01 
    6.2715646071291320E-01 
    6.1313237067507709E-01 
    5.9676730637981423E-01 
    5.7650474771797500E-01 
    5.4916235840568495E-01 
    5.0768662277461207E-01 
    4.3056095046124016E-01 
    2.5101698904551550E-01 
    6.7362267653249630E-01 
    6.6850943913641447E-01 
    6.6197513881403025E-01 
    6.5469756312807748E-01 
    6.4712048021450164E-01 
    6.3914120998148116E-01 
    6.3084777281411020E-01 
    6.2227265492037109E-01 
    6.1313237067508386E-01 
    6.0278684992909171E-01 
    5.9026843495436310E-01 
    5.7404542243940104E-01 
    5.5101124263860968E-01 
    5.1433639109254425E-01 
    4.4353502000986039E-01 
    2.7415459661707148E-01 
    6.3657155085136485E-01 
    6.3281448091332992E-01 
    6.2813965484645273E-01 
    6.2309730921359230E-01 
    6.1811791530819016E-01 
    6.1295727964063862E-01 
    6.0767917129440707E-01 
    6.0234955746873620E-01 
    5.9676730637978948E-01 
    5.9026843495432646E-01 
    5.8193265147243367E-01 
    5.7027485169323633E-01 
    5.5232338536639680E-01 
    5.2148855690659546E-01 
    4.5866445967613900E-01 
    3.0107691076755300E-01 
    5.9694921900295739E-01 
    5.9438323778200197E-01 
    5.9133230311252361E-01 
    5.8815104064096191E-01 
    5.8561725052746638E-01 
    5.8306598530419440E-01 
    5.8066108816218065E-01 
    5.7844403598668370E-01 
    5.7650474771787885E-01 
    5.7404542243929402E-01 
    5.7027485169316128E-01 
    5.6379213062927847E-01 
    5.5179134074101144E-01 
    5.2811582382313838E-01 
    4.7524979640663317E-01 
    3.3163397270973793E-01 
    5.5129373100558565E-01 
    5.4978542136485931E-01 
    5.4823156784379046E-01 
    5.4689082190419891E-01 
    5.4618102597194407E-01 
    5.4602084040747401E-01 
    5.4646187509070387E-01 
    5.4751880663294739E-01 
    5.4916235840545824E-01 
    5.5101124263837442E-01 
    5.5232338536620151E-01 
    5.5179134074089597E-01 
    5.4689882335604001E-01 
    5.3212213980897705E-01 
    4.9194306914554126E-01 
    3.6669798862947794E-01 
    4.9253190838573507E-01 
    4.9181132323312970E-01 
    4.9130490440591379E-01 
    4.9108228690174976E-01 
    4.9272200278231071E-01 
    4.9478010091118041E-01 
    4.9777452834168368E-01 
    5.0178996784054974E-01 
    5.0768662277416832E-01 
    5.1433639109212015E-01 
    5.2148855690623708E-01 
    5.2811582382288358E-01 
    5.3212213980885192E-01 
    5.2861228331632981E-01 
    5.0447480698453506E-01 
    4.0432077676557743E-01 
    3.9666606237470398E-01 
    3.9649282993498736E-01 
    3.9684656796239509E-01 
    3.9789566719490355E-01 
    4.0130287336805814E-01 
    4.0578739586746310E-01 
    4.1182790641397049E-01 
    4.1969392489913926E-01 
    4.3056095046071080E-01 
    4.4353502000933415E-01 
    4.5866445967566027E-01 
    4.7524979640624243E-01 
    4.9194306914528885E-01 
    5.0447480698442904E-01 
    5.0217292045465178E-01 
    4.3855795337711168E-01 
    1.8369415252490331E-01 
    1.8353644922274215E-01 
    1.8455255735367943E-01 
    1.8710036869673563E-01 
    1.9407841429327180E-01 
    2.0355124067220254E-01 
    2.1586688022364281E-01 
    2.3121765810061545E-01 
    2.5101698904481828E-01 
    2.7415459661642255E-01 
    3.0107691076700444E-01 
    3.3163397270933609E-01 
    3.6669798862928255E-01 
    4.0432077676561934E-01 
    4.3855795337713116E-01 
    4.3775459057266430E-01 
