# vtk DataFile Version 2.0
Pressure Field Data 
ASCII 
DATASET UNSTRUCTURED_GRID 

POINTS 289 double 

    0.0000000000000000E+00     0.0000000000000000E+00     0.0000000000000000E+00 
    1.0000000000000000E+00     0.0000000000000000E+00     0.0000000000000000E+00 
    1.0000000000000000E+00     1.0000000000000000E+00     0.0000000000000000E+00 
    0.0000000000000000E+00     1.0000000000000000E+00     0.0000000000000000E+00 
    6.2499999999872928E-02     0.0000000000000000E+00     0.0000000000000000E+00 
    1.2499999999977310E-01     0.0000000000000000E+00     0.0000000000000000E+00 
    1.8749999999959341E-01     0.0000000000000000E+00     0.0000000000000000E+00 
    2.4999999999941089E-01     0.0000000000000000E+00     0.0000000000000000E+00 
    3.1249999999922851E-01     0.0000000000000000E+00     0.0000000000000000E+00 
    3.7499999999904610E-01     0.0000000000000000E+00     0.0000000000000000E+00 
    4.3749999999886358E-01     0.0000000000000000E+00     0.0000000000000000E+00 
    4.9999999999869210E-01     0.0000000000000000E+00     0.0000000000000000E+00 
    5.6249999999884603E-01     0.0000000000000000E+00     0.0000000000000000E+00 
    6.2499999999901090E-01     0.0000000000000000E+00     0.0000000000000000E+00 
    6.8749999999917577E-01     0.0000000000000000E+00     0.0000000000000000E+00 
    7.4999999999934064E-01     0.0000000000000000E+00     0.0000000000000000E+00 
    8.1249999999950551E-01     0.0000000000000000E+00     0.0000000000000000E+00 
    8.7499999999967026E-01     0.0000000000000000E+00     0.0000000000000000E+00 
    9.3749999999983513E-01     0.0000000000000000E+00     0.0000000000000000E+00 
    1.0000000000000000E+00     6.2499999999872928E-02     0.0000000000000000E+00 
    1.0000000000000000E+00     1.2499999999977310E-01     0.0000000000000000E+00 
    1.0000000000000000E+00     1.8749999999959341E-01     0.0000000000000000E+00 
    1.0000000000000000E+00     2.4999999999941089E-01     0.0000000000000000E+00 
    1.0000000000000000E+00     3.1249999999922851E-01     0.0000000000000000E+00 
    1.0000000000000000E+00     3.7499999999904610E-01     0.0000000000000000E+00 
    1.0000000000000000E+00     4.3749999999886358E-01     0.0000000000000000E+00 
    1.0000000000000000E+00     4.9999999999869210E-01     0.0000000000000000E+00 
    1.0000000000000000E+00     5.6249999999884603E-01     0.0000000000000000E+00 
    1.0000000000000000E+00     6.2499999999901090E-01     0.0000000000000000E+00 
    1.0000000000000000E+00     6.8749999999917577E-01     0.0000000000000000E+00 
    1.0000000000000000E+00     7.4999999999934064E-01     0.0000000000000000E+00 
    1.0000000000000000E+00     8.1249999999950551E-01     0.0000000000000000E+00 
    1.0000000000000000E+00     8.7499999999967026E-01     0.0000000000000000E+00 
    1.0000000000000000E+00     9.3749999999983513E-01     0.0000000000000000E+00 
    9.3749999999973976E-01     1.0000000000000000E+00     0.0000000000000000E+00 
    8.7499999999950118E-01     1.0000000000000000E+00     0.0000000000000000E+00 
    8.1249999999991318E-01     1.0000000000000000E+00     0.0000000000000000E+00 
    7.5000000000034706E-01     1.0000000000000000E+00     0.0000000000000000E+00 
    6.8750000000078049E-01     1.0000000000000000E+00     0.0000000000000000E+00 
    6.2500000000121403E-01     1.0000000000000000E+00     0.0000000000000000E+00 
    5.6250000000164757E-01     1.0000000000000000E+00     0.0000000000000000E+00 
    5.0000000000205946E-01     1.0000000000000000E+00     0.0000000000000000E+00 
    4.3750000000182099E-01     1.0000000000000000E+00     0.0000000000000000E+00 
    3.7500000000156092E-01     1.0000000000000000E+00     0.0000000000000000E+00 
    3.1250000000130068E-01     1.0000000000000000E+00     0.0000000000000000E+00 
    2.5000000000104050E-01     1.0000000000000000E+00     0.0000000000000000E+00 
    1.8750000000078040E-01     1.0000000000000000E+00     0.0000000000000000E+00 
    1.2500000000052031E-01     1.0000000000000000E+00     0.0000000000000000E+00 
    6.2500000000260125E-02     1.0000000000000000E+00     0.0000000000000000E+00 
    0.0000000000000000E+00     9.3749999999973976E-01     0.0000000000000000E+00 
    0.0000000000000000E+00     8.7499999999950118E-01     0.0000000000000000E+00 
    0.0000000000000000E+00     8.1249999999991318E-01     0.0000000000000000E+00 
    0.0000000000000000E+00     7.5000000000034706E-01     0.0000000000000000E+00 
    0.0000000000000000E+00     6.8750000000078049E-01     0.0000000000000000E+00 
    0.0000000000000000E+00     6.2500000000121403E-01     0.0000000000000000E+00 
    0.0000000000000000E+00     5.6250000000164757E-01     0.0000000000000000E+00 
    0.0000000000000000E+00     5.0000000000205946E-01     0.0000000000000000E+00 
    0.0000000000000000E+00     4.3750000000182099E-01     0.0000000000000000E+00 
    0.0000000000000000E+00     3.7500000000156092E-01     0.0000000000000000E+00 
    0.0000000000000000E+00     3.1250000000130068E-01     0.0000000000000000E+00 
    0.0000000000000000E+00     2.5000000000104050E-01     0.0000000000000000E+00 
    0.0000000000000000E+00     1.8750000000078040E-01     0.0000000000000000E+00 
    0.0000000000000000E+00     1.2500000000052031E-01     0.0000000000000000E+00 
    0.0000000000000000E+00     6.2500000000260125E-02     0.0000000000000000E+00 
    6.2499999999897131E-02     6.2500000000235922E-02     0.0000000000000000E+00 
    6.2499999999921327E-02     1.2500000000047351E-01     0.0000000000000000E+00 
    6.2499999999945530E-02     1.8750000000070621E-01     0.0000000000000000E+00 
    6.2499999999969733E-02     2.5000000000093858E-01     0.0000000000000000E+00 
    6.2499999999993928E-02     3.1250000000117117E-01     0.0000000000000000E+00 
    6.2500000000018124E-02     3.7500000000140382E-01     0.0000000000000000E+00 
    6.2500000000042327E-02     4.3750000000163619E-01     0.0000000000000000E+00 
    6.2500000000066530E-02     5.0000000000184897E-01     0.0000000000000000E+00 
    6.2500000000090733E-02     5.6250000000147260E-01     0.0000000000000000E+00 
    6.2500000000114922E-02     6.2500000000107636E-01     0.0000000000000000E+00 
    6.2500000000139125E-02     6.8750000000068034E-01     0.0000000000000000E+00 
    6.2500000000163328E-02     7.5000000000028411E-01     0.0000000000000000E+00 
    6.2500000000187531E-02     8.1249999999988787E-01     0.0000000000000000E+00 
    6.2500000000211720E-02     8.7499999999951172E-01     0.0000000000000000E+00 
    6.2500000000235922E-02     9.3749999999974565E-01     0.0000000000000000E+00 
    1.2499999999981980E-01     6.2500000000211733E-02     0.0000000000000000E+00 
    1.2499999999986650E-01     1.2500000000042691E-01     0.0000000000000000E+00 
    1.2499999999991319E-01     1.8750000000063199E-01     0.0000000000000000E+00 
    1.2499999999995989E-01     2.5000000000083678E-01     0.0000000000000000E+00 
    1.2500000000000661E-01     3.1250000000104172E-01     0.0000000000000000E+00 
    1.2500000000005329E-01     3.7500000000124661E-01     0.0000000000000000E+00 
    1.2500000000010000E-01     4.3750000000145117E-01     0.0000000000000000E+00 
    1.2500000000014669E-01     5.0000000000163858E-01     0.0000000000000000E+00 
    1.2500000000019340E-01     5.6250000000129741E-01     0.0000000000000000E+00 
    1.2500000000024011E-01     6.2500000000093847E-01     0.0000000000000000E+00 
    1.2500000000028680E-01     6.8750000000057998E-01     0.0000000000000000E+00 
    1.2500000000033351E-01     7.5000000000022127E-01     0.0000000000000000E+00 
    1.2500000000038020E-01     8.1249999999986211E-01     0.0000000000000000E+00 
    1.2500000000042691E-01     8.7499999999952238E-01     0.0000000000000000E+00 
    1.2500000000047359E-01     9.3749999999975164E-01     0.0000000000000000E+00 
    1.8749999999966760E-01     6.2500000000187531E-02     0.0000000000000000E+00 
    1.8749999999974179E-01     1.2500000000038020E-01     0.0000000000000000E+00 
    1.8749999999981601E-01     1.8750000000055780E-01     0.0000000000000000E+00 
    1.8749999999989009E-01     2.5000000000073502E-01     0.0000000000000000E+00 
    1.8749999999996431E-01     3.1250000000091221E-01     0.0000000000000000E+00 
    1.8750000000003850E-01     3.7500000000108941E-01     0.0000000000000000E+00 
    1.8750000000011269E-01     4.3750000000126649E-01     0.0000000000000000E+00 
    1.8750000000018691E-01     5.0000000000142808E-01     0.0000000000000000E+00 
    1.8750000000026110E-01     5.6250000000112244E-01     0.0000000000000000E+00 
    1.8750000000033529E-01     6.2500000000080080E-01     0.0000000000000000E+00 
    1.8750000000040951E-01     6.8750000000047962E-01     0.0000000000000000E+00 
    1.8750000000048361E-01     7.5000000000015843E-01     0.0000000000000000E+00 
    1.8750000000055780E-01     8.1249999999983680E-01     0.0000000000000000E+00 
    1.8750000000063199E-01     8.7499999999953304E-01     0.0000000000000000E+00 
    1.8750000000070621E-01     9.3749999999975764E-01     0.0000000000000000E+00 
    2.4999999999951281E-01     6.2500000000163314E-02     0.0000000000000000E+00 
    2.4999999999961461E-01     1.2500000000033351E-01     0.0000000000000000E+00 
    2.4999999999971650E-01     1.8750000000048361E-01     0.0000000000000000E+00 
    2.4999999999981831E-01     2.5000000000063310E-01     0.0000000000000000E+00 
    2.4999999999992020E-01     3.1250000000078260E-01     0.0000000000000000E+00 
    2.5000000000002198E-01     3.7500000000093209E-01     0.0000000000000000E+00 
    2.5000000000012390E-01     4.3750000000108180E-01     0.0000000000000000E+00 
    2.5000000000022571E-01     5.0000000000121769E-01     0.0000000000000000E+00 
    2.5000000000032763E-01     5.6250000000094724E-01     0.0000000000000000E+00 
    2.5000000000042938E-01     6.2500000000066314E-01     0.0000000000000000E+00 
    2.5000000000053119E-01     6.8750000000037925E-01     0.0000000000000000E+00 
[...]
CELL_DATA 256 
SCALARS Pressure double 1 
LOOKUP_TABLE default 

    1.8778671550692245E+00 
    1.7721059664585148E+00 
    1.7032719119189432E+00 
    1.6517103032269413E+00 
    1.6093905949060472E+00 
    1.5727525589497628E+00 
    1.5400967892219695E+00 
    1.5105974792874857E+00 
    1.4838922204276439E+00 
    1.4598889041884049E+00 
    1.4386591175834906E+00 
    1.4203636330156966E+00 
    1.4051796051267673E+00 
    1.3932180874124984E+00 
    1.3844102080518013E+00 
    1.3792578911361379E+00 
    1.7721059664590759E+00 
    1.7280766232917597E+00 
    1.6810977615107177E+00 
    1.6384088347236958E+00 
    1.6001974363229479E+00 
    1.5656606299113744E+00 
    1.5341390112380411E+00 
    1.5052499313051086E+00 
    1.4788443582246678E+00 
    1.4549451565222873E+00 
    1.4336944743236992E+00 
    1.4153038140784404E+00 
    1.3999919487367249E+00 
    1.3879023619313187E+00 
    1.3789881685865886E+00 
    1.3737711734117455E+00 
    1.7032719119197322E+00 
    1.6810977615110969E+00 
    1.6498985885671369E+00 
    1.6165837905567246E+00 
    1.5837963231167840E+00 
    1.5524145538801746E+00 
    1.5227183452929549E+00 
    1.4948385019523247E+00 
    1.4689175990415384E+00 
    1.4451554529760566E+00 
    1.4238133896324170E+00 
    1.4051941366749392E+00 
    1.3895950778315440E+00 
    1.3772240017265402E+00 
    1.3680818674391255E+00 
    1.3627292179266197E+00 
    1.6517103032278901E+00 
    1.6384088347243320E+00 
    1.6165837905570237E+00 
    1.5904645063610849E+00 
    1.5626163744692467E+00 
    1.5344378016765721E+00 
    1.5067067866128048E+00 
    1.4799201034755016E+00 
    1.4544740399485812E+00 
    1.4307488482915449E+00 
    1.4091444942452125E+00 
    1.3900813046257365E+00 
    1.3739639128817436E+00 
    1.3610974353085905E+00 
    1.3515662307327545E+00 
    1.3459874843957265E+00 
    1.6093905949071234E+00 
    1.6001974363237648E+00 
    1.5837963231173080E+00 
    1.5626163744694910E+00 
    1.5385998149484015E+00 
    1.5131050122373890E+00 
    1.4870661865004022E+00 
    1.4611699318491553E+00 
    1.4359848799334973E+00 
    1.4120413376010155E+00 
    1.3898752578443487E+00 
    1.3700388307728419E+00 
    1.3530683742840972E+00 
    1.3394036535166653E+00 
    1.3292518944838276E+00 
    1.3233070557185209E+00 
    1.5727525589509483E+00 
    1.5656606299123297E+00 
    1.5524145538808711E+00 
    1.5344378016770130E+00 
    1.5131050122375966E+00 
    1.4895564506486147E+00 
    1.4647005301241875E+00 
    1.4392843019008945E+00 
    1.4139706509661689E+00 
    1.3893988427027688E+00 
    1.3662267973655091E+00 
    1.3451452200665517E+00 
    1.3268499750411915E+00 
    1.3119578520790869E+00 
    1.3008420711168593E+00 
    1.2943100012723843E+00 
    1.5400967892232498E+00 
    1.5341390112391069E+00 
    1.5227183452937869E+00 
    1.5067067866134054E+00 
    1.4870661865007864E+00 
    1.4647005301243721E+00 
    1.4404158027612604E+00 
    1.4149404713862441E+00 
    1.3889704705691646E+00 
    1.3632139635324445E+00 
    1.3384324341937754E+00 
    1.3154594543806029E+00 
    1.2951818915425728E+00 
    1.2784454106202918E+00 
    1.2658589043152908E+00 
    1.2584132191966477E+00 
    1.5105974792888348E+00 
    1.5052499313062546E+00 
    1.4948385019532586E+00 
    1.4799201034762284E+00 
    1.4611699318496880E+00 
    1.4392843019012451E+00 
    1.4149404713864191E+00 
    1.3888019468993396E+00 
    1.3615500775912448E+00 
    1.3339232336645586E+00 
    1.3067628157666513E+00 
    1.2810462985146327E+00 
    1.2578835818727487E+00 
    1.2384211029727381E+00 
    1.2236154250599771E+00 
    1.2147580477678814E+00 
    1.4838922204288123E+00 
    1.4788443582256761E+00 
    1.4689175990423884E+00 
    1.4544740399492824E+00 
    1.4359848799340609E+00 
    1.4139706509666037E+00 
    1.3889704705694721E+00 
    1.3615500775914162E+00 
    1.3323332109261854E+00 
    1.3020447195767020E+00 
    1.2715699062185348E+00 
    1.2420178853291350E+00 
    1.2147505084462602E+00 
    1.1913125536489246E+00 
    1.1731736955313397E+00 
    1.1621215178044721E+00 
    1.4598889041892453E+00 
    1.4549451565230243E+00 
    1.4451554529767032E+00 
    1.4307488482921158E+00 
    1.4120413376015255E+00 
    1.3893988427032276E+00 
    1.3632139635328555E+00 
    1.3339232336649125E+00 
    1.3020447195769287E+00 
    1.2682302431518950E+00 
    1.2333468948599533E+00 
    1.1985900487479992E+00 
    1.1655813445545145E+00 
    1.1363742438573083E+00 
    1.1131987760585773E+00 
    1.0986932804826679E+00 
    1.4386591175840424E+00 
    1.4336944743241962E+00 
    1.4238133896328800E+00 
    1.4091444942456661E+00 
    1.3898752578448135E+00 
    1.3662267973660025E+00 
    1.3384324341943079E+00 
    1.3067628157672218E+00 
    1.2715699062190411E+00 
    1.2333468948602457E+00 
    1.1928340352913007E+00 
    1.1512006649159927E+00 
    1.1102618532803759E+00 
    1.0726557319375143E+00 
    1.0417360652212664E+00 
    1.0216616868040806E+00 
    1.4203636330160065E+00 
    1.4153038140787360E+00 
    1.4051941366752490E+00 
    1.3900813046260967E+00 
    1.3700388307732823E+00 
    1.3451452200671008E+00 
    1.3154594543812848E+00 
    1.2810462985154631E+00 
    1.2420178853299846E+00 
    1.1985900487486607E+00 
    1.1512006649163757E+00 
    1.1007612119594379E+00 
    1.0490370822948851E+00 
    9.9915673139352223E-01 
    9.5599982677417250E-01 
    9.2648321029106318E-01 
    1.4051796051268866E+00 
    1.3999919487368624E+00 
    1.3895950778317376E+00 
    1.3739639128820407E+00 
    1.3530683742845409E+00 
    1.3268499750418232E+00 
    1.2951818915434379E+00 
    1.2578835818738860E+00 
    1.2147505084475174E+00 
    1.1655813445556229E+00 
    1.1102618532812367E+00 
    1.0490370822953847E+00 
    9.8303601930453299E-01 
    9.1525970093409958E-01 
    8.5211568055340248E-01 
    8.0533267319389268E-01 
    1.3932180874124822E+00 
    1.3879023619313462E+00 
    1.3772240017266586E+00 
    1.3610974353088601E+00 
    1.3394036535171427E+00 
    1.3119578520798312E+00 
    1.2784454106213710E+00 
    1.2384211029742223E+00 
    1.1913125536506435E+00 
    1.1363742438589262E+00 
    1.0726557319389307E+00 
    9.9915673139462335E-01 
    9.1525970093473485E-01 
    8.2198189640889896E-01 
    7.2521540844065613E-01 
    6.4320993857565034E-01 
    1.3844102080517657E+00 
    1.3789881685866088E+00 
    1.3680818674392583E+00 
    1.3515662307330727E+00 
    1.3292518944844025E+00 
    1.3008420711177677E+00 
    1.2658589043166242E+00 
    1.2236154250618374E+00 
    1.1731736955335379E+00 
    1.1131987760607009E+00 
    1.0417360652232048E+00 
    9.5599982677579753E-01 
    8.5211568055453191E-01 
    7.2521540844104493E-01 
    5.7200335212858067E-01 
    4.0664388699591109E-01 
    1.3792578911361180E+00 
    1.3737711734117883E+00 
    1.3627292179267925E+00 
    1.3459874843961139E+00 
    1.3233070557192079E+00 
    1.2943100012734665E+00 
    1.2584132191982391E+00 
    1.2147580477701132E+00 
    1.1621215178071316E+00 
    1.0986932804852707E+00 
    1.0216616868065009E+00 
    9.2648321029314717E-01 
    8.0533267319539270E-01 
    6.4320993857611242E-01 
    4.0664388699536297E-01 
    0.0000000000000000E+00 

SCALARS Saturarion double 1 
LOOKUP_TABLE default 

    1.0000000000000000E+00 
    9.6065794025708695E-01 
    9.2520879486152519E-01 
    8.8693746513214600E-01 
    8.4766801567959704E-01 
    8.0886624913636140E-01 
    7.7086760212054228E-01 
    7.3373109954943971E-01 
    6.9701384509374154E-01 
    6.6029387448467591E-01 
    6.2245188087809478E-01 
    5.8185983958810106E-01 
    5.3457683162635672E-01 
    4.7224508605045340E-01 
    3.6664662281933530E-01 
    1.4104453562809741E-01 
    9.6065794025727036E-01 
    9.3364586992775100E-01 
    9.0172790304993666E-01 
    8.6712439455135693E-01 
    8.3125110120665979E-01 
    7.9541332313432545E-01 
    7.5994150831174123E-01 
    7.2499274904903155E-01 
    6.9016685111261922E-01 
    6.5505572192457884E-01 
    6.1859602442196149E-01 
    5.7920975679411946E-01 
    5.3298594042962988E-01 
    4.7140450542269174E-01 
    3.6621719726414181E-01 
    1.4034623251558334E-01 
    9.2520879486205609E-01 
    9.0172790305019046E-01 
    8.7338021539455479E-01 
    8.4259995017354838E-01 
    8.1050630340897412E-01 
    7.7811169898828247E-01 
    7.4574257448948855E-01 
    7.1359593056547954E-01 
    6.8131047474297057E-01 
    6.4836731259672631E-01 
    6.1380059530344722E-01 
    5.7605819834604932E-01 
    5.3134592405599701E-01 
    4.7077815859403765E-01 
    3.6633562169497891E-01 
    1.4076903845618041E-01 
    8.8693746513294114E-01 
    8.6712439455188628E-01 
    8.4259995017381151E-01 
    8.1568643994980428E-01 
    7.8747444967998015E-01 
    7.5877950687701035E-01 
    7.2987365184264019E-01 
    7.0082170214375616E-01 
    6.7136103435461247E-01 
    6.4093119667886178E-01 
    6.0863827442707819E-01 
    5.7277497802084409E-01 
    5.2993172197389782E-01 
    4.7043665690777159E-01 
    3.6718812674308426E-01 
    1.4268989964280093E-01 
    8.4766801568060290E-01 
    8.3125110120741375E-01 
    8.1050630340946472E-01 
    7.8747444968020508E-01 
    7.6313662521096803E-01 
    7.3814824162995096E-01 
    7.1274410135261568E-01 
    6.8704210877952088E-01 
    6.6067938192351816E-01 
    6.3320458110460076E-01 
    6.0355879658462419E-01 
    5.7019070177458764E-01 
    5.2919232350812551E-01 
    4.7215803454363753E-01 
    3.7075312108965747E-01 
    1.5012549047676108E-01 
    8.0886624913758276E-01 
    7.9541332313530022E-01 
    7.7811169898898414E-01 
    7.5877950687743079E-01 
    7.3814824163016768E-01 
    7.1686879354310717E-01 
    6.9498767800075667E-01 
    6.7267421659675686E-01 
    6.4948660941941616E-01 
    6.2506786859489638E-01 
    5.9829231072835842E-01 
    5.6758382224570625E-01 
    5.2903556772007820E-01 
    4.7431363167020901E-01 
    3.7553330179958844E-01 
    1.6010158782507411E-01 
    7.7086760212197980E-01 
    7.5994150831286966E-01 
    7.4574257449035808E-01 
    7.2987365184324127E-01 
    7.1274410135299038E-01 
    6.9498767800092598E-01 
    6.7658448831088824E-01 
    6.5770252422304865E-01 
    6.3785356827603346E-01 
    6.1660943097438570E-01 
    5.9290403927192514E-01 
    5.6512708662111744E-01 
    5.2951512770265152E-01 
    4.7747617748393029E-01 
    3.8205685168769088E-01 
    1.7325956636671486E-01 
    7.3373109955106430E-01 
    7.2499274905039224E-01 
    7.1359593056653248E-01 
    7.0082170214453532E-01 
    6.8704210878004623E-01 
    6.7267421659707582E-01 
    6.5770252422317488E-01 
    6.4220433783035868E-01 
    6.2576610843703906E-01 
    6.0786338890487668E-01 
    5.8746553559180970E-01 
    5.6286672405881233E-01 
    5.3064910282108357E-01 
    4.8173963935228725E-01 
    3.9061955897896194E-01 
    1.9007082115927296E-01 
    6.9701384509502240E-01 
    6.9016685111372134E-01 
    6.8131047474384454E-01 
    6.7136103435525440E-01 
    6.6067938192396247E-01 
    6.4948660941970981E-01 
    6.3785356827617667E-01 
    6.2576610843709712E-01 
    6.1286620354263222E-01 
    5.9853690855199515E-01 
    5.8177351997141458E-01 
    5.6091283327906483E-01 
    5.3241427816415832E-01 
    4.8808158515259537E-01 
    4.0257788299353026E-01 
    2.1228717927251614E-01 
    6.6029387448567944E-01 
    6.5505572192542671E-01 
    6.4836731259741542E-01 
    6.4093119667938969E-01 
    6.3320458110498445E-01 
    6.2506786859517360E-01 
    6.1660943097453402E-01 
    6.0786338890493929E-01 
    5.9853690855200148E-01 
    5.8796417663019518E-01 
    5.7513559755348875E-01 
    5.5842552149341429E-01 
    5.3441456447304725E-01 
    4.9524531360011065E-01 
    4.1688632839657258E-01 
    2.3822712861419790E-01 
    6.2245188087884629E-01 
    6.1859602442258887E-01 
    6.1380059530396369E-01 
    6.0863827442746710E-01 
    6.0355879658489375E-01 
    5.9829231072854105E-01 
    5.9290403927202329E-01 
    5.8746553559184744E-01 
    5.8177351997139792E-01 
    5.7513559755345867E-01 
    5.6659460219478630E-01 
    5.5458464012097630E-01 
    5.3587264111141686E-01 
    5.0297555785930947E-01 
    4.3359714586818254E-01 
    2.6810598297373056E-01 
    5.8185983958858323E-01 
    5.7920975679453301E-01 
    5.7605819834636840E-01 
    5.7277497802108179E-01 
    5.7019070177473474E-01 
    5.6758382224576931E-01 
    5.6512708662111877E-01 
    5.6286672405876426E-01 
    5.6091283327897001E-01 
    5.5842552149331004E-01 
    5.5458464012090203E-01 
    5.4792054207535934E-01 
    5.3541399100750309E-01 
    5.1017513755092558E-01 
    4.5191838435083592E-01 
    3.0154942746192548E-01 
    5.3457683162652669E-01 
    5.3298594042975012E-01 
    5.3134592405607273E-01 
    5.2993172197392235E-01 
    5.2919232350808787E-01 
    5.2903556771997406E-01 
    5.2951512770248921E-01 
    5.3064910282088051E-01 
    5.3241427816391840E-01 
    5.3441456447280378E-01 
    5.3587264111121302E-01 
    5.3541399100738596E-01 
    5.3035287461462211E-01 
    5.1460386386223933E-01 
    4.7039513009391692E-01 
    3.3943062598591206E-01 
    4.7224508605018101E-01 
    4.7140450542241658E-01 
    4.7077815859375366E-01 
    4.7043665690746911E-01 
    4.7215803454330668E-01 
    4.7431363166983553E-01 
    4.7747617748351090E-01 
    4.8173963935181707E-01 
    4.8808158515211891E-01 
    4.9524531359965218E-01 
    5.0297555785892689E-01 
    5.1017513755065536E-01 
    5.1460386386210655E-01 
    5.1092433952355498E-01 
    4.8433692737578543E-01 
    3.7956150913186604E-01 
    3.6664662281918037E-01 
    3.6621719726398316E-01 
    3.6633562169481398E-01 
    3.6718812674289641E-01 
    3.7075312108942454E-01 
    3.7553330179928357E-01 
    3.8205685168728581E-01 
    3.9061955897842410E-01 
    4.0257788299294989E-01 
    4.1688632839599477E-01 
    4.3359714586765957E-01 
    4.5191838435040860E-01 
    4.7039513009364142E-01 
    4.8433692737567008E-01 
    4.8187443465246527E-01 
    4.1555945114126763E-01 
    1.4104453562807082E-01 
    1.4034623251554704E-01 
    1.4076903845613858E-01 
    1.4268989964271681E-01 
    1.5012549047659274E-01 
    1.6010158782474143E-01 
    1.7325956636616457E-01 
    1.9007082115845780E-01 
    2.1228717927170032E-01 
    2.3822712861344073E-01 
    2.6810598297309629E-01 
    3.0154942746146374E-01 
    3.3943062598568247E-01 
    3.7956150913189474E-01 
    4.1555945114127774E-01 
    4.1471610088937649E-01 
