# vtk DataFile Version 2.0
Pressure Field Data 
ASCII 
DATASET UNSTRUCTURED_GRID 

POINTS 289 double 

    0.0000000000000000E+00     0.0000000000000000E+00     0.0000000000000000E+00 
    1.0000000000000000E+00     0.0000000000000000E+00     0.0000000000000000E+00 
    1.0000000000000000E+00     1.0000000000000000E+00     0.0000000000000000E+00 
    0.0000000000000000E+00     1.0000000000000000E+00     0.0000000000000000E+00 
    6.2499999999872928E-02     0.0000000000000000E+00     0.0000000000000000E+00 
    1.2499999999977310E-01     0.0000000000000000E+00     0.0000000000000000E+00 
    1.8749999999959341E-01     0.0000000000000000E+00     0.0000000000000000E+00 
    2.4999999999941089E-01     0.0000000000000000E+00     0.0000000000000000E+00 
    3.1249999999922851E-01     0.0000000000000000E+00     0.0000000000000000E+00 
    3.7499999999904610E-01     0.0000000000000000E+00     0.0000000000000000E+00 
    4.3749999999886358E-01     0.0000000000000000E+00     0.0000000000000000E+00 
    4.9999999999869210E-01     0.0000000000000000E+00     0.0000000000000000E+00 
    5.6249999999884603E-01     0.0000000000000000E+00     0.0000000000000000E+00 
    6.2499999999901090E-01     0.0000000000000000E+00     0.0000000000000000E+00 
    6.8749999999917577E-01     0.0000000000000000E+00     0.0000000000000000E+00 
    7.4999999999934064E-01     0.0000000000000000E+00     0.0000000000000000E+00 
    8.1249999999950551E-01     0.0000000000000000E+00     0.0000000000000000E+00 
    8.7499999999967026E-01     0.0000000000000000E+00     0.0000000000000000E+00 
    9.3749999999983513E-01     0.0000000000000000E+00     0.0000000000000000E+00 
    1.0000000000000000E+00     6.2499999999872928E-02     0.0000000000000000E+00 
    1.0000000000000000E+00     1.2499999999977310E-01     0.0000000000000000E+00 
    1.0000000000000000E+00     1.8749999999959341E-01     0.0000000000000000E+00 
    1.0000000000000000E+00     2.4999999999941089E-01     0.0000000000000000E+00 
    1.0000000000000000E+00     3.1249999999922851E-01     0.0000000000000000E+00 
    1.0000000000000000E+00     3.7499999999904610E-01     0.0000000000000000E+00 
    1.0000000000000000E+00     4.3749999999886358E-01     0.0000000000000000E+00 
    1.0000000000000000E+00     4.9999999999869210E-01     0.0000000000000000E+00 
    1.0000000000000000E+00     5.6249999999884603E-01     0.0000000000000000E+00 
    1.0000000000000000E+00     6.2499999999901090E-01     0.0000000000000000E+00 
    1.0000000000000000E+00     6.8749999999917577E-01     0.0000000000000000E+00 
    1.0000000000000000E+00     7.4999999999934064E-01     0.0000000000000000E+00 
    1.0000000000000000E+00     8.1249999999950551E-01     0.0000000000000000E+00 
    1.0000000000000000E+00     8.7499999999967026E-01     0.0000000000000000E+00 
    1.0000000000000000E+00     9.3749999999983513E-01     0.0000000000000000E+00 
    9.3749999999973976E-01     1.0000000000000000E+00     0.0000000000000000E+00 
    8.7499999999950118E-01     1.0000000000000000E+00     0.0000000000000000E+00 
    8.1249999999991318E-01     1.0000000000000000E+00     0.0000000000000000E+00 
    7.5000000000034706E-01     1.0000000000000000E+00     0.0000000000000000E+00 
    6.8750000000078049E-01     1.0000000000000000E+00     0.0000000000000000E+00 
    6.2500000000121403E-01     1.0000000000000000E+00     0.0000000000000000E+00 
    5.6250000000164757E-01     1.0000000000000000E+00     0.0000000000000000E+00 
    5.0000000000205946E-01     1.0000000000000000E+00     0.0000000000000000E+00 
    4.3750000000182099E-01     1.0000000000000000E+00     0.0000000000000000E+00 
    3.7500000000156092E-01     1.0000000000000000E+00     0.0000000000000000E+00 
    3.1250000000130068E-01     1.0000000000000000E+00     0.0000000000000000E+00 
    2.5000000000104050E-01     1.0000000000000000E+00     0.0000000000000000E+00 
    1.8750000000078040E-01     1.0000000000000000E+00     0.0000000000000000E+00 
    1.2500000000052031E-01     1.0000000000000000E+00     0.0000000000000000E+00 
    6.2500000000260125E-02     1.0000000000000000E+00     0.0000000000000000E+00 
    0.0000000000000000E+00     9.3749999999973976E-01     0.0000000000000000E+00 
    0.0000000000000000E+00     8.7499999999950118E-01     0.0000000000000000E+00 
    0.0000000000000000E+00     8.1249999999991318E-01     0.0000000000000000E+00 
    0.0000000000000000E+00     7.5000000000034706E-01     0.0000000000000000E+00 
    0.0000000000000000E+00     6.8750000000078049E-01     0.0000000000000000E+00 
    0.0000000000000000E+00     6.2500000000121403E-01     0.0000000000000000E+00 
    0.0000000000000000E+00     5.6250000000164757E-01     0.0000000000000000E+00 
    0.0000000000000000E+00     5.0000000000205946E-01     0.0000000000000000E+00 
    0.0000000000000000E+00     4.3750000000182099E-01     0.0000000000000000E+00 
    0.0000000000000000E+00     3.7500000000156092E-01     0.0000000000000000E+00 
    0.0000000000000000E+00     3.1250000000130068E-01     0.0000000000000000E+00 
    0.0000000000000000E+00     2.5000000000104050E-01     0.0000000000000000E+00 
    0.0000000000000000E+00     1.8750000000078040E-01     0.0000000000000000E+00 
    0.0000000000000000E+00     1.2500000000052031E-01     0.0000000000000000E+00 
    0.0000000000000000E+00     6.2500000000260125E-02     0.0000000000000000E+00 
    6.2499999999897131E-02     6.2500000000235922E-02     0.0000000000000000E+00 
    6.2499999999921327E-02     1.2500000000047351E-01     0.0000000000000000E+00 
    6.2499999999945530E-02     1.8750000000070621E-01     0.0000000000000000E+00 
    6.2499999999969733E-02     2.5000000000093858E-01     0.0000000000000000E+00 
    6.2499999999993928E-02     3.1250000000117117E-01     0.0000000000000000E+00 
    6.2500000000018124E-02     3.7500000000140382E-01     0.0000000000000000E+00 
    6.2500000000042327E-02     4.3750000000163619E-01     0.0000000000000000E+00 
    6.2500000000066530E-02     5.0000000000184897E-01     0.0000000000000000E+00 
    6.2500000000090733E-02     5.6250000000147260E-01     0.0000000000000000E+00 
    6.2500000000114922E-02     6.2500000000107636E-01     0.0000000000000000E+00 
    6.2500000000139125E-02     6.8750000000068034E-01     0.0000000000000000E+00 
    6.2500000000163328E-02     7.5000000000028411E-01     0.0000000000000000E+00 
    6.2500000000187531E-02     8.1249999999988787E-01     0.0000000000000000E+00 
    6.2500000000211720E-02     8.7499999999951172E-01     0.0000000000000000E+00 
    6.2500000000235922E-02     9.3749999999974565E-01     0.0000000000000000E+00 
    1.2499999999981980E-01     6.2500000000211733E-02     0.0000000000000000E+00 
    1.2499999999986650E-01     1.2500000000042691E-01     0.0000000000000000E+00 
    1.2499999999991319E-01     1.8750000000063199E-01     0.0000000000000000E+00 
    1.2499999999995989E-01     2.5000000000083678E-01     0.0000000000000000E+00 
    1.2500000000000661E-01     3.1250000000104172E-01     0.0000000000000000E+00 
    1.2500000000005329E-01     3.7500000000124661E-01     0.0000000000000000E+00 
    1.2500000000010000E-01     4.3750000000145117E-01     0.0000000000000000E+00 
    1.2500000000014669E-01     5.0000000000163858E-01     0.0000000000000000E+00 
    1.2500000000019340E-01     5.6250000000129741E-01     0.0000000000000000E+00 
    1.2500000000024011E-01     6.2500000000093847E-01     0.0000000000000000E+00 
    1.2500000000028680E-01     6.8750000000057998E-01     0.0000000000000000E+00 
    1.2500000000033351E-01     7.5000000000022127E-01     0.0000000000000000E+00 
    1.2500000000038020E-01     8.1249999999986211E-01     0.0000000000000000E+00 
    1.2500000000042691E-01     8.7499999999952238E-01     0.0000000000000000E+00 
    1.2500000000047359E-01     9.3749999999975164E-01     0.0000000000000000E+00 
    1.8749999999966760E-01     6.2500000000187531E-02     0.0000000000000000E+00 
    1.8749999999974179E-01     1.2500000000038020E-01     0.0000000000000000E+00 
    1.8749999999981601E-01     1.8750000000055780E-01     0.0000000000000000E+00 
    1.8749999999989009E-01     2.5000000000073502E-01     0.0000000000000000E+00 
    1.8749999999996431E-01     3.1250000000091221E-01     0.0000000000000000E+00 
    1.8750000000003850E-01     3.7500000000108941E-01     0.0000000000000000E+00 
    1.8750000000011269E-01     4.3750000000126649E-01     0.0000000000000000E+00 
    1.8750000000018691E-01     5.0000000000142808E-01     0.0000000000000000E+00 
    1.8750000000026110E-01     5.6250000000112244E-01     0.0000000000000000E+00 
    1.8750000000033529E-01     6.2500000000080080E-01     0.0000000000000000E+00 
    1.8750000000040951E-01     6.8750000000047962E-01     0.0000000000000000E+00 
    1.8750000000048361E-01     7.5000000000015843E-01     0.0000000000000000E+00 
    1.8750000000055780E-01     8.1249999999983680E-01     0.0000000000000000E+00 
    1.8750000000063199E-01     8.7499999999953304E-01     0.0000000000000000E+00 
    1.8750000000070621E-01     9.3749999999975764E-01     0.0000000000000000E+00 
    2.4999999999951281E-01     6.2500000000163314E-02     0.0000000000000000E+00 
    2.4999999999961461E-01     1.2500000000033351E-01     0.0000000000000000E+00 
    2.4999999999971650E-01     1.8750000000048361E-01     0.0000000000000000E+00 
    2.4999999999981831E-01     2.5000000000063310E-01     0.0000000000000000E+00 
    2.4999999999992020E-01     3.1250000000078260E-01     0.0000000000000000E+00 
    2.5000000000002198E-01     3.7500000000093209E-01     0.0000000000000000E+00 
    2.5000000000012390E-01     4.3750000000108180E-01     0.0000000000000000E+00 
    2.5000000000022571E-01     5.0000000000121769E-01     0.0000000000000000E+00 
    2.5000000000032763E-01     5.6250000000094724E-01     0.0000000000000000E+00 
    2.5000000000042938E-01     6.2500000000066314E-01     0.0000000000000000E+00 
    2.5000000000053119E-01     6.8750000000037925E-01     0.0000000000000000E+00 
[...]
CELL_DATA 256 
SCALARS Pressure double 1 
LOOKUP_TABLE default 

   -1.6024030551732791E+11 
   -1.6024030551732794E+11 
   -1.6024030551732791E+11 
   -1.6024030551732822E+11 
   -1.6024030551732886E+11 
   -1.6024030551733054E+11 
   -1.6024030551733212E+11 
   -1.6024030551733319E+11 
   -1.6024030551733426E+11 
   -1.6024030551733505E+11 
   -1.6024030551733554E+11 
   -1.6024030551733548E+11 
   -1.6024030551733563E+11 
   -1.6024030551733594E+11 
   -1.6024030551733578E+11 
   -1.6024030551733545E+11 
   -1.6024030551732785E+11 
   -1.6024030551732782E+11 
   -1.6024030551732791E+11 
   -1.6024030551732797E+11 
   -1.6024030551732825E+11 
   -1.6024030551733035E+11 
   -1.6024030551733176E+11 
   -1.6024030551733319E+11 
   -1.6024030551733429E+11 
   -1.6024030551733527E+11 
   -1.6024030551733563E+11 
   -1.6024030551733578E+11 
   -1.6024030551733612E+11 
   -1.6024030551733652E+11 
   -1.6024030551733606E+11 
   -1.6024030551733600E+11 
   -1.6024030551732773E+11 
   -1.6024030551732788E+11 
   -1.6024030551732794E+11 
   -1.6024030551732770E+11 
   -1.6024030551732761E+11 
   -1.6024030551732962E+11 
   -1.6024030551733163E+11 
   -1.6024030551733331E+11 
   -1.6024030551733429E+11 
   -1.6024030551733536E+11 
   -1.6024030551733578E+11 
   -1.6024030551733615E+11 
   -1.6024030551733649E+11 
   -1.6024030551733676E+11 
   -1.6024030551733658E+11 
   -1.6024030551733722E+11 
   -1.6024030551732782E+11 
   -1.6024030551732806E+11 
   -1.6024030551732791E+11 
   -1.6024030551732733E+11 
   -1.6024030551732828E+11 
   -1.6024030551733023E+11 
   -1.6024030551733218E+11 
   -1.6024030551733340E+11 
   -1.6024030551733435E+11 
   -1.6024030551733545E+11 
   -1.6024030551733585E+11 
   -1.6024030551733627E+11 
   -1.6024030551733676E+11 
   -1.6024030551733725E+11 
   -1.6024030551733755E+11 
   -1.6024030551733820E+11 
   -1.6024030551732806E+11 
   -1.6024030551732803E+11 
   -1.6024030551732858E+11 
   -1.6024030551732870E+11 
   -1.6024030551732950E+11 
   -1.6024030551733109E+11 
   -1.6024030551733243E+11 
   -1.6024030551733337E+11 
   -1.6024030551733450E+11 
   -1.6024030551733545E+11 
   -1.6024030551733603E+11 
   -1.6024030551733667E+11 
   -1.6024030551733716E+11 
   -1.6024030551733752E+11 
   -1.6024030551733807E+11 
   -1.6024030551733826E+11 
   -1.6024030551732944E+11 
   -1.6024030551732941E+11 
   -1.6024030551732993E+11 
   -1.6024030551733017E+11 
   -1.6024030551733069E+11 
   -1.6024030551733173E+11 
   -1.6024030551733273E+11 
   -1.6024030551733377E+11 
   -1.6024030551733475E+11 
   -1.6024030551733560E+11 
   -1.6024030551733646E+11 
   -1.6024030551733710E+11 
   -1.6024030551733759E+11 
   -1.6024030551733801E+11 
   -1.6024030551733862E+11 
   -1.6024030551733893E+11 
   -1.6024030551733105E+11 
   -1.6024030551733115E+11 
   -1.6024030551733130E+11 
   -1.6024030551733124E+11 
   -1.6024030551733167E+11 
   -1.6024030551733237E+11 
   -1.6024030551733334E+11 
   -1.6024030551733411E+11 
   -1.6024030551733478E+11 
   -1.6024030551733591E+11 
   -1.6024030551733679E+11 
   -1.6024030551733755E+11 
   -1.6024030551733823E+11 
   -1.6024030551733871E+11 
   -1.6024030551733942E+11 
   -1.6024030551733957E+11 
   -1.6024030551733231E+11 
   -1.6024030551733209E+11 
   -1.6024030551733206E+11 
   -1.6024030551733209E+11 
   -1.6024030551733243E+11 
   -1.6024030551733301E+11 
   -1.6024030551733380E+11 
   -1.6024030551733441E+11 
   -1.6024030551733530E+11 
   -1.6024030551733621E+11 
   -1.6024030551733710E+11 
   -1.6024030551733798E+11 
   -1.6024030551733847E+11 
   -1.6024030551733899E+11 
   -1.6024030551733975E+11 
   -1.6024030551734018E+11 
   -1.6024030551733264E+11 
   -1.6024030551733240E+11 
   -1.6024030551733267E+11 
   -1.6024030551733264E+11 
   -1.6024030551733298E+11 
   -1.6024030551733371E+11 
   -1.6024030551733466E+11 
   -1.6024030551733527E+11 
   -1.6024030551733591E+11 
   -1.6024030551733643E+11 
   -1.6024030551733746E+11 
   -1.6024030551733810E+11 
   -1.6024030551733856E+11 
   -1.6024030551733936E+11 
   -1.6024030551734052E+11 
   -1.6024030551734082E+11 
   -1.6024030551733295E+11 
   -1.6024030551733334E+11 
   -1.6024030551733344E+11 
   -1.6024030551733340E+11 
   -1.6024030551733389E+11 
   -1.6024030551733478E+11 
   -1.6024030551733542E+11 
   -1.6024030551733591E+11 
   -1.6024030551733615E+11 
   -1.6024030551733685E+11 
   -1.6024030551733777E+11 
   -1.6024030551733829E+11 
   -1.6024030551733890E+11 
   -1.6024030551733981E+11 
   -1.6024030551734088E+11 
   -1.6024030551734067E+11 
   -1.6024030551733450E+11 
   -1.6024030551733432E+11 
   -1.6024030551733405E+11 
   -1.6024030551733435E+11 
   -1.6024030551733499E+11 
   -1.6024030551733551E+11 
   -1.6024030551733594E+11 
   -1.6024030551733615E+11 
   -1.6024030551733646E+11 
   -1.6024030551733728E+11 
   -1.6024030551733804E+11 
   -1.6024030551733862E+11 
   -1.6024030551733899E+11 
   -1.6024030551733997E+11 
   -1.6024030551734079E+11 
   -1.6024030551734048E+11 
   -1.6024030551733508E+11 
   -1.6024030551733478E+11 
   -1.6024030551733484E+11 
   -1.6024030551733530E+11 
   -1.6024030551733563E+11 
   -1.6024030551733591E+11 
   -1.6024030551733603E+11 
   -1.6024030551733640E+11 
   -1.6024030551733698E+11 
   -1.6024030551733768E+11 
   -1.6024030551733826E+11 
   -1.6024030551733865E+11 
   -1.6024030551733908E+11 
   -1.6024030551734003E+11 
   -1.6024030551734055E+11 
   -1.6024030551734024E+11 
   -1.6024030551733566E+11 
   -1.6024030551733572E+11 
   -1.6024030551733594E+11 
   -1.6024030551733618E+11 
   -1.6024030551733649E+11 
   -1.6024030551733643E+11 
   -1.6024030551733658E+11 
   -1.6024030551733713E+11 
   -1.6024030551733743E+11 
   -1.6024030551733798E+11 
   -1.6024030551733862E+11 
   -1.6024030551733893E+11 
   -1.6024030551733926E+11 
   -1.6024030551734018E+11 
   -1.6024030551734048E+11 
   -1.6024030551733984E+11 
   -1.6024030551733719E+11 
   -1.6024030551733728E+11 
   -1.6024030551733725E+11 
   -1.6024030551733743E+11 
   -1.6024030551733749E+11 
   -1.6024030551733707E+11 
   -1.6024030551733734E+11 
   -1.6024030551733762E+11 
   -1.6024030551733795E+11 
   -1.6024030551733875E+11 
   -1.6024030551733923E+11 
   -1.6024030551733929E+11 
   -1.6024030551733978E+11 
   -1.6024030551734039E+11 
   -1.6024030551734018E+11 
   -1.6024030551733978E+11 
   -1.6024030551733908E+11 
   -1.6024030551733878E+11 
   -1.6024030551733847E+11 
   -1.6024030551733826E+11 
   -1.6024030551733765E+11 
   -1.6024030551733743E+11 
   -1.6024030551733768E+11 
   -1.6024030551733813E+11 
   -1.6024030551733893E+11 
   -1.6024030551733966E+11 
   -1.6024030551733972E+11 
   -1.6024030551733957E+11 
   -1.6024030551733994E+11 
   -1.6024030551734018E+11 
   -1.6024030551734000E+11 
   -1.6024030551733951E+11 
   -1.6024030551733963E+11 
   -1.6024030551733899E+11 
   -1.6024030551733841E+11 
   -1.6024030551733780E+11 
   -1.6024030551733749E+11 
   -1.6024030551733759E+11 
   -1.6024030551733798E+11 
   -1.6024030551733865E+11 
   -1.6024030551733948E+11 
   -1.6024030551733981E+11 
   -1.6024030551733954E+11 
   -1.6024030551733948E+11 
   -1.6024030551733975E+11 
   -1.6024030551733987E+11 
   -1.6024030551733942E+11 
   -1.6024030551733911E+11 

SCALARS Saturarion double 1 
LOOKUP_TABLE default 

    1.0000000000000000E+00 
    2.0127855213378943E+01 
    1.0034108804888804E+01 
   -1.9801218776229867E-01 
    1.1643183826443271E-01 
    1.2569285147698345E-01 
    6.0134575823466443E-02 
    2.0864847557596909E-03 
    3.6887011822429930E-07 
    3.2056908784062789E-16 
    3.7896546221639971E-33 
    4.7614024608494859E-68 
   3.4776012916632711E-140 
   1.1317291472265205E-283 
    0.0000000000000000E+00 
    0.0000000000000000E+00 
    1.9730767383555143E+01 
    4.8868471465461710E+01 
    2.4623547006769002E+01 
    1.1389985384405850E+00 
    3.0407560607800549E-01 
    1.4129060728331441E-01 
    1.8446736900499621E-02 
    8.7267985049637768E-05 
    3.9551570481224276E-10 
    6.4913727215818523E-23 
    9.0149811172802003E-49 
   3.9263657983651983E-100 
   3.3303552520846729E-203 
    0.0000000000000000E+00 
    0.0000000000000000E+00 
    0.0000000000000000E+00 
   -4.1221309575167187E-01 
    1.8993761790074821E+01 
    1.0576759705506880E+01 
    1.1342040606352519E+00 
    2.2779753098726510E-01 
    5.0205650530801546E-02 
    9.1902790750689135E-04 
    1.5134421085227952E-07 
    2.0246871052856263E-15 
    1.1220080841475196E-31 
    1.9413531406944443E-64 
   4.3051201226280395E-132 
   4.3413645825414409E-266 
    0.0000000000000000E+00 
    0.0000000000000000E+00 
    0.0000000000000000E+00 
    4.5780142777391708E+00 
    4.7581907569580895E-01 
    6.3753128480500965E-02 
    5.0529009889687115E-01 
    9.6396916684933109E-02 
    3.2172543439110209E-03 
    1.9365135193340664E-06 
    3.3953245077431292E-13 
    3.5821983293616007E-27 
    2.6290731798624288E-56 
   4.7989680949150654E-114 
   4.0432399356458848E-232 
    0.0000000000000000E+00 
    0.0000000000000000E+00 
    0.0000000000000000E+00 
    0.0000000000000000E+00 
    6.8138704568048269E-01 
    2.1117646682622754E-01 
    2.0406429023923309E-01 
    9.3914072291366224E-02 
    3.6865598037257351E-03 
    2.0384481747439883E-06 
    2.9582296558059523E-13 
    3.9395479647208973E-27 
    3.8340843760894501E-55 
   1.1806350823921522E-112 
   1.4688412203066072E-228 
    0.0000000000000000E+00 
    0.0000000000000000E+00 
    0.0000000000000000E+00 
    0.0000000000000000E+00 
    0.0000000000000000E+00 
    2.6552683165801955E-01 
    1.1955981908638405E-01 
    4.1940051676427503E-02 
    4.3616088919175254E-03 
    4.0884809401106215E-06 
    6.6229764918397630E-13 
    3.4246443377941951E-26 
    1.3520227621892684E-53 
   1.1793703708973857E-109 
   2.7139094366598200E-223 
    0.0000000000000000E+00 
    0.0000000000000000E+00 
    0.0000000000000000E+00 
    0.0000000000000000E+00 
    0.0000000000000000E+00 
    0.0000000000000000E+00 
    6.9750841058851196E-02 
    1.3027402365240269E-02 
    5.1899402330207246E-04 
    4.6737734687264400E-06 
    2.5311825860923264E-12 
    1.2242073220009445E-25 
    1.1463908518495686E-52 
   1.0745008498931012E-107 
   1.5140757639902703E-218 
    0.0000000000000000E+00 
    0.0000000000000000E+00 
    0.0000000000000000E+00 
    0.0000000000000000E+00 
    0.0000000000000000E+00 
    0.0000000000000000E+00 
    0.0000000000000000E+00 
    1.9293587366910594E-03 
    4.6680633734913709E-05 
    3.6897425344519232E-08 
    2.0997554635067064E-12 
    2.5193176707241274E-25 
    3.3725271386496576E-52 
   1.4017431260255888E-106 
   3.1848139179261461E-216 
    0.0000000000000000E+00 
    0.0000000000000000E+00 
    0.0000000000000000E+00 
    0.0000000000000000E+00 
    0.0000000000000000E+00 
    0.0000000000000000E+00 
    0.0000000000000000E+00 
    0.0000000000000000E+00 
    4.7622490079063707E-07 
    1.7325518471537298E-10 
    7.7827185766108691E-17 
    1.6438510420509005E-25 
    2.6217045716739328E-52 
   1.1715618732279114E-106 
   4.2805111971547138E-216 
    0.0000000000000000E+00 
    0.0000000000000000E+00 
    0.0000000000000000E+00 
    0.0000000000000000E+00 
    0.0000000000000000E+00 
    0.0000000000000000E+00 
    0.0000000000000000E+00 
    0.0000000000000000E+00 
    0.0000000000000000E+00 
    6.9561649595446747E-14 
    2.8573065745396344E-21 
    1.2873937568088874E-34 
    1.3488145133614987E-52 
   3.0481584793511436E-107 
   2.8430095312570258E-216 
    0.0000000000000000E+00 
    0.0000000000000000E+00 
    0.0000000000000000E+00 
    0.0000000000000000E+00 
    0.0000000000000000E+00 
    0.0000000000000000E+00 
    0.0000000000000000E+00 
    0.0000000000000000E+00 
    0.0000000000000000E+00 
    0.0000000000000000E+00 
    2.9011751279320652E-28 
    1.6060092167643430E-43 
    2.6316509623627423E-70 
   1.5040576249456623E-107 
   1.6279075327715019E-217 
    0.0000000000000000E+00 
    0.0000000000000000E+00 
    0.0000000000000000E+00 
    0.0000000000000000E+00 
    0.0000000000000000E+00 
    0.0000000000000000E+00 
    0.0000000000000000E+00 
    0.0000000000000000E+00 
    0.0000000000000000E+00 
    0.0000000000000000E+00 
    0.0000000000000000E+00 
    8.2092412233451097E-58 
    2.9771057823702240E-88 
   5.6920436074453764E-142 
   3.4142227276870526E-218 
    0.0000000000000000E+00 
    0.0000000000000000E+00 
    0.0000000000000000E+00 
    0.0000000000000000E+00 
    0.0000000000000000E+00 
    0.0000000000000000E+00 
    0.0000000000000000E+00 
    0.0000000000000000E+00 
    0.0000000000000000E+00 
    0.0000000000000000E+00 
    0.0000000000000000E+00 
    0.0000000000000000E+00 
   3.6642569108320848E-118 
   4.2833936643978703E-178 
   1.2376324144138769E-285 
    0.0000000000000000E+00 
    0.0000000000000000E+00 
    0.0000000000000000E+00 
    0.0000000000000000E+00 
    0.0000000000000000E+00 
    0.0000000000000000E+00 
    0.0000000000000000E+00 
    0.0000000000000000E+00 
    0.0000000000000000E+00 
    0.0000000000000000E+00 
    0.0000000000000000E+00 
    0.0000000000000000E+00 
    0.0000000000000000E+00 
   1.1147259556039021E-239 
    0.0000000000000000E+00 
    0.0000000000000000E+00 
    0.0000000000000000E+00 
    0.0000000000000000E+00 
    0.0000000000000000E+00 
    0.0000000000000000E+00 
    0.0000000000000000E+00 
    0.0000000000000000E+00 
    0.0000000000000000E+00 
    0.0000000000000000E+00 
    0.0000000000000000E+00 
    0.0000000000000000E+00 
    0.0000000000000000E+00 
    0.0000000000000000E+00 
    0.0000000000000000E+00 
    0.0000000000000000E+00 
    0.0000000000000000E+00 
    0.0000000000000000E+00 
    0.0000000000000000E+00 
    0.0000000000000000E+00 
    0.0000000000000000E+00 
    0.0000000000000000E+00 
    0.0000000000000000E+00 
    0.0000000000000000E+00 
    0.0000000000000000E+00 
    0.0000000000000000E+00 
    0.0000000000000000E+00 
    0.0000000000000000E+00 
    0.0000000000000000E+00 
    0.0000000000000000E+00 
    0.0000000000000000E+00 
    0.0000000000000000E+00 
    0.0000000000000000E+00 
    0.0000000000000000E+00 
    0.0000000000000000E+00 
    0.0000000000000000E+00 
    0.0000000000000000E+00 
    0.0000000000000000E+00 
    0.0000000000000000E+00 
    0.0000000000000000E+00 
    0.0000000000000000E+00 
    0.0000000000000000E+00 
    0.0000000000000000E+00 
    0.0000000000000000E+00 
    0.0000000000000000E+00 
    0.0000000000000000E+00 
    0.0000000000000000E+00 
