# vtk DataFile Version 2.0
Pressure Field Data 
ASCII 
DATASET UNSTRUCTURED_GRID 

POINTS 289 double 

    0.0000000000000000E+00     0.0000000000000000E+00     0.0000000000000000E+00 
    1.0000000000000000E+00     0.0000000000000000E+00     0.0000000000000000E+00 
    1.0000000000000000E+00     1.0000000000000000E+00     0.0000000000000000E+00 
    0.0000000000000000E+00     1.0000000000000000E+00     0.0000000000000000E+00 
    6.2499999999872928E-02     0.0000000000000000E+00     0.0000000000000000E+00 
    1.2499999999977310E-01     0.0000000000000000E+00     0.0000000000000000E+00 
    1.8749999999959341E-01     0.0000000000000000E+00     0.0000000000000000E+00 
    2.4999999999941089E-01     0.0000000000000000E+00     0.0000000000000000E+00 
    3.1249999999922851E-01     0.0000000000000000E+00     0.0000000000000000E+00 
    3.7499999999904610E-01     0.0000000000000000E+00     0.0000000000000000E+00 
    4.3749999999886358E-01     0.0000000000000000E+00     0.0000000000000000E+00 
    4.9999999999869210E-01     0.0000000000000000E+00     0.0000000000000000E+00 
    5.6249999999884603E-01     0.0000000000000000E+00     0.0000000000000000E+00 
    6.2499999999901090E-01     0.0000000000000000E+00     0.0000000000000000E+00 
    6.8749999999917577E-01     0.0000000000000000E+00     0.0000000000000000E+00 
    7.4999999999934064E-01     0.0000000000000000E+00     0.0000000000000000E+00 
    8.1249999999950551E-01     0.0000000000000000E+00     0.0000000000000000E+00 
    8.7499999999967026E-01     0.0000000000000000E+00     0.0000000000000000E+00 
    9.3749999999983513E-01     0.0000000000000000E+00     0.0000000000000000E+00 
    1.0000000000000000E+00     6.2499999999872928E-02     0.0000000000000000E+00 
    1.0000000000000000E+00     1.2499999999977310E-01     0.0000000000000000E+00 
    1.0000000000000000E+00     1.8749999999959341E-01     0.0000000000000000E+00 
    1.0000000000000000E+00     2.4999999999941089E-01     0.0000000000000000E+00 
    1.0000000000000000E+00     3.1249999999922851E-01     0.0000000000000000E+00 
    1.0000000000000000E+00     3.7499999999904610E-01     0.0000000000000000E+00 
    1.0000000000000000E+00     4.3749999999886358E-01     0.0000000000000000E+00 
    1.0000000000000000E+00     4.9999999999869210E-01     0.0000000000000000E+00 
    1.0000000000000000E+00     5.6249999999884603E-01     0.0000000000000000E+00 
    1.0000000000000000E+00     6.2499999999901090E-01     0.0000000000000000E+00 
    1.0000000000000000E+00     6.8749999999917577E-01     0.0000000000000000E+00 
    1.0000000000000000E+00     7.4999999999934064E-01     0.0000000000000000E+00 
    1.0000000000000000E+00     8.1249999999950551E-01     0.0000000000000000E+00 
    1.0000000000000000E+00     8.7499999999967026E-01     0.0000000000000000E+00 
    1.0000000000000000E+00     9.3749999999983513E-01     0.0000000000000000E+00 
    9.3749999999973976E-01     1.0000000000000000E+00     0.0000000000000000E+00 
    8.7499999999950118E-01     1.0000000000000000E+00     0.0000000000000000E+00 
    8.1249999999991318E-01     1.0000000000000000E+00     0.0000000000000000E+00 
    7.5000000000034706E-01     1.0000000000000000E+00     0.0000000000000000E+00 
    6.8750000000078049E-01     1.0000000000000000E+00     0.0000000000000000E+00 
    6.2500000000121403E-01     1.0000000000000000E+00     0.0000000000000000E+00 
    5.6250000000164757E-01     1.0000000000000000E+00     0.0000000000000000E+00 
    5.0000000000205946E-01     1.0000000000000000E+00     0.0000000000000000E+00 
    4.3750000000182099E-01     1.0000000000000000E+00     0.0000000000000000E+00 
    3.7500000000156092E-01     1.0000000000000000E+00     0.0000000000000000E+00 
    3.1250000000130068E-01     1.0000000000000000E+00     0.0000000000000000E+00 
    2.5000000000104050E-01     1.0000000000000000E+00     0.0000000000000000E+00 
    1.8750000000078040E-01     1.0000000000000000E+00     0.0000000000000000E+00 
    1.2500000000052031E-01     1.0000000000000000E+00     0.0000000000000000E+00 
    6.2500000000260125E-02     1.0000000000000000E+00     0.0000000000000000E+00 
    0.0000000000000000E+00     9.3749999999973976E-01     0.0000000000000000E+00 
    0.0000000000000000E+00     8.7499999999950118E-01     0.0000000000000000E+00 
    0.0000000000000000E+00     8.1249999999991318E-01     0.0000000000000000E+00 
    0.0000000000000000E+00     7.5000000000034706E-01     0.0000000000000000E+00 
    0.0000000000000000E+00     6.8750000000078049E-01     0.0000000000000000E+00 
    0.0000000000000000E+00     6.2500000000121403E-01     0.0000000000000000E+00 
    0.0000000000000000E+00     5.6250000000164757E-01     0.0000000000000000E+00 
    0.0000000000000000E+00     5.0000000000205946E-01     0.0000000000000000E+00 
    0.0000000000000000E+00     4.3750000000182099E-01     0.0000000000000000E+00 
    0.0000000000000000E+00     3.7500000000156092E-01     0.0000000000000000E+00 
    0.0000000000000000E+00     3.1250000000130068E-01     0.0000000000000000E+00 
    0.0000000000000000E+00     2.5000000000104050E-01     0.0000000000000000E+00 
    0.0000000000000000E+00     1.8750000000078040E-01     0.0000000000000000E+00 
    0.0000000000000000E+00     1.2500000000052031E-01     0.0000000000000000E+00 
    0.0000000000000000E+00     6.2500000000260125E-02     0.0000000000000000E+00 
    6.2499999999897131E-02     6.2500000000235922E-02     0.0000000000000000E+00 
    6.2499999999921327E-02     1.2500000000047351E-01     0.0000000000000000E+00 
    6.2499999999945530E-02     1.8750000000070621E-01     0.0000000000000000E+00 
    6.2499999999969733E-02     2.5000000000093858E-01     0.0000000000000000E+00 
    6.2499999999993928E-02     3.1250000000117117E-01     0.0000000000000000E+00 
    6.2500000000018124E-02     3.7500000000140382E-01     0.0000000000000000E+00 
    6.2500000000042327E-02     4.3750000000163619E-01     0.0000000000000000E+00 
    6.2500000000066530E-02     5.0000000000184897E-01     0.0000000000000000E+00 
    6.2500000000090733E-02     5.6250000000147260E-01     0.0000000000000000E+00 
    6.2500000000114922E-02     6.2500000000107636E-01     0.0000000000000000E+00 
    6.2500000000139125E-02     6.8750000000068034E-01     0.0000000000000000E+00 
    6.2500000000163328E-02     7.5000000000028411E-01     0.0000000000000000E+00 
    6.2500000000187531E-02     8.1249999999988787E-01     0.0000000000000000E+00 
    6.2500000000211720E-02     8.7499999999951172E-01     0.0000000000000000E+00 
    6.2500000000235922E-02     9.3749999999974565E-01     0.0000000000000000E+00 
    1.2499999999981980E-01     6.2500000000211733E-02     0.0000000000000000E+00 
    1.2499999999986650E-01     1.2500000000042691E-01     0.0000000000000000E+00 
    1.2499999999991319E-01     1.8750000000063199E-01     0.0000000000000000E+00 
    1.2499999999995989E-01     2.5000000000083678E-01     0.0000000000000000E+00 
    1.2500000000000661E-01     3.1250000000104172E-01     0.0000000000000000E+00 
    1.2500000000005329E-01     3.7500000000124661E-01     0.0000000000000000E+00 
    1.2500000000010000E-01     4.3750000000145117E-01     0.0000000000000000E+00 
    1.2500000000014669E-01     5.0000000000163858E-01     0.0000000000000000E+00 
    1.2500000000019340E-01     5.6250000000129741E-01     0.0000000000000000E+00 
    1.2500000000024011E-01     6.2500000000093847E-01     0.0000000000000000E+00 
    1.2500000000028680E-01     6.8750000000057998E-01     0.0000000000000000E+00 
    1.2500000000033351E-01     7.5000000000022127E-01     0.0000000000000000E+00 
    1.2500000000038020E-01     8.1249999999986211E-01     0.0000000000000000E+00 
    1.2500000000042691E-01     8.7499999999952238E-01     0.0000000000000000E+00 
    1.2500000000047359E-01     9.3749999999975164E-01     0.0000000000000000E+00 
    1.8749999999966760E-01     6.2500000000187531E-02     0.0000000000000000E+00 
    1.8749999999974179E-01     1.2500000000038020E-01     0.0000000000000000E+00 
    1.8749999999981601E-01     1.8750000000055780E-01     0.0000000000000000E+00 
    1.8749999999989009E-01     2.5000000000073502E-01     0.0000000000000000E+00 
    1.8749999999996431E-01     3.1250000000091221E-01     0.0000000000000000E+00 
    1.8750000000003850E-01     3.7500000000108941E-01     0.0000000000000000E+00 
    1.8750000000011269E-01     4.3750000000126649E-01     0.0000000000000000E+00 
    1.8750000000018691E-01     5.0000000000142808E-01     0.0000000000000000E+00 
    1.8750000000026110E-01     5.6250000000112244E-01     0.0000000000000000E+00 
    1.8750000000033529E-01     6.2500000000080080E-01     0.0000000000000000E+00 
    1.8750000000040951E-01     6.8750000000047962E-01     0.0000000000000000E+00 
    1.8750000000048361E-01     7.5000000000015843E-01     0.0000000000000000E+00 
    1.8750000000055780E-01     8.1249999999983680E-01     0.0000000000000000E+00 
    1.8750000000063199E-01     8.7499999999953304E-01     0.0000000000000000E+00 
    1.8750000000070621E-01     9.3749999999975764E-01     0.0000000000000000E+00 
    2.4999999999951281E-01     6.2500000000163314E-02     0.0000000000000000E+00 
    2.4999999999961461E-01     1.2500000000033351E-01     0.0000000000000000E+00 
    2.4999999999971650E-01     1.8750000000048361E-01     0.0000000000000000E+00 
    2.4999999999981831E-01     2.5000000000063310E-01     0.0000000000000000E+00 
    2.4999999999992020E-01     3.1250000000078260E-01     0.0000000000000000E+00 
    2.5000000000002198E-01     3.7500000000093209E-01     0.0000000000000000E+00 
    2.5000000000012390E-01     4.3750000000108180E-01     0.0000000000000000E+00 
    2.5000000000022571E-01     5.0000000000121769E-01     0.0000000000000000E+00 
    2.5000000000032763E-01     5.6250000000094724E-01     0.0000000000000000E+00 
    2.5000000000042938E-01     6.2500000000066314E-01     0.0000000000000000E+00 
    2.5000000000053119E-01     6.8750000000037925E-01     0.0000000000000000E+00 
[...]
CELL_DATA 256 
SCALARS Pressure double 1 
LOOKUP_TABLE default 

    1.8659644323766542E+00 
    1.7602621895449286E+00 
    1.6915141797211641E+00 
    1.6400504082436416E+00 
    1.5978365062508855E+00 
    1.5613094246855654E+00 
    1.5287671917166545E+00 
    1.4993815808561579E+00 
    1.4727877735018942E+00 
    1.4488912571975141E+00 
    1.4277613791093984E+00 
    1.4095573442266931E+00 
    1.3944567295273835E+00 
    1.3825752483885716E+00 
    1.3738531894395285E+00 
    1.3687457095453979E+00 
    1.7602621895454900E+00 
    1.7162787093374905E+00 
    1.6693754939984029E+00 
    1.6267786095200343E+00 
    1.5886697730817312E+00 
    1.5542421976532306E+00 
    1.5228334124955727E+00 
    1.4940580591551986E+00 
    1.4677644881791567E+00 
    1.4439729935355323E+00 
    1.4228233208793035E+00 
    1.4045252174551361E+00 
    1.3892976801415531E+00 
    1.3772888008934863E+00 
    1.3684611476024584E+00 
    1.3632891829775304E+00 
    1.6915141797219535E+00 
    1.6693754939987824E+00 
    1.6382407371472081E+00 
    1.6050100781517891E+00 
    1.5723201433193643E+00 
    1.5410448071359621E+00 
    1.5114603678472034E+00 
    1.4836945312923588E+00 
    1.4578869259246026E+00 
    1.4342344953032664E+00 
    1.4129958397101423E+00 
    1.3944715571214832E+00 
    1.3789588332924561E+00 
    1.3666698497765020E+00 
    1.3576152716093739E+00 
    1.3523074762530010E+00 
    1.6400504082445897E+00 
    1.6267786095206693E+00 
    1.6050100781520880E+00 
    1.5789681422937347E+00 
    1.5512128212148821E+00 
    1.5231381216063535E+00 
    1.4955183067189319E+00 
    1.4688467823415823E+00 
    1.4435165764366265E+00 
    1.4199046984802515E+00 
    1.3984079308709907E+00 
    1.3794439017459619E+00 
    1.3634163980869018E+00 
    1.3506343694059524E+00 
    1.3411915833158297E+00 
    1.3356564299639855E+00 
    1.5978365062519575E+00 
    1.5886697730825450E+00 
    1.5723201433198863E+00 
    1.5512128212151246E+00 
    1.5272858162609053E+00 
    1.5018935731241094E+00 
    1.4759666983649649E+00 
    1.4501883250932210E+00 
    1.4251235903452726E+00 
    1.4012991755341750E+00 
    1.3792472971237713E+00 
    1.3595166912184080E+00 
    1.3426419285485665E+00 
    1.3290655939976581E+00 
    1.3190034316788648E+00 
    1.3131003307013740E+00 
    1.5613094246867465E+00 
    1.5542421976541816E+00 
    1.5410448071366558E+00 
    1.5231381216067925E+00 
    1.5018935731243155E+00 
    1.4784481159756786E+00 
    1.4537068533625250E+00 
    1.4284134406298503E+00 
    1.4032271288214899E+00 
    1.3787832070740620E+00 
    1.3557352509544247E+00 
    1.3347696004465237E+00 
    1.3165791306014520E+00 
    1.3017819970021316E+00 
    1.2907588010290347E+00 
    1.2842674828088201E+00 
    1.5287671917179297E+00 
    1.5228334124966341E+00 
    1.5114603678480321E+00 
    1.4955183067195297E+00 
    1.4759666983653459E+00 
    1.4537068533627082E+00 
    1.4295418700110774E+00 
    1.4041970353402602E+00 
    1.3783646371569007E+00 
    1.3527485908305044E+00 
    1.3281054219147979E+00 
    1.3052632900214161E+00 
    1.2851044581775735E+00 
    1.2684740105368044E+00 
    1.2559865317846781E+00 
    1.2485822776216331E+00 
    1.4993815808575004E+00 
    1.4940580591563386E+00 
    1.4836945312932883E+00 
    1.4688467823423053E+00 
    1.4501883250937493E+00 
    1.4284134406301980E+00 
    1.4041970353404338E+00 
    1.3781998167743035E+00 
    1.3510996553210761E+00 
    1.3236305559223067E+00 
    1.2966284357776776E+00 
    1.2710642314338367E+00 
    1.2480413267348702E+00 
    1.2287030172983353E+00 
    1.2140090335348388E+00 
    1.2051977218652887E+00 
    1.4727877735030557E+00 
    1.4677644881801579E+00 
    1.4578869259254459E+00 
    1.4435165764373215E+00 
    1.4251235903458306E+00 
    1.4032271288219202E+00 
    1.3783646371572047E+00 
    1.3510996553212467E+00 
    1.3220528717098694E+00 
    1.2919449214428436E+00 
    1.2616553405794328E+00 
    1.2322856604487564E+00 
    1.2051891154601333E+00 
    1.1819040853880769E+00 
    1.1639002128164597E+00 
    1.1529073357905162E+00 
    1.4488912571983477E+00 
    1.4439729935362635E+00 
    1.4342344953039066E+00 
    1.4199046984808159E+00 
    1.4012991755346778E+00 
    1.3787832070745145E+00 
    1.3527485908309103E+00 
    1.3236305559226578E+00 
    1.2919449214430681E+00 
    1.2583398965475130E+00 
    1.2236770088395881E+00 
    1.1891433912678600E+00 
    1.1563499708746623E+00 
    1.1273399156952872E+00 
    1.1043392565049448E+00 
    1.0899208537656806E+00 
    1.4277613791099439E+00 
    1.4228233208797949E+00 
    1.4129958397105999E+00 
    1.3984079308714386E+00 
    1.3792472971242302E+00 
    1.3557352509549121E+00 
    1.3281054219153250E+00 
    1.2966284357782434E+00 
    1.2616553405799347E+00 
    1.2236770088398783E+00 
    1.1834292129529529E+00 
    1.1420733054961882E+00 
    1.1014121455238788E+00 
    1.0640693412377378E+00 
    1.0333889083364844E+00 
    1.0134514391611968E+00 
    1.4095573442269989E+00 
    1.4045252174554275E+00 
    1.3944715571217889E+00 
    1.3794439017463171E+00 
    1.3595166912188437E+00 
    1.3347696004470668E+00 
    1.3052632900220915E+00 
    1.2710642314346603E+00 
    1.2322856604495998E+00 
    1.1891433912685168E+00 
    1.1420733054965684E+00 
    1.0919809658512756E+00 
    1.0406199835643646E+00 
    9.9110093527745613E-01 
    9.4828578665641028E-01 
    9.1899270270399647E-01 
    1.3944567295274992E+00 
    1.3892976801416868E+00 
    1.3789588332926457E+00 
    1.3634163980871936E+00 
    1.3426419285490039E+00 
    1.3165791306020771E+00 
    1.2851044581784299E+00 
    1.2480413267359989E+00 
    1.2051891154613821E+00 
    1.1563499708757630E+00 
    1.1014121455247334E+00 
    1.0406199835648604E+00 
    9.7509554650730401E-01 
    9.0782326153246606E-01 
    8.4518564586277733E-01 
    7.9878186740017343E-01 
    1.3825752483885532E+00 
    1.3772888008935114E+00 
    1.3666698497766170E+00 
    1.3506343694062164E+00 
    1.3290655939981280E+00 
    1.3017819970028677E+00 
    1.2684740105378736E+00 
    1.2287030172998077E+00 
    1.1819040853897833E+00 
    1.1273399156968933E+00 
    1.0640693412391438E+00 
    9.9110093527854859E-01 
    9.0782326153309612E-01 
    8.1525185758058161E-01 
    7.1926198812940700E-01 
    6.3794043837486003E-01 
    1.3738531894394905E+00 
    1.3684611476024755E+00 
    1.3576152716095027E+00 
    1.3411915833161419E+00 
    1.3190034316794312E+00 
    1.2907588010299340E+00 
    1.2559865317860002E+00 
    1.2140090335366853E+00 
    1.1639002128186411E+00 
    1.1043392565070522E+00 
    1.0333889083384080E+00 
    9.4828578665802232E-01 
    8.4518564586389766E-01 
    7.1926198812979258E-01 
    5.6727406289226012E-01 
    4.0328612544252446E-01 
    1.3687457095453743E+00 
    1.3632891829775697E+00 
    1.3523074762531688E+00 
    1.3356564299643667E+00 
    1.3131003307020530E+00 
    1.2842674828098923E+00 
    1.2485822776232118E+00 
    1.2051977218675041E+00 
    1.1529073357931561E+00 
    1.0899208537682636E+00 
    1.0134514391635985E+00 
    9.1899270270606392E-01 
    7.9878186740166124E-01 
    6.3794043837531844E-01 
    4.0328612544198111E-01 
    0.0000000000000000E+00 

SCALARS Saturarion double 1 
LOOKUP_TABLE default 

    1.0000000000000000E+00 
    9.6105716082461556E-01 
    9.2590748814246793E-01 
    8.8790597057514542E-01 
    8.4886761934229971E-01 
    8.1025638993584548E-01 
    7.7241606156099307E-01 
    7.3541306500823034E-01 
    6.9881340543273529E-01 
    6.6220231794847173E-01 
    6.2447368193831121E-01 
    5.8402397812192441E-01 
    5.3698807132304560E-01 
    4.7521256372897613E-01 
    3.7114343167940794E-01 
    1.4704177780702865E-01 
    9.6105716082479509E-01 
    9.3428024736932558E-01 
    9.0260275648133859E-01 
    8.6822013130908893E-01 
    8.3254117229449465E-01 
    7.9686765643654056E-01 
    7.6153577150305329E-01 
    7.2670755030973366E-01 
    6.9199029575035942E-01 
    6.5698227427516331E-01 
    6.2063245336678508E-01 
    5.8138671853711810E-01 
    5.3541035260224101E-01 
    4.7439209726660064E-01 
    3.7075894032897155E-01 
    1.4642242799499619E-01 
    9.2590748814299073E-01 
    9.0260275648158439E-01 
    8.7444256346388760E-01 
    8.4383685407282893E-01 
    8.1190013430347852E-01 
    7.7964200378212112E-01 
    7.4739238290571253E-01 
    7.1535130051965634E-01 
    6.8316351496068695E-01 
    6.5031640054419992E-01 
    6.1585508532816402E-01 
    5.7825069485112179E-01 
    5.3378426777218346E-01 
    4.7378612494336303E-01 
    3.7091924546466121E-01 
    1.4693943300449688E-01 
    8.8790597057593412E-01 
    8.6822013130962516E-01 
    8.4383685407308817E-01 
    8.1705822991362087E-01 
    7.8896997368022148E-01 
    7.6038549806989753E-01 
    7.3157908394835658E-01 
    7.0261830250820989E-01 
    6.7324470913260426E-01 
    6.4290363861488320E-01 
    6.1071092963338047E-01 
    5.7498343895615778E-01 
    5.3238225152707541E-01 
    4.7346515330389233E-01 
    3.7180768937738001E-01 
    1.4897017604375407E-01 
    8.4886761934331545E-01 
    8.3254117229524194E-01 
    8.1190013430397634E-01 
    7.8896997368045085E-01 
    7.6472767160268318E-01 
    7.3982734960971552E-01 
    7.1450518222332471E-01 
    6.8888042585967424E-01 
    6.6259418212700627E-01 
    6.3519926688384476E-01 
    6.0564686774329812E-01 
    5.7240752926375349E-01 
    5.3164848181007052E-01 
    4.7517551591620483E-01 
    3.7534928570553355E-01 
    1.5637154612901485E-01 
    8.1025638993705840E-01 
    7.9686765643751345E-01 
    7.7964200378282145E-01 
    7.6038549807032230E-01 
    7.3982734960992735E-01 
    7.1861679195791450E-01 
    6.9680243281537957E-01 
    6.7455387381422915E-01 
    6.5143317280348212E-01 
    6.2708613845772776E-01 
    6.0039686633532519E-01 
    5.6981002630185207E-01 
    5.3149254612021735E-01 
    4.7731796399418314E-01 
    3.8008320301413878E-01 
    1.6633653578286894E-01 
    7.7241606156242482E-01 
    7.6153577150417751E-01 
    7.4739238290657439E-01 
    7.3157908394894988E-01 
    7.1450518222369819E-01 
    6.9680243281554555E-01 
    6.7845299404109838E-01 
    6.5962468980405387E-01 
    6.3983301229563572E-01 
    6.1865255193922009E-01 
    5.9502588919148380E-01 
    5.6736231307061391E-01 
    5.3196776428852632E-01 
    4.8045671429381065E-01 
    3.8653155024440700E-01 
    1.7943548230478057E-01 
    7.3541306500985093E-01 
    7.2670755031108702E-01 
    7.1535130052070828E-01 
    7.0261830250898605E-01 
    6.8888042586020426E-01 
    6.7455387381454213E-01 
    6.5962468980418498E-01 
    6.4417028352291628E-01 
    6.2777993504726759E-01 
    6.0993231511160140E-01 
    5.8960455154399227E-01 
    5.6510978607740692E-01 
    5.3309155676768938E-01 
    4.8468414788726294E-01 
    3.9498674243643916E-01 
    1.9607939103753738E-01 
    6.9881340543399384E-01 
    6.9199029575146254E-01 
    6.8316351496156369E-01 
    6.7324470913324863E-01 
    6.6259418212744980E-01 
    6.5143317280377178E-01 
    6.3983301229577616E-01 
    6.2777993504732343E-01 
    6.1491803765425979E-01 
    6.0063390571110442E-01 
    5.8392976051371825E-01 
    5.6315925069747652E-01 
    5.3483952326637652E-01 
    4.9095869786887697E-01 
    4.0677589768395661E-01 
    2.1795339995150737E-01 
    6.6220231794946860E-01 
    6.5698227427600076E-01 
    6.5031640054489237E-01 
    6.4290363861541144E-01 
    6.3519926688423278E-01 
    6.2708613845799266E-01 
    6.1865255193936775E-01 
    6.0993231511166457E-01 
    6.0063390571111053E-01 
    5.9009531297560414E-01 
    5.7731333089035797E-01 
    5.6067710261918746E-01 
    5.3681764459629222E-01 
    4.9804371135203968E-01 
    4.2087701685324458E-01 
    2.4347884237448705E-01 
    6.2447368193906094E-01 
    6.2063245336741202E-01 
    6.1585508532867783E-01 
    6.1071092963376883E-01 
    6.0564686774357257E-01 
    6.0039686633550859E-01 
    5.9502588919158339E-01 
    5.8960455154402647E-01 
    5.8392976051369894E-01 
    5.7731333089032644E-01 
    5.6880367018028122E-01 
    5.5684753271606524E-01 
    5.3825389027506465E-01 
    5.0568428951562427E-01 
    4.3734113015621429E-01 
    2.7291677449637258E-01 
    5.8402397812240503E-01 
    5.8138671853752866E-01 
    5.7825069485144165E-01 
    5.7498343895639681E-01 
    5.7240752926389982E-01 
    5.6981002630191779E-01 
    5.6736231307061757E-01 
    5.6510978607736129E-01 
    5.6315925069738193E-01 
    5.6067710261907877E-01 
    5.5684753271598786E-01 
    5.5021157786239838E-01 
    5.3778415658089962E-01 
    5.1279413540417584E-01 
    4.5539050708158257E-01 
    3.0593148275912668E-01 
    5.3698807132321624E-01 
    5.3541035260237024E-01 
    5.3378426777225785E-01 
    5.3238225152710317E-01 
    5.3164848181003399E-01 
    5.3149254612011787E-01 
    5.3196776428837067E-01 
    5.3309155676748776E-01 
    5.3483952326613615E-01 
    5.3681764459604697E-01 
    5.3825389027486181E-01 
    5.3778415658078149E-01 
    5.3274972861493042E-01 
    5.1715602498730762E-01 
    4.7358670849386286E-01 
    3.4339773418860808E-01 
    4.7521256372870635E-01 
    4.7439209726632847E-01 
    4.7378612494307792E-01 
    4.7346515330359279E-01 
    4.7517551591587753E-01 
    4.7731796399381488E-01 
    4.8045671429339570E-01 
    4.8468414788679909E-01 
    4.9095869786840418E-01 
    4.9804371135158931E-01 
    5.0568428951524480E-01 
    5.1279413540390717E-01 
    5.1715602498717905E-01 
    5.1350396494356731E-01 
    4.8730622076708180E-01 
    3.8316417759506122E-01 
    3.7114343167925340E-01 
    3.7075894032881312E-01 
    3.7091924546449628E-01 
    3.7180768937719250E-01 
    3.7534928570530252E-01 
    3.8008320301383541E-01 
    3.8653155024400560E-01 
    3.9498674243590631E-01 
    4.0677589768338429E-01 
    4.2087701685267664E-01 
    4.3734113015569637E-01 
    4.5539050708116252E-01 
    4.7358670849358964E-01 
    4.8730622076696639E-01 
    4.8486951492435082E-01 
    4.1891592081642809E-01 
    1.4704177780700298E-01 
    1.4642242799495955E-01 
    1.4693943300445539E-01 
    1.4897017604367030E-01 
    1.5637154612884777E-01 
    1.6633653578254118E-01 
    1.7943548230424047E-01 
    1.9607939103673958E-01 
    2.1795339995070895E-01 
    2.4347884237374742E-01 
    2.7291677449575341E-01 
    3.0593148275867443E-01 
    3.4339773418838321E-01 
    3.8316417759509214E-01 
    4.1891592081643980E-01 
    4.1807929198518257E-01 
