# vtk DataFile Version 2.0
Pressure Field Data 
ASCII 
DATASET UNSTRUCTURED_GRID 

POINTS 289 double 

    0.0000000000000000E+00     0.0000000000000000E+00     0.0000000000000000E+00 
    1.0000000000000000E+00     0.0000000000000000E+00     0.0000000000000000E+00 
    1.0000000000000000E+00     1.0000000000000000E+00     0.0000000000000000E+00 
    0.0000000000000000E+00     1.0000000000000000E+00     0.0000000000000000E+00 
    6.2499999999872928E-02     0.0000000000000000E+00     0.0000000000000000E+00 
    1.2499999999977310E-01     0.0000000000000000E+00     0.0000000000000000E+00 
    1.8749999999959341E-01     0.0000000000000000E+00     0.0000000000000000E+00 
    2.4999999999941089E-01     0.0000000000000000E+00     0.0000000000000000E+00 
    3.1249999999922851E-01     0.0000000000000000E+00     0.0000000000000000E+00 
    3.7499999999904610E-01     0.0000000000000000E+00     0.0000000000000000E+00 
    4.3749999999886358E-01     0.0000000000000000E+00     0.0000000000000000E+00 
    4.9999999999869210E-01     0.0000000000000000E+00     0.0000000000000000E+00 
    5.6249999999884603E-01     0.0000000000000000E+00     0.0000000000000000E+00 
    6.2499999999901090E-01     0.0000000000000000E+00     0.0000000000000000E+00 
    6.8749999999917577E-01     0.0000000000000000E+00     0.0000000000000000E+00 
    7.4999999999934064E-01     0.0000000000000000E+00     0.0000000000000000E+00 
    8.1249999999950551E-01     0.0000000000000000E+00     0.0000000000000000E+00 
    8.7499999999967026E-01     0.0000000000000000E+00     0.0000000000000000E+00 
    9.3749999999983513E-01     0.0000000000000000E+00     0.0000000000000000E+00 
    1.0000000000000000E+00     6.2499999999872928E-02     0.0000000000000000E+00 
    1.0000000000000000E+00     1.2499999999977310E-01     0.0000000000000000E+00 
    1.0000000000000000E+00     1.8749999999959341E-01     0.0000000000000000E+00 
    1.0000000000000000E+00     2.4999999999941089E-01     0.0000000000000000E+00 
    1.0000000000000000E+00     3.1249999999922851E-01     0.0000000000000000E+00 
    1.0000000000000000E+00     3.7499999999904610E-01     0.0000000000000000E+00 
    1.0000000000000000E+00     4.3749999999886358E-01     0.0000000000000000E+00 
    1.0000000000000000E+00     4.9999999999869210E-01     0.0000000000000000E+00 
    1.0000000000000000E+00     5.6249999999884603E-01     0.0000000000000000E+00 
    1.0000000000000000E+00     6.2499999999901090E-01     0.0000000000000000E+00 
    1.0000000000000000E+00     6.8749999999917577E-01     0.0000000000000000E+00 
    1.0000000000000000E+00     7.4999999999934064E-01     0.0000000000000000E+00 
    1.0000000000000000E+00     8.1249999999950551E-01     0.0000000000000000E+00 
    1.0000000000000000E+00     8.7499999999967026E-01     0.0000000000000000E+00 
    1.0000000000000000E+00     9.3749999999983513E-01     0.0000000000000000E+00 
    9.3749999999973976E-01     1.0000000000000000E+00     0.0000000000000000E+00 
    8.7499999999950118E-01     1.0000000000000000E+00     0.0000000000000000E+00 
    8.1249999999991318E-01     1.0000000000000000E+00     0.0000000000000000E+00 
    7.5000000000034706E-01     1.0000000000000000E+00     0.0000000000000000E+00 
    6.8750000000078049E-01     1.0000000000000000E+00     0.0000000000000000E+00 
    6.2500000000121403E-01     1.0000000000000000E+00     0.0000000000000000E+00 
    5.6250000000164757E-01     1.0000000000000000E+00     0.0000000000000000E+00 
    5.0000000000205946E-01     1.0000000000000000E+00     0.0000000000000000E+00 
    4.3750000000182099E-01     1.0000000000000000E+00     0.0000000000000000E+00 
    3.7500000000156092E-01     1.0000000000000000E+00     0.0000000000000000E+00 
    3.1250000000130068E-01     1.0000000000000000E+00     0.0000000000000000E+00 
    2.5000000000104050E-01     1.0000000000000000E+00     0.0000000000000000E+00 
    1.8750000000078040E-01     1.0000000000000000E+00     0.0000000000000000E+00 
    1.2500000000052031E-01     1.0000000000000000E+00     0.0000000000000000E+00 
    6.2500000000260125E-02     1.0000000000000000E+00     0.0000000000000000E+00 
    0.0000000000000000E+00     9.3749999999973976E-01     0.0000000000000000E+00 
    0.0000000000000000E+00     8.7499999999950118E-01     0.0000000000000000E+00 
    0.0000000000000000E+00     8.1249999999991318E-01     0.0000000000000000E+00 
    0.0000000000000000E+00     7.5000000000034706E-01     0.0000000000000000E+00 
    0.0000000000000000E+00     6.8750000000078049E-01     0.0000000000000000E+00 
    0.0000000000000000E+00     6.2500000000121403E-01     0.0000000000000000E+00 
    0.0000000000000000E+00     5.6250000000164757E-01     0.0000000000000000E+00 
    0.0000000000000000E+00     5.0000000000205946E-01     0.0000000000000000E+00 
    0.0000000000000000E+00     4.3750000000182099E-01     0.0000000000000000E+00 
    0.0000000000000000E+00     3.7500000000156092E-01     0.0000000000000000E+00 
    0.0000000000000000E+00     3.1250000000130068E-01     0.0000000000000000E+00 
    0.0000000000000000E+00     2.5000000000104050E-01     0.0000000000000000E+00 
    0.0000000000000000E+00     1.8750000000078040E-01     0.0000000000000000E+00 
    0.0000000000000000E+00     1.2500000000052031E-01     0.0000000000000000E+00 
    0.0000000000000000E+00     6.2500000000260125E-02     0.0000000000000000E+00 
    6.2499999999897131E-02     6.2500000000235922E-02     0.0000000000000000E+00 
    6.2499999999921327E-02     1.2500000000047351E-01     0.0000000000000000E+00 
    6.2499999999945530E-02     1.8750000000070621E-01     0.0000000000000000E+00 
    6.2499999999969733E-02     2.5000000000093858E-01     0.0000000000000000E+00 
    6.2499999999993928E-02     3.1250000000117117E-01     0.0000000000000000E+00 
    6.2500000000018124E-02     3.7500000000140382E-01     0.0000000000000000E+00 
    6.2500000000042327E-02     4.3750000000163619E-01     0.0000000000000000E+00 
    6.2500000000066530E-02     5.0000000000184897E-01     0.0000000000000000E+00 
    6.2500000000090733E-02     5.6250000000147260E-01     0.0000000000000000E+00 
    6.2500000000114922E-02     6.2500000000107636E-01     0.0000000000000000E+00 
    6.2500000000139125E-02     6.8750000000068034E-01     0.0000000000000000E+00 
    6.2500000000163328E-02     7.5000000000028411E-01     0.0000000000000000E+00 
    6.2500000000187531E-02     8.1249999999988787E-01     0.0000000000000000E+00 
    6.2500000000211720E-02     8.7499999999951172E-01     0.0000000000000000E+00 
    6.2500000000235922E-02     9.3749999999974565E-01     0.0000000000000000E+00 
    1.2499999999981980E-01     6.2500000000211733E-02     0.0000000000000000E+00 
    1.2499999999986650E-01     1.2500000000042691E-01     0.0000000000000000E+00 
    1.2499999999991319E-01     1.8750000000063199E-01     0.0000000000000000E+00 
    1.2499999999995989E-01     2.5000000000083678E-01     0.0000000000000000E+00 
    1.2500000000000661E-01     3.1250000000104172E-01     0.0000000000000000E+00 
    1.2500000000005329E-01     3.7500000000124661E-01     0.0000000000000000E+00 
    1.2500000000010000E-01     4.3750000000145117E-01     0.0000000000000000E+00 
    1.2500000000014669E-01     5.0000000000163858E-01     0.0000000000000000E+00 
    1.2500000000019340E-01     5.6250000000129741E-01     0.0000000000000000E+00 
    1.2500000000024011E-01     6.2500000000093847E-01     0.0000000000000000E+00 
    1.2500000000028680E-01     6.8750000000057998E-01     0.0000000000000000E+00 
    1.2500000000033351E-01     7.5000000000022127E-01     0.0000000000000000E+00 
    1.2500000000038020E-01     8.1249999999986211E-01     0.0000000000000000E+00 
    1.2500000000042691E-01     8.7499999999952238E-01     0.0000000000000000E+00 
    1.2500000000047359E-01     9.3749999999975164E-01     0.0000000000000000E+00 
    1.8749999999966760E-01     6.2500000000187531E-02     0.0000000000000000E+00 
    1.8749999999974179E-01     1.2500000000038020E-01     0.0000000000000000E+00 
    1.8749999999981601E-01     1.8750000000055780E-01     0.0000000000000000E+00 
    1.8749999999989009E-01     2.5000000000073502E-01     0.0000000000000000E+00 
    1.8749999999996431E-01     3.1250000000091221E-01     0.0000000000000000E+00 
    1.8750000000003850E-01     3.7500000000108941E-01     0.0000000000000000E+00 
    1.8750000000011269E-01     4.3750000000126649E-01     0.0000000000000000E+00 
    1.8750000000018691E-01     5.0000000000142808E-01     0.0000000000000000E+00 
    1.8750000000026110E-01     5.6250000000112244E-01     0.0000000000000000E+00 
    1.8750000000033529E-01     6.2500000000080080E-01     0.0000000000000000E+00 
    1.8750000000040951E-01     6.8750000000047962E-01     0.0000000000000000E+00 
    1.8750000000048361E-01     7.5000000000015843E-01     0.0000000000000000E+00 
    1.8750000000055780E-01     8.1249999999983680E-01     0.0000000000000000E+00 
    1.8750000000063199E-01     8.7499999999953304E-01     0.0000000000000000E+00 
    1.8750000000070621E-01     9.3749999999975764E-01     0.0000000000000000E+00 
    2.4999999999951281E-01     6.2500000000163314E-02     0.0000000000000000E+00 
    2.4999999999961461E-01     1.2500000000033351E-01     0.0000000000000000E+00 
    2.4999999999971650E-01     1.8750000000048361E-01     0.0000000000000000E+00 
    2.4999999999981831E-01     2.5000000000063310E-01     0.0000000000000000E+00 
    2.4999999999992020E-01     3.1250000000078260E-01     0.0000000000000000E+00 
    2.5000000000002198E-01     3.7500000000093209E-01     0.0000000000000000E+00 
    2.5000000000012390E-01     4.3750000000108180E-01     0.0000000000000000E+00 
    2.5000000000022571E-01     5.0000000000121769E-01     0.0000000000000000E+00 
    2.5000000000032763E-01     5.6250000000094724E-01     0.0000000000000000E+00 
    2.5000000000042938E-01     6.2500000000066314E-01     0.0000000000000000E+00 
    2.5000000000053119E-01     6.8750000000037925E-01     0.0000000000000000E+00 
[...]
CELL_DATA 256 
SCALARS Pressure double 1 
LOOKUP_TABLE default 

    2.0632648823834105E+00 
    1.9566160307570946E+00 
    1.8864827337338244E+00 
    1.8334452108233024E+00 
    1.7895300380527741E+00 
    1.7512180804166120E+00 
    1.7168467400778098E+00 
    1.6856244071173925E+00 
    1.6572222535476131E+00 
    1.6315808450242970E+00 
    1.6088002505621890E+00 
    1.5890553245078733E+00 
    1.5724960807706443E+00 
    1.5591216514739976E+00 
    1.5487291652682225E+00 
    1.5428303677860140E+00 
    1.9566160307576648E+00 
    1.9118951815259346E+00 
    1.8637747571760406E+00 
    1.8196983438435568E+00 
    1.7799415336438871E+00 
    1.7437580157123509E+00 
    1.7105327595180133E+00 
    1.6799216974967368E+00 
    1.6518125301147177E+00 
    1.6262633112847176E+00 
    1.6034470733695410E+00 
    1.5835920384834388E+00 
    1.5668921535454472E+00 
    1.5533775282777127E+00 
    1.5428604251456783E+00 
    1.5368900627792286E+00 
    1.8864827337346364E+00 
    1.8637747571764334E+00 
    1.8316057321717207E+00 
    1.7970248931508928E+00 
    1.7627701277124084E+00 
    1.7297862383617861E+00 
    1.6984050426217165E+00 
    1.6688018547684109E+00 
    1.6411609851903359E+00 
    1.6157220104130192E+00 
    1.5927819347755230E+00 
    1.5726654768765966E+00 
    1.5556503741959675E+00 
    1.5418305397898862E+00 
    1.5310578080973383E+00 
    1.5249472108119322E+00 
    1.8334452108242880E+00 
    1.8196983438442207E+00 
    1.7970248931512069E+00 
    1.7697447202112857E+00 
    1.7405035562230764E+00 
    1.7107648591952305E+00 
    1.6813612097744952E+00 
    1.6528380138341294E+00 
    1.6256380641404926E+00 
    1.6001869960366015E+00 
    1.5769273264698767E+00 
    1.5563095991721265E+00 
    1.5387270873258272E+00 
    1.5243750097615301E+00 
    1.5131873669819846E+00 
    1.5068610572747039E+00 
    1.7895300380538999E+00 
    1.7799415336447439E+00 
    1.7627701277129602E+00 
    1.7405035562233344E+00 
    1.7151467484358047E+00 
    1.6881158906610110E+00 
    1.6603979530890725E+00 
    1.6327296016926627E+00 
    1.6057295995788812E+00 
    1.5799795543349946E+00 
    1.5560664821362917E+00 
    1.5345841654735426E+00 
    1.5160697587919927E+00 
    1.5008638810525705E+00 
    1.4890293476925847E+00 
    1.4823592674729917E+00 
    1.7512180804178603E+00 
    1.7437580157133588E+00 
    1.7297862383625231E+00 
    1.7107648591956990E+00 
    1.6881158906612319E+00 
    1.6630281182380957E+00 
    1.6364580958098629E+00 
    1.6092019913546831E+00 
    1.5819750593993736E+00 
    1.5554734836411066E+00 
    1.5304159899458536E+00 
    1.5075493134017925E+00 
    1.4875887089845585E+00 
    1.4710703718019522E+00 
    1.4582317278419878E+00 
    1.4510006643895936E+00 
    1.7168467400791656E+00 
    1.7105327595191437E+00 
    1.6984050426226018E+00 
    1.6813612097751360E+00 
    1.6603979530894830E+00 
    1.6364580958100610E+00 
    1.6103892943975295E+00 
    1.5829658310924659E+00 
    1.5549363303905674E+00 
    1.5270704455324404E+00 
    1.5002007748008799E+00 
    1.4752344938907009E+00 
    1.4531044682600338E+00 
    1.4346054705039177E+00 
    1.4202329405498737E+00 
    1.4121296555094185E+00 
    1.6856244071188293E+00 
    1.6799216974979585E+00 
    1.6688018547694088E+00 
    1.6528380138349081E+00 
    1.6327296016932347E+00 
    1.6092019913550606E+00 
    1.5829658310926560E+00 
    1.5547244740207611E+00 
    1.5252093759432217E+00 
    1.4952225852870382E+00 
    1.4656858726745938E+00 
    1.4376701722110745E+00 
    1.4123651288237649E+00 
    1.3909109423566282E+00 
    1.3741974470114722E+00 
    1.3647188183752030E+00 
    1.6572222535488614E+00 
    1.6518125301157964E+00 
    1.6411609851912470E+00 
    1.6256380641412456E+00 
    1.6057295995794874E+00 
    1.5819750593998427E+00 
    1.5549363303909001E+00 
    1.5252093759434087E+00 
    1.4934610827606734E+00 
    1.4604776605786973E+00 
    1.4272301229668420E+00 
    1.3949400547916375E+00 
    1.3650871604147645E+00 
    1.3392685852728798E+00 
    1.3189486347642487E+00 
    1.3072060023021266E+00 
    1.6315808450251965E+00 
    1.6262633112855087E+00 
    1.6157220104137147E+00 
    1.6001869960372168E+00 
    1.5799795543355450E+00 
    1.5554734836416031E+00 
    1.5270704455328858E+00 
    1.4952225852874232E+00 
    1.4604776605789447E+00 
    1.4235387041125531E+00 
    1.3853554061261582E+00 
    1.3472479048148607E+00 
    1.3109933538995593E+00 
    1.2787644094764206E+00 
    1.2528476912407924E+00 
    1.2373254258451585E+00 
    1.6088002505627823E+00 
    1.6034470733700765E+00 
    1.5927819347760226E+00 
    1.5769273264703678E+00 
    1.5560664821367958E+00 
    1.5304159899463889E+00 
    1.5002007748014587E+00 
    1.4656858726752162E+00 
    1.4272301229673969E+00 
    1.3853554061264803E+00 
    1.3408660217435311E+00 
    1.2950524271964974E+00 
    1.2499118618912830E+00 
    1.2082702527785401E+00 
    1.1736124249983604E+00 
    1.1517901043291681E+00 
    1.5890553245082097E+00 
    1.5835920384837596E+00 
    1.5726654768769341E+00 
    1.5563095991725180E+00 
    1.5345841654740218E+00 
    1.5075493134023898E+00 
    1.4752344938914455E+00 
    1.4376701722119840E+00 
    1.3949400547925712E+00 
    1.3472479048155905E+00 
    1.2950524271969210E+00 
    1.2393518526809624E+00 
    1.1820881393729756E+00 
    1.1266301045340921E+00 
    1.0780844091538415E+00 
    1.0454434922159623E+00 
    1.5724960807707742E+00 
    1.5668921535455973E+00 
    1.5556503741961791E+00 
    1.5387270873261507E+00 
    1.5160697587924747E+00 
    1.4875887089852471E+00 
    1.4531044682609791E+00 
    1.4123651288250123E+00 
    1.3650871604161490E+00 
    1.3109933539007841E+00 
    1.2499118618922378E+00 
    1.1820881393735316E+00 
    1.1087512625658431E+00 
    1.0331229802934838E+00 
    9.6191730292516253E-01 
    9.0948539652733040E-01 
    1.5591216514739783E+00 
    1.5533775282777416E+00 
    1.5418305397900145E+00 
    1.5243750097618212E+00 
    1.5008638810530868E+00 
    1.4710703718027613E+00 
    1.4346054705050955E+00 
    1.3909109423582549E+00 
    1.3392685852747737E+00 
    1.2787644094782116E+00 
    1.2082702527801148E+00 
    1.1266301045353206E+00 
    1.0331229802941950E+00 
    9.2875731922319638E-01 
    8.1957069214343747E-01 
    7.2699915546895799E-01 
    1.5487291652681807E+00 
    1.5428604251456972E+00 
    1.5310578080974802E+00 
    1.5131873669823261E+00 
    1.4890293476932048E+00 
    1.4582317278429728E+00 
    1.4202329405513272E+00 
    1.3741974470135097E+00 
    1.3189486347666695E+00 
    1.2528476912431457E+00 
    1.1736124250005204E+00 
    1.0780844091556590E+00 
    9.6191730292642841E-01 
    8.1957069214387290E-01 
    6.4676541964550316E-01 
    4.5985005773939297E-01 
    1.5428303677859887E+00 
    1.5368900627792716E+00 
    1.5249472108121167E+00 
    1.5068610572751207E+00 
    1.4823592674737327E+00 
    1.4510006643907645E+00 
    1.4121296555111482E+00 
    1.3647188183776433E+00 
    1.3072060023050509E+00 
    1.2373254258480437E+00 
    1.1517901043318697E+00 
    1.0454434922182987E+00 
    9.0948539652901528E-01 
    7.2699915546947325E-01 
    4.5985005773876592E-01 
    0.0000000000000000E+00 

SCALARS Saturarion double 1 
LOOKUP_TABLE default 

    1.0000000000000000E+00 
    9.5465834291920193E-01 
    9.1481443521708194E-01 
    8.7265961548943860E-01 
    8.3011660066405679E-01 
    7.8865011460600254E-01 
    7.4845531597702197E-01 
    7.0947259869136248E-01 
    6.7112152399812730E-01 
    6.3286265346622317E-01 
    5.9335341199309821E-01 
    5.5050770835672602E-01 
    4.9892934212965495E-01 
    4.2625780606104618E-01 
    2.9203982923779537E-01 
    6.4051097898109310E-02 
    9.5465834291943141E-01 
    9.2418672655800860E-01 
    8.8878694689431781E-01 
    8.5103488979280584E-01 
    8.1242635439268140E-01 
    7.7429978765430552E-01 
    7.3688907551309124E-01 
    7.0027131942136034E-01 
    6.6393049700256801E-01 
    6.2735369494341942E-01 
    5.8926637425384565E-01 
    5.4763872834790495E-01 
    4.9708242215602533E-01 
    4.2496117429929309E-01 
    2.9045327581783820E-01 
    6.2501659655891606E-02 
    9.1481443521765105E-01 
    8.8878694689459536E-01 
    8.5775973417829365E-01 
    8.2451523397397264E-01 
    7.9022652779923730E-01 
    7.5593555527573719E-01 
    7.2190963149943754E-01 
    6.8829609488832066E-01 
    6.5464023788499170E-01 
    6.2032020233509688E-01 
    5.8417755129226723E-01 
    5.4421524991777892E-01 
    4.9516619011208923E-01 
    4.2386001990297800E-01 
    2.8944394916890082E-01 
    6.1630955049096492E-02 
    8.7265961549028292E-01 
    8.5103488979338182E-01 
    8.2451523397424575E-01 
    7.9571147347092241E-01 
    7.6577541915422509E-01 
    7.3554578028986117E-01 
    7.0525669053082130E-01 
    6.7492908364523607E-01 
    6.4423502793419773E-01 
    6.1251923509054873E-01 
    5.7871233274137812E-01 
    5.4064399962085907E-01 
    4.9349950740577342E-01 
    4.2302370195996741E-01 
    2.8927738280669868E-01 
    6.1719284294815546E-02 
    8.3011660066514947E-01 
    8.1242635439346866E-01 
    7.9022652779975788E-01 
    7.6577541915445813E-01 
    7.4010692636810371E-01 
    7.1389015000643019E-01 
    6.8733657431652162E-01 
    6.6054203885940077E-01 
    6.3308211974029582E-01 
    6.0443578851139423E-01 
    5.7336576497684733E-01 
    5.3789465919798507E-01 
    4.9261705045933124E-01 
    4.2486621559748217E-01 
    2.9335606486393728E-01 
    6.7667965577589320E-02 
    7.8865011460730150E-01 
    7.7429978765528196E-01 
    7.5593555527646317E-01 
    7.3554578029030271E-01 
    7.1389015000662792E-01 
    6.9164045794442519E-01 
    6.6881051628356947E-01 
    6.4556412925975715E-01 
    6.2139993396093729E-01 
    5.9591269689948478E-01 
    5.6780406359291657E-01 
    5.3509239313011348E-01 
    4.9238829758193653E-01 
    4.2716514934567545E-01 
    2.9913702195225989E-01 
    7.4894635986528860E-02 
    7.4845531597853421E-01 
    7.3688907551428684E-01 
    7.2190963150035903E-01 
    7.0525669053145956E-01 
    6.8733657431690443E-01 
    6.6881051628374133E-01 
    6.4962698255686435E-01 
    6.2995612702266079E-01 
    6.0925232453566935E-01 
    5.8704000674371426E-01 
    5.6209820354545526E-01 
    5.3243370083339447E-01 
    4.9287415002868989E-01 
    4.3064549716147715E-01 
    3.0711280628779553E-01 
    8.5424527866385935E-02 
    7.0947259869305634E-01 
    7.0027131942274701E-01 
    6.8829609488941346E-01 
    6.7492908364604598E-01 
    6.6054203885994256E-01 
    6.4556412926007478E-01 
    6.2995612702278658E-01 
    6.1379405985791202E-01 
    5.9662072163918445E-01 
    5.7785957046731806E-01 
    5.5633952567924050E-01 
    5.2998398870970698E-01 
    4.9411232745067357E-01 
    4.3543291160980446E-01 
    3.1760147129490857E-01 
    1.0095928270532623E-01 
    6.7112152399939251E-01 
    6.6393049700369899E-01 
    6.5464023788591386E-01 
    6.4423502793489251E-01 
    6.3308211974077988E-01 
    6.2139993396123894E-01 
    6.0925232453582689E-01 
    5.9662072163924629E-01 
    5.8311499417029233E-01 
    5.6806046711099845E-01 
    5.5032787996102472E-01 
    5.2792301223379845E-01 
    4.9611530521053765E-01 
    4.4291725504252960E-01 
    3.3261672313553264E-01 
    1.2616980331030003E-01 
    6.3286265346727955E-01 
    6.2735369494431203E-01 
    6.2032020233583018E-01 
    6.1251923509111250E-01 
    6.0443578851179369E-01 
    5.9591269689974447E-01 
    5.8704000674385437E-01 
    5.7785957046739611E-01 
    5.6806046711102054E-01 
    5.5691539885257657E-01 
    5.4330183323775560E-01 
    5.2530509312854878E-01 
    4.9846124909603379E-01 
    4.5146500787210453E-01 
    3.5068328696880524E-01 
    1.5746735626015515E-01 
    5.9335341199388669E-01 
    5.8926637425450457E-01 
    5.8417755129280236E-01 
    5.7871233274178890E-01 
    5.7336576497713521E-01 
    5.6780406359308999E-01 
    5.6209820354556161E-01 
    5.5633952567929024E-01 
    5.5032787996101507E-01 
    5.4330183323772818E-01 
    5.3420800953223324E-01 
    5.2123711388577010E-01 
    5.0028502271857600E-01 
    4.6084232676341685E-01 
    3.7191896593306767E-01 
    1.9395646347165746E-01 
    5.5050770835722329E-01 
    5.4763872834832161E-01 
    5.4421524991810777E-01 
    5.4064399962109544E-01 
    5.3789465919813040E-01 
    5.3509239313017876E-01 
    5.3243370083339836E-01 
    5.2998398870966212E-01 
    5.2792301223370242E-01 
    5.2530509312843432E-01 
    5.2123711388568839E-01 
    5.1404823007190548E-01 
    5.0001730502485231E-01 
    4.6975361723456199E-01 
    3.9528146916013784E-01 
    2.3414525134412284E-01 
    4.9892934212981060E-01 
    4.9708242215613435E-01 
    4.9516619011215007E-01 
    4.9349950740577209E-01 
    4.9261705045926774E-01 
    4.9238829758181357E-01 
    4.9287415002850959E-01 
    4.9411232745044070E-01 
    4.9611530521027125E-01 
    4.9846124909576411E-01 
    5.0028502271835151E-01 
    5.0001730502472119E-01 
    4.9442158170771472E-01 
    4.7549553713888221E-01 
    4.1901804285080918E-01 
    2.7857795549375519E-01 
    4.2625780606070751E-01 
    4.2496117429895403E-01 
    4.2386001990263533E-01 
    4.2302370195960298E-01 
    4.2486621559709015E-01 
    4.2716514934524474E-01 
    4.3064549716099648E-01 
    4.3543291160926195E-01 
    4.4291725504197599E-01 
    4.5146500787157973E-01 
    4.6084232676297299E-01 
    4.6975361723424464E-01 
    4.7549553713873149E-01 
    4.7122488261849454E-01 
    4.3711974238818929E-01 
    3.2429823089389431E-01 
    2.9203982923765748E-01 
    2.9045327581768832E-01 
    2.8944394916874078E-01 
    2.8927738280650567E-01 
    2.9335606486367966E-01 
    2.9913702195189967E-01 
    3.0711280628729581E-01 
    3.1760147129423605E-01 
    3.3261672313480428E-01 
    3.5068328696807460E-01 
    3.7191896593240215E-01 
    3.9528146915960305E-01 
    4.1901804285046790E-01 
    4.3711974238804852E-01 
    4.3413342016753853E-01 
    3.6363031785626199E-01 
    6.4051097898108811E-02 
    6.2501659655878644E-02 
    6.1630955049072338E-02 
    6.1719284294748739E-02 
    6.7667965577434777E-02 
    7.4894635986210184E-02 
    8.5424527865822233E-02 
    1.0095928270440467E-01 
    1.2616980330922473E-01 
    1.5746735625908559E-01 
    1.9395646347075149E-01 
    2.3414525134345959E-01 
    2.7857795549339964E-01 
    3.2429823089385912E-01 
    3.6363031785623084E-01 
    3.6262296000092947E-01 
