# vtk DataFile Version 2.0
Pressure Field Data 
ASCII 
DATASET UNSTRUCTURED_GRID 

POINTS 289 double 

    0.0000000000000000E+00     0.0000000000000000E+00     0.0000000000000000E+00 
    1.0000000000000000E+00     0.0000000000000000E+00     0.0000000000000000E+00 
    1.0000000000000000E+00     1.0000000000000000E+00     0.0000000000000000E+00 
    0.0000000000000000E+00     1.0000000000000000E+00     0.0000000000000000E+00 
    6.2499999999872928E-02     0.0000000000000000E+00     0.0000000000000000E+00 
    1.2499999999977310E-01     0.0000000000000000E+00     0.0000000000000000E+00 
    1.8749999999959341E-01     0.0000000000000000E+00     0.0000000000000000E+00 
    2.4999999999941089E-01     0.0000000000000000E+00     0.0000000000000000E+00 
    3.1249999999922851E-01     0.0000000000000000E+00     0.0000000000000000E+00 
    3.7499999999904610E-01     0.0000000000000000E+00     0.0000000000000000E+00 
    4.3749999999886358E-01     0.0000000000000000E+00     0.0000000000000000E+00 
    4.9999999999869210E-01     0.0000000000000000E+00     0.0000000000000000E+00 
    5.6249999999884603E-01     0.0000000000000000E+00     0.0000000000000000E+00 
    6.2499999999901090E-01     0.0000000000000000E+00     0.0000000000000000E+00 
    6.8749999999917577E-01     0.0000000000000000E+00     0.0000000000000000E+00 
    7.4999999999934064E-01     0.0000000000000000E+00     0.0000000000000000E+00 
    8.1249999999950551E-01     0.0000000000000000E+00     0.0000000000000000E+00 
    8.7499999999967026E-01     0.0000000000000000E+00     0.0000000000000000E+00 
    9.3749999999983513E-01     0.0000000000000000E+00     0.0000000000000000E+00 
    1.0000000000000000E+00     6.2499999999872928E-02     0.0000000000000000E+00 
    1.0000000000000000E+00     1.2499999999977310E-01     0.0000000000000000E+00 
    1.0000000000000000E+00     1.8749999999959341E-01     0.0000000000000000E+00 
    1.0000000000000000E+00     2.4999999999941089E-01     0.0000000000000000E+00 
    1.0000000000000000E+00     3.1249999999922851E-01     0.0000000000000000E+00 
    1.0000000000000000E+00     3.7499999999904610E-01     0.0000000000000000E+00 
    1.0000000000000000E+00     4.3749999999886358E-01     0.0000000000000000E+00 
    1.0000000000000000E+00     4.9999999999869210E-01     0.0000000000000000E+00 
    1.0000000000000000E+00     5.6249999999884603E-01     0.0000000000000000E+00 
    1.0000000000000000E+00     6.2499999999901090E-01     0.0000000000000000E+00 
    1.0000000000000000E+00     6.8749999999917577E-01     0.0000000000000000E+00 
    1.0000000000000000E+00     7.4999999999934064E-01     0.0000000000000000E+00 
    1.0000000000000000E+00     8.1249999999950551E-01     0.0000000000000000E+00 
    1.0000000000000000E+00     8.7499999999967026E-01     0.0000000000000000E+00 
    1.0000000000000000E+00     9.3749999999983513E-01     0.0000000000000000E+00 
    9.3749999999973976E-01     1.0000000000000000E+00     0.0000000000000000E+00 
    8.7499999999950118E-01     1.0000000000000000E+00     0.0000000000000000E+00 
    8.1249999999991318E-01     1.0000000000000000E+00     0.0000000000000000E+00 
    7.5000000000034706E-01     1.0000000000000000E+00     0.0000000000000000E+00 
    6.8750000000078049E-01     1.0000000000000000E+00     0.0000000000000000E+00 
    6.2500000000121403E-01     1.0000000000000000E+00     0.0000000000000000E+00 
    5.6250000000164757E-01     1.0000000000000000E+00     0.0000000000000000E+00 
    5.0000000000205946E-01     1.0000000000000000E+00     0.0000000000000000E+00 
    4.3750000000182099E-01     1.0000000000000000E+00     0.0000000000000000E+00 
    3.7500000000156092E-01     1.0000000000000000E+00     0.0000000000000000E+00 
    3.1250000000130068E-01     1.0000000000000000E+00     0.0000000000000000E+00 
    2.5000000000104050E-01     1.0000000000000000E+00     0.0000000000000000E+00 
    1.8750000000078040E-01     1.0000000000000000E+00     0.0000000000000000E+00 
    1.2500000000052031E-01     1.0000000000000000E+00     0.0000000000000000E+00 
    6.2500000000260125E-02     1.0000000000000000E+00     0.0000000000000000E+00 
    0.0000000000000000E+00     9.3749999999973976E-01     0.0000000000000000E+00 
    0.0000000000000000E+00     8.7499999999950118E-01     0.0000000000000000E+00 
    0.0000000000000000E+00     8.1249999999991318E-01     0.0000000000000000E+00 
    0.0000000000000000E+00     7.5000000000034706E-01     0.0000000000000000E+00 
    0.0000000000000000E+00     6.8750000000078049E-01     0.0000000000000000E+00 
    0.0000000000000000E+00     6.2500000000121403E-01     0.0000000000000000E+00 
    0.0000000000000000E+00     5.6250000000164757E-01     0.0000000000000000E+00 
    0.0000000000000000E+00     5.0000000000205946E-01     0.0000000000000000E+00 
    0.0000000000000000E+00     4.3750000000182099E-01     0.0000000000000000E+00 
    0.0000000000000000E+00     3.7500000000156092E-01     0.0000000000000000E+00 
    0.0000000000000000E+00     3.1250000000130068E-01     0.0000000000000000E+00 
    0.0000000000000000E+00     2.5000000000104050E-01     0.0000000000000000E+00 
    0.0000000000000000E+00     1.8750000000078040E-01     0.0000000000000000E+00 
    0.0000000000000000E+00     1.2500000000052031E-01     0.0000000000000000E+00 
    0.0000000000000000E+00     6.2500000000260125E-02     0.0000000000000000E+00 
    6.2499999999897131E-02     6.2500000000235922E-02     0.0000000000000000E+00 
    6.2499999999921327E-02     1.2500000000047351E-01     0.0000000000000000E+00 
    6.2499999999945530E-02     1.8750000000070621E-01     0.0000000000000000E+00 
    6.2499999999969733E-02     2.5000000000093858E-01     0.0000000000000000E+00 
    6.2499999999993928E-02     3.1250000000117117E-01     0.0000000000000000E+00 
    6.2500000000018124E-02     3.7500000000140382E-01     0.0000000000000000E+00 
    6.2500000000042327E-02     4.3750000000163619E-01     0.0000000000000000E+00 
    6.2500000000066530E-02     5.0000000000184897E-01     0.0000000000000000E+00 
    6.2500000000090733E-02     5.6250000000147260E-01     0.0000000000000000E+00 
    6.2500000000114922E-02     6.2500000000107636E-01     0.0000000000000000E+00 
    6.2500000000139125E-02     6.8750000000068034E-01     0.0000000000000000E+00 
    6.2500000000163328E-02     7.5000000000028411E-01     0.0000000000000000E+00 
    6.2500000000187531E-02     8.1249999999988787E-01     0.0000000000000000E+00 
    6.2500000000211720E-02     8.7499999999951172E-01     0.0000000000000000E+00 
    6.2500000000235922E-02     9.3749999999974565E-01     0.0000000000000000E+00 
    1.2499999999981980E-01     6.2500000000211733E-02     0.0000000000000000E+00 
    1.2499999999986650E-01     1.2500000000042691E-01     0.0000000000000000E+00 
    1.2499999999991319E-01     1.8750000000063199E-01     0.0000000000000000E+00 
    1.2499999999995989E-01     2.5000000000083678E-01     0.0000000000000000E+00 
    1.2500000000000661E-01     3.1250000000104172E-01     0.0000000000000000E+00 
    1.2500000000005329E-01     3.7500000000124661E-01     0.0000000000000000E+00 
    1.2500000000010000E-01     4.3750000000145117E-01     0.0000000000000000E+00 
    1.2500000000014669E-01     5.0000000000163858E-01     0.0000000000000000E+00 
    1.2500000000019340E-01     5.6250000000129741E-01     0.0000000000000000E+00 
    1.2500000000024011E-01     6.2500000000093847E-01     0.0000000000000000E+00 
    1.2500000000028680E-01     6.8750000000057998E-01     0.0000000000000000E+00 
    1.2500000000033351E-01     7.5000000000022127E-01     0.0000000000000000E+00 
    1.2500000000038020E-01     8.1249999999986211E-01     0.0000000000000000E+00 
    1.2500000000042691E-01     8.7499999999952238E-01     0.0000000000000000E+00 
    1.2500000000047359E-01     9.3749999999975164E-01     0.0000000000000000E+00 
    1.8749999999966760E-01     6.2500000000187531E-02     0.0000000000000000E+00 
    1.8749999999974179E-01     1.2500000000038020E-01     0.0000000000000000E+00 
    1.8749999999981601E-01     1.8750000000055780E-01     0.0000000000000000E+00 
    1.8749999999989009E-01     2.5000000000073502E-01     0.0000000000000000E+00 
    1.8749999999996431E-01     3.1250000000091221E-01     0.0000000000000000E+00 
    1.8750000000003850E-01     3.7500000000108941E-01     0.0000000000000000E+00 
    1.8750000000011269E-01     4.3750000000126649E-01     0.0000000000000000E+00 
    1.8750000000018691E-01     5.0000000000142808E-01     0.0000000000000000E+00 
    1.8750000000026110E-01     5.6250000000112244E-01     0.0000000000000000E+00 
    1.8750000000033529E-01     6.2500000000080080E-01     0.0000000000000000E+00 
    1.8750000000040951E-01     6.8750000000047962E-01     0.0000000000000000E+00 
    1.8750000000048361E-01     7.5000000000015843E-01     0.0000000000000000E+00 
    1.8750000000055780E-01     8.1249999999983680E-01     0.0000000000000000E+00 
    1.8750000000063199E-01     8.7499999999953304E-01     0.0000000000000000E+00 
    1.8750000000070621E-01     9.3749999999975764E-01     0.0000000000000000E+00 
    2.4999999999951281E-01     6.2500000000163314E-02     0.0000000000000000E+00 
    2.4999999999961461E-01     1.2500000000033351E-01     0.0000000000000000E+00 
    2.4999999999971650E-01     1.8750000000048361E-01     0.0000000000000000E+00 
    2.4999999999981831E-01     2.5000000000063310E-01     0.0000000000000000E+00 
    2.4999999999992020E-01     3.1250000000078260E-01     0.0000000000000000E+00 
    2.5000000000002198E-01     3.7500000000093209E-01     0.0000000000000000E+00 
    2.5000000000012390E-01     4.3750000000108180E-01     0.0000000000000000E+00 
    2.5000000000022571E-01     5.0000000000121769E-01     0.0000000000000000E+00 
    2.5000000000032763E-01     5.6250000000094724E-01     0.0000000000000000E+00 
    2.5000000000042938E-01     6.2500000000066314E-01     0.0000000000000000E+00 
    2.5000000000053119E-01     6.8750000000037925E-01     0.0000000000000000E+00 
[...]
CELL_DATA 256 
SCALARS Pressure double 1 
LOOKUP_TABLE default 

    2.4507539135032945E+00 
    2.3424832446205750E+00 
    2.2699561014107132E+00 
    2.2142020254678481E+00 
    2.1673487057265444E+00 
    2.1259440870203461E+00 
    2.0883821879823636E+00 
    2.0539205175309245E+00 
    2.0222750541848948E+00 
    1.9934239527869133E+00 
    1.9674849925734175E+00 
    1.9445918689170636E+00 
    1.9246900607241717E+00 
    1.9073166358420497E+00 
    1.8933854737608529E+00 
    1.8862928037340299E+00 
    2.3424832446211594E+00 
    2.2964938414918619E+00 
    2.2462724195000376E+00 
    2.1996466603522409E+00 
    2.1570494101970730E+00 
    2.1178298495454708E+00 
    2.0814433153071064E+00 
    2.0476026764458637E+00 
    2.0162457970579220E+00 
    1.9874721550221628E+00 
    1.9614753775178420E+00 
    1.9384437887159527E+00 
    1.9183601989153936E+00 
    1.9007622323037727E+00 
    1.8866466137762470E+00 
    1.8794707605408660E+00 
    2.2699561014115592E+00 
    2.2462724195004489E+00 
    2.2123285497401541E+00 
    2.1754325338478080E+00 
    2.1384928314652161E+00 
    2.1025682249505699E+00 
    2.0680748660877284E+00 
    2.0352555402406205E+00 
    2.0043530378217658E+00 
    1.9756551535948046E+00 
    1.9494853037992905E+00 
    1.9261311627238962E+00 
    1.9056504451432728E+00 
    1.8875982876269246E+00 
    1.8731108153596694E+00 
    1.8657580959443227E+00 
    2.2142020254688881E+00 
    2.1996466603529448E+00 
    2.1754325338481433E+00 
    2.1460447037936845E+00 
    2.1142720991187902E+00 
    2.0816897066415785E+00 
    2.0492191543342586E+00 
    2.0174803364532941E+00 
    1.9869819881383026E+00 
    1.9582059618156478E+00 
    1.9316296255693599E+00 
    1.9076728722843506E+00 
    1.8865005108859432E+00 
    1.8677244215255095E+00 
    1.8526449912540393E+00 
    1.8449909815310148E+00 
    2.1673487057277536E+00 
    2.1570494101979971E+00 
    2.1384928314658138E+00 
    2.1142720991190713E+00 
    2.0865025217787534E+00 
    2.0566985252043728E+00 
    2.0259325820243999E+00 
    1.9950178693709575E+00 
    1.9646443251588712E+00 
    1.9354580227308125E+00 
    1.9080916032487525E+00 
    1.8831191118968700E+00 
    1.8608419035029591E+00 
    1.8409758846582047E+00 
    1.8249873094852480E+00 
    1.8168506683123415E+00 
    2.1259440870217050E+00 
    2.1178298495465699E+00 
    2.1025682249513751E+00 
    2.0816897066420919E+00 
    2.0566985252046166E+00 
    2.0288648111045049E+00 
    1.9992221500455372E+00 
    1.9686410303710526E+00 
    1.9379108481992136E+00 
    1.9078002976030133E+00 
    1.8790870250786245E+00 
    1.8525133641969906E+00 
    1.8285578709634174E+00 
    1.8070788365024084E+00 
    1.7897154089449674E+00 
    1.7808387847603830E+00 
    2.0883821879838513E+00 
    2.0814433153083476E+00 
    2.0680748660887036E+00 
    2.0492191543349669E+00 
    2.0259325820248555E+00 
    1.9992221500457583E+00 
    1.9700010496857492E+00 
    1.9391117436002525E+00 
    1.9073769501492008E+00 
    1.8756457217275955E+00 
    1.8448252211180336E+00 
    1.8158404288638690E+00 
    1.7894026433747476E+00 
    1.7655754602383340E+00 
    1.7462058342991780E+00 
    1.7362375891753872E+00 
    2.0539205175325153E+00 
    2.0476026764472177E+00 
    2.0352555402417289E+00 
    2.0174803364541614E+00 
    1.9950178693715959E+00 
    1.9686410303714743E+00 
    1.9391117436004643E+00 
    1.9071910114361295E+00 
    1.8736796330585934E+00 
    1.8394624890531137E+00 
    1.8055516419363247E+00 
    1.7730674669496920E+00 
    1.7430155001072698E+00 
    1.7157857428911831E+00 
    1.6935032826046192E+00 
    1.6819380258814711E+00 
    2.0222750541862902E+00 
    2.0162457970591263E+00 
    2.0043530378227841E+00 
    1.9869819881391466E+00 
    1.9646443251595518E+00 
    1.9379108481997402E+00 
    1.9073769501495754E+00 
    1.8736796330588039E+00 
    1.8375430986579693E+00 
    1.7998324283504521E+00 
    1.7616193813048222E+00 
    1.7242126326348561E+00 
    1.6889695626375532E+00 
    1.6567726419757511E+00 
    1.6301607834054650E+00 
    1.6162013631069125E+00 
    1.9934239527879296E+00 
    1.9874721550230550E+00 
    1.9756551535955877E+00 
    1.9582059618163410E+00 
    1.9354580227314315E+00 
    1.9078002976035731E+00 
    1.8756457217280988E+00 
    1.8394624890535494E+00 
    1.7998324283507334E+00 
    1.7575191604468372E+00 
    1.7135677710670818E+00 
    1.6694161157855500E+00 
    1.6268028245496657E+00 
    1.5872796339751247E+00 
    1.5540893637338185E+00 
    1.5363985946526655E+00 
    1.9674849925740951E+00 
    1.9614753775184528E+00 
    1.9494853037998578E+00 
    1.9316296255699146E+00 
    1.9080916032493191E+00 
    1.8790870250792275E+00 
    1.8448252211186871E+00 
    1.8055516419370294E+00 
    1.7616193813054537E+00 
    1.7135677710674493E+00 
    1.6622556773371715E+00 
    1.6090877013630054E+00 
    1.5561046767977202E+00 
    1.5056739573112323E+00 
    1.4622681075256416E+00 
    1.4383707380827737E+00 
    1.9445918689174519E+00 
    1.9384437887163206E+00 
    1.9261311627242783E+00 
    1.9076728722847911E+00 
    1.8831191118974064E+00 
    1.8525133641976612E+00 
    1.8158404288647065E+00 
    1.7730674669507207E+00 
    1.7242126326359175E+00 
    1.6694161157863838E+00 
    1.6090877013634934E+00 
    1.5442481639901808E+00 
    1.4768822425300052E+00 
    1.4100706235281604E+00 
    1.3500927396381226E+00 
    1.3147033456620316E+00 
    1.9246900607243209E+00 
    1.9183601989155621E+00 
    1.9056504451435063E+00 
    1.8865005108862996E+00 
    1.8608419035034920E+00 
    1.8285578709641841E+00 
    1.7894026433758072E+00 
    1.7430155001086785E+00 
    1.6889695626391268E+00 
    1.6268028245510686E+00 
    1.5561046767988262E+00 
    1.4768822425306580E+00 
    1.3901585173158910E+00 
    1.2988138692411164E+00 
    1.2107459585549871E+00 
    1.1517600084417969E+00 
    1.9073166358420119E+00 
    1.9007622323037878E+00 
    1.8875982876270498E+00 
    1.8677244215258173E+00 
    1.8409758846587665E+00 
    1.8070788365033030E+00 
    1.7655754602396492E+00 
    1.7157857428930161E+00 
    1.6567726419779001E+00 
    1.5872796339771760E+00 
    1.5056739573130626E+00 
    1.4100706235296161E+00 
    1.2988138692419791E+00 
    1.1718234728505046E+00 
    1.0354410964283571E+00 
    9.2502688800250255E-01 
    1.8933854737607816E+00 
    1.8866466137762439E+00 
    1.8731108153598044E+00 
    1.8526449912544003E+00 
    1.8249873094859255E+00 
    1.7897154089460627E+00 
    1.7462058343008100E+00 
    1.6935032826069252E+00 
    1.6301607834082152E+00 
    1.5540893637365116E+00 
    1.4622681075281441E+00 
    1.3500927396402724E+00 
    1.2107459585565237E+00 
    1.0354410964288863E+00 
    8.1711129239741254E-01 
    5.8437193092575035E-01 
    1.8862928037339779E+00 
    1.8794707605408911E+00 
    1.8657580959445073E+00 
    1.8449909815314627E+00 
    1.8168506683131609E+00 
    1.7808387847616969E+00 
    1.7362375891773401E+00 
    1.6819380258842340E+00 
    1.6162013631102226E+00 
    1.5363985946559382E+00 
    1.4383707380858699E+00 
    1.3147033456647841E+00 
    1.1517600084438722E+00 
    9.2502688800316435E-01 
    5.8437193092497119E-01 
    0.0000000000000000E+00 

SCALARS Saturarion double 1 
LOOKUP_TABLE default 

    1.0000000000000000E+00 
    9.4378203310197695E-01 
    8.9643063060025685E-01 
    8.4794622238125372E-01 
    8.0026217359296792E-01 
    7.5472450179285921E-01 
    7.1121831221136267E-01 
    6.6944017308227433E-01 
    6.2853496506677053E-01 
    5.8767966281267014E-01 
    5.4492137918736716E-01 
    4.9662861373823508E-01 
    4.3219489980972253E-01 
    3.2377106013786949E-01 
    1.1961940703262178E-01 
    3.6658396667575768E-03 
    9.4378203310227604E-01 
    9.0736829783882245E-01 
    8.6621507555152977E-01 
    8.2344890128592374E-01 
    7.8060596243744396E-01 
    7.3900594344778314E-01 
    6.9866967708711103E-01 
    6.5950502638551922E-01 
    6.2076149387364066E-01 
    5.8166274792799311E-01 
    5.4033330326326301E-01 
    4.9316760719164693E-01 
    4.2933252278924028E-01 
    3.1976618498789211E-01 
    1.1344159302312844E-01 
    3.1130600362041833E-03 
    8.9643063060089667E-01 
    8.6621507555183463E-01 
    8.3089692650650027E-01 
    7.9381418275114890E-01 
    7.5616997145409792E-01 
    7.1900900745420959E-01 
    6.8246566932899944E-01 
    6.4657769631296957E-01 
    6.1069796911179275E-01 
    5.7394290841676754E-01 
    5.3457307917848884E-01 
    4.8898124136544652E-01 
    4.2626419145475025E-01 
    3.1549171613008314E-01 
    1.0703181634713922E-01 
    2.6096092402507396E-03 
    8.4794622238220019E-01 
    8.2344890128656012E-01 
    7.9381418275147608E-01 
    7.6211010771799126E-01 
    7.2955192629368670E-01 
    6.9698678645350320E-01 
    6.6456263379613245E-01 
    6.3220579094651397E-01 
    5.9944529248235556E-01 
    5.6538077029244937E-01 
    5.2837998991020740E-01 
    4.8455841466672805E-01 
    4.2343503238150809E-01 
    3.1092891416620971E-01 
    1.0075224281664953E-01 
    2.1875235492115181E-03 
    8.0026217359426444E-01 
    7.8060596243826497E-01 
    7.5616997145469689E-01 
    7.2955192629391374E-01 
    7.0184654460872442E-01 
    6.7372528958692857E-01 
    6.4534432934892716E-01 
    6.1674668981881398E-01 
    5.8737299949068322E-01 
    5.5650630312251803E-01 
    5.2234535224668610E-01 
    4.8126445491718317E-01 
    4.2161878280890697E-01 
    3.1178964044271501E-01 
    1.0417206265824887E-01 
    2.4752039208068483E-03 
    7.5472450179425121E-01 
    7.3900594344874049E-01 
    7.1900900745495400E-01 
    6.9698678645400225E-01 
    6.7372528958713607E-01 
    6.4991840694614722E-01 
    6.2551084290912096E-01 
    6.0064585183179853E-01 
    5.7468822460357749E-01 
    5.4707843346434581E-01 
    5.1595696084222742E-01 
    4.7771666569698867E-01 
    4.2050848447054506E-01 
    3.1267445380996561E-01 
    1.0572568708688439E-01 
    2.5557593910211919E-03 
    7.1121831221295284E-01 
    6.9866967708838434E-01 
    6.8246566932997133E-01 
    6.6456263379682223E-01 
    6.4534432934933961E-01 
    6.2551084290928149E-01 
    6.0494421298736878E-01 
    5.8381185806705083E-01 
    5.6143710726951057E-01 
    5.3719103233447640E-01 
    5.0931721129507745E-01 
    4.7421237443584618E-01 
    4.2026338289586829E-01 
    3.1491423282294873E-01 
    1.0974966871669080E-01 
    2.8907921119590610E-03 
    6.6944017308408288E-01 
    6.5950502638702613E-01 
    6.4657769631415174E-01 
    6.3220579094737261E-01 
    6.1674668981937897E-01 
    6.0064585183213326E-01 
    5.8381185806721236E-01 
    5.6631369290220346E-01 
    5.4759220921298590E-01 
    5.2690960029282286E-01 
    5.0258637713696097E-01 
    4.7090514565053027E-01 
    4.2109016929024706E-01 
    3.1903614355785376E-01 
    1.1836106366529396E-01 
    3.7437451406493660E-03 
    6.2853496506817719E-01 
    6.2076149387488622E-01 
    6.1069796911277807E-01 
    5.9944529248308420E-01 
    5.8737299949120447E-01 
    5.7468822460392865E-01 
    5.6143710726969609E-01 
    5.4759220921306728E-01 
    5.3268899769937972E-01 
    5.1588518245158588E-01 
    4.9560140095121402E-01 
    4.6831322780304896E-01 
    4.2327496813534377E-01 
    3.2924355222311807E-01 
    1.4134015921761942E-01 
    7.1093186308958441E-03 
    5.8767966281381245E-01 
    5.8166274792896422E-01 
    5.7394290841753814E-01 
    5.6538077029303313E-01 
    5.5650630312296445E-01 
    5.4707843346463370E-01 
    5.3719103233464927E-01 
    5.2690960029292155E-01 
    5.1588518245162152E-01 
    5.0320993282404569E-01 
    4.8736823503258331E-01 
    4.6508845319980818E-01 
    4.2635500311900831E-01 
    3.4201388877811895E-01 
    1.6968166612457686E-01 
    1.3447086311120678E-02 
    5.4492137918819816E-01 
    5.4033330326396789E-01 
    5.3457307917904839E-01 
    5.2837998991063539E-01 
    5.2234535224701484E-01 
    5.1595696084243903E-01 
    5.0931721129520502E-01 
    5.0258637713702470E-01 
    4.9560140095120458E-01 
    4.8736823503255255E-01 
    4.7650798443268333E-01 
    4.6008427219751247E-01 
    4.2918713585417512E-01 
    3.5725958259001778E-01 
    2.0401252318373223E-01 
    2.7231420409418231E-02 
    4.9662861373876960E-01 
    4.9316760719208186E-01 
    4.8898124136578974E-01 
    4.8455841466697425E-01 
    4.8126445491735032E-01 
    4.7771666569707877E-01 
    4.7421237443586506E-01 
    4.7090514565049013E-01 
    4.6831322780294904E-01 
    4.6508845319967823E-01 
    4.6008427219741971E-01 
    4.5073209846963475E-01 
    4.2936758317213719E-01 
    3.7290058030633250E-01 
    2.4237075880164227E-01 
    5.5735314716740474E-02 
    4.3219489980989367E-01 
    4.2933252278936040E-01 
    4.2626419145480970E-01 
    4.2343503238151453E-01 
    4.2161878280884835E-01 
    4.2050848447041983E-01 
    4.2026338289567811E-01 
    4.2109016928998144E-01 
    4.2327496813500709E-01 
    4.2635500311865615E-01 
    4.2918713585386792E-01 
    4.2936758317195001E-01 
    4.2057448747241544E-01 
    3.8394567874749819E-01 
    2.8194198276634524E-01 
    1.0671918679986102E-01 
    3.2377106013751838E-01 
    3.1976618498753834E-01 
    3.1549171612971644E-01 
    3.1092891416581986E-01 
    3.1178964044228480E-01 
    3.1267445380946540E-01 
    3.1491423282234715E-01 
    3.1903614355711502E-01 
    3.2924355222228918E-01 
    3.4201388877727951E-01 
    3.5725958258926793E-01 
    3.7290058030576662E-01 
    3.8394567874720803E-01 
    3.7504881251206645E-01 
    3.1153169602943870E-01 
    1.6846651254152203E-01 
    1.1961940703268692E-01 
    1.1344159302315220E-01 
    1.0703181634712769E-01 
    1.0075224281656459E-01 
    1.0417206265804102E-01 
    1.0572568708650025E-01 
    1.0974966871603804E-01 
    1.1836106366428494E-01 
    1.4134015921624962E-01 
    1.6968166612299393E-01 
    2.0401252318220048E-01 
    2.4237075880035819E-01 
    2.8194198276544941E-01 
    3.1153169602896508E-01 
    3.0360167999854082E-01 
    2.1653897902733071E-01 
    3.6658396667728819E-03 
    3.1130600362134970E-03 
    2.6096092402556384E-03 
    2.1875235492100002E-03 
    2.4752039207954941E-03 
    2.5557593909950821E-03 
    2.8907921119066342E-03 
    3.7437451405467948E-03 
    7.1093186306418902E-03 
    1.3447086310627104E-02 
    2.7231420408553354E-02 
    5.5735314715460518E-02 
    1.0671918679856457E-01 
    1.6846651254077197E-01 
    2.1653897902690211E-01 
    2.1070394413451529E-01 
