# vtk DataFile Version 2.0
Pressure Field Data 
ASCII 
DATASET UNSTRUCTURED_GRID 

POINTS 289 double 

    0.0000000000000000E+00     0.0000000000000000E+00     0.0000000000000000E+00 
    1.0000000000000000E+00     0.0000000000000000E+00     0.0000000000000000E+00 
    1.0000000000000000E+00     1.0000000000000000E+00     0.0000000000000000E+00 
    0.0000000000000000E+00     1.0000000000000000E+00     0.0000000000000000E+00 
    6.2499999999872928E-02     0.0000000000000000E+00     0.0000000000000000E+00 
    1.2499999999977310E-01     0.0000000000000000E+00     0.0000000000000000E+00 
    1.8749999999959341E-01     0.0000000000000000E+00     0.0000000000000000E+00 
    2.4999999999941089E-01     0.0000000000000000E+00     0.0000000000000000E+00 
    3.1249999999922851E-01     0.0000000000000000E+00     0.0000000000000000E+00 
    3.7499999999904610E-01     0.0000000000000000E+00     0.0000000000000000E+00 
    4.3749999999886358E-01     0.0000000000000000E+00     0.0000000000000000E+00 
    4.9999999999869210E-01     0.0000000000000000E+00     0.0000000000000000E+00 
    5.6249999999884603E-01     0.0000000000000000E+00     0.0000000000000000E+00 
    6.2499999999901090E-01     0.0000000000000000E+00     0.0000000000000000E+00 
    6.8749999999917577E-01     0.0000000000000000E+00     0.0000000000000000E+00 
    7.4999999999934064E-01     0.0000000000000000E+00     0.0000000000000000E+00 
    8.1249999999950551E-01     0.0000000000000000E+00     0.0000000000000000E+00 
    8.7499999999967026E-01     0.0000000000000000E+00     0.0000000000000000E+00 
    9.3749999999983513E-01     0.0000000000000000E+00     0.0000000000000000E+00 
    1.0000000000000000E+00     6.2499999999872928E-02     0.0000000000000000E+00 
    1.0000000000000000E+00     1.2499999999977310E-01     0.0000000000000000E+00 
    1.0000000000000000E+00     1.8749999999959341E-01     0.0000000000000000E+00 
    1.0000000000000000E+00     2.4999999999941089E-01     0.0000000000000000E+00 
    1.0000000000000000E+00     3.1249999999922851E-01     0.0000000000000000E+00 
    1.0000000000000000E+00     3.7499999999904610E-01     0.0000000000000000E+00 
    1.0000000000000000E+00     4.3749999999886358E-01     0.0000000000000000E+00 
    1.0000000000000000E+00     4.9999999999869210E-01     0.0000000000000000E+00 
    1.0000000000000000E+00     5.6249999999884603E-01     0.0000000000000000E+00 
    1.0000000000000000E+00     6.2499999999901090E-01     0.0000000000000000E+00 
    1.0000000000000000E+00     6.8749999999917577E-01     0.0000000000000000E+00 
    1.0000000000000000E+00     7.4999999999934064E-01     0.0000000000000000E+00 
    1.0000000000000000E+00     8.1249999999950551E-01     0.0000000000000000E+00 
    1.0000000000000000E+00     8.7499999999967026E-01     0.0000000000000000E+00 
    1.0000000000000000E+00     9.3749999999983513E-01     0.0000000000000000E+00 
    9.3749999999973976E-01     1.0000000000000000E+00     0.0000000000000000E+00 
    8.7499999999950118E-01     1.0000000000000000E+00     0.0000000000000000E+00 
    8.1249999999991318E-01     1.0000000000000000E+00     0.0000000000000000E+00 
    7.5000000000034706E-01     1.0000000000000000E+00     0.0000000000000000E+00 
    6.8750000000078049E-01     1.0000000000000000E+00     0.0000000000000000E+00 
    6.2500000000121403E-01     1.0000000000000000E+00     0.0000000000000000E+00 
    5.6250000000164757E-01     1.0000000000000000E+00     0.0000000000000000E+00 
    5.0000000000205946E-01     1.0000000000000000E+00     0.0000000000000000E+00 
    4.3750000000182099E-01     1.0000000000000000E+00     0.0000000000000000E+00 
    3.7500000000156092E-01     1.0000000000000000E+00     0.0000000000000000E+00 
    3.1250000000130068E-01     1.0000000000000000E+00     0.0000000000000000E+00 
    2.5000000000104050E-01     1.0000000000000000E+00     0.0000000000000000E+00 
    1.8750000000078040E-01     1.0000000000000000E+00     0.0000000000000000E+00 
    1.2500000000052031E-01     1.0000000000000000E+00     0.0000000000000000E+00 
    6.2500000000260125E-02     1.0000000000000000E+00     0.0000000000000000E+00 
    0.0000000000000000E+00     9.3749999999973976E-01     0.0000000000000000E+00 
    0.0000000000000000E+00     8.7499999999950118E-01     0.0000000000000000E+00 
    0.0000000000000000E+00     8.1249999999991318E-01     0.0000000000000000E+00 
    0.0000000000000000E+00     7.5000000000034706E-01     0.0000000000000000E+00 
    0.0000000000000000E+00     6.8750000000078049E-01     0.0000000000000000E+00 
    0.0000000000000000E+00     6.2500000000121403E-01     0.0000000000000000E+00 
    0.0000000000000000E+00     5.6250000000164757E-01     0.0000000000000000E+00 
    0.0000000000000000E+00     5.0000000000205946E-01     0.0000000000000000E+00 
    0.0000000000000000E+00     4.3750000000182099E-01     0.0000000000000000E+00 
    0.0000000000000000E+00     3.7500000000156092E-01     0.0000000000000000E+00 
    0.0000000000000000E+00     3.1250000000130068E-01     0.0000000000000000E+00 
    0.0000000000000000E+00     2.5000000000104050E-01     0.0000000000000000E+00 
    0.0000000000000000E+00     1.8750000000078040E-01     0.0000000000000000E+00 
    0.0000000000000000E+00     1.2500000000052031E-01     0.0000000000000000E+00 
    0.0000000000000000E+00     6.2500000000260125E-02     0.0000000000000000E+00 
    6.2499999999897131E-02     6.2500000000235922E-02     0.0000000000000000E+00 
    6.2499999999921327E-02     1.2500000000047351E-01     0.0000000000000000E+00 
    6.2499999999945530E-02     1.8750000000070621E-01     0.0000000000000000E+00 
    6.2499999999969733E-02     2.5000000000093858E-01     0.0000000000000000E+00 
    6.2499999999993928E-02     3.1250000000117117E-01     0.0000000000000000E+00 
    6.2500000000018124E-02     3.7500000000140382E-01     0.0000000000000000E+00 
    6.2500000000042327E-02     4.3750000000163619E-01     0.0000000000000000E+00 
    6.2500000000066530E-02     5.0000000000184897E-01     0.0000000000000000E+00 
    6.2500000000090733E-02     5.6250000000147260E-01     0.0000000000000000E+00 
    6.2500000000114922E-02     6.2500000000107636E-01     0.0000000000000000E+00 
    6.2500000000139125E-02     6.8750000000068034E-01     0.0000000000000000E+00 
    6.2500000000163328E-02     7.5000000000028411E-01     0.0000000000000000E+00 
    6.2500000000187531E-02     8.1249999999988787E-01     0.0000000000000000E+00 
    6.2500000000211720E-02     8.7499999999951172E-01     0.0000000000000000E+00 
    6.2500000000235922E-02     9.3749999999974565E-01     0.0000000000000000E+00 
    1.2499999999981980E-01     6.2500000000211733E-02     0.0000000000000000E+00 
    1.2499999999986650E-01     1.2500000000042691E-01     0.0000000000000000E+00 
    1.2499999999991319E-01     1.8750000000063199E-01     0.0000000000000000E+00 
    1.2499999999995989E-01     2.5000000000083678E-01     0.0000000000000000E+00 
    1.2500000000000661E-01     3.1250000000104172E-01     0.0000000000000000E+00 
    1.2500000000005329E-01     3.7500000000124661E-01     0.0000000000000000E+00 
    1.2500000000010000E-01     4.3750000000145117E-01     0.0000000000000000E+00 
    1.2500000000014669E-01     5.0000000000163858E-01     0.0000000000000000E+00 
    1.2500000000019340E-01     5.6250000000129741E-01     0.0000000000000000E+00 
    1.2500000000024011E-01     6.2500000000093847E-01     0.0000000000000000E+00 
    1.2500000000028680E-01     6.8750000000057998E-01     0.0000000000000000E+00 
    1.2500000000033351E-01     7.5000000000022127E-01     0.0000000000000000E+00 
    1.2500000000038020E-01     8.1249999999986211E-01     0.0000000000000000E+00 
    1.2500000000042691E-01     8.7499999999952238E-01     0.0000000000000000E+00 
    1.2500000000047359E-01     9.3749999999975164E-01     0.0000000000000000E+00 
    1.8749999999966760E-01     6.2500000000187531E-02     0.0000000000000000E+00 
    1.8749999999974179E-01     1.2500000000038020E-01     0.0000000000000000E+00 
    1.8749999999981601E-01     1.8750000000055780E-01     0.0000000000000000E+00 
    1.8749999999989009E-01     2.5000000000073502E-01     0.0000000000000000E+00 
    1.8749999999996431E-01     3.1250000000091221E-01     0.0000000000000000E+00 
    1.8750000000003850E-01     3.7500000000108941E-01     0.0000000000000000E+00 
    1.8750000000011269E-01     4.3750000000126649E-01     0.0000000000000000E+00 
    1.8750000000018691E-01     5.0000000000142808E-01     0.0000000000000000E+00 
    1.8750000000026110E-01     5.6250000000112244E-01     0.0000000000000000E+00 
    1.8750000000033529E-01     6.2500000000080080E-01     0.0000000000000000E+00 
    1.8750000000040951E-01     6.8750000000047962E-01     0.0000000000000000E+00 
    1.8750000000048361E-01     7.5000000000015843E-01     0.0000000000000000E+00 
    1.8750000000055780E-01     8.1249999999983680E-01     0.0000000000000000E+00 
    1.8750000000063199E-01     8.7499999999953304E-01     0.0000000000000000E+00 
    1.8750000000070621E-01     9.3749999999975764E-01     0.0000000000000000E+00 
    2.4999999999951281E-01     6.2500000000163314E-02     0.0000000000000000E+00 
    2.4999999999961461E-01     1.2500000000033351E-01     0.0000000000000000E+00 
    2.4999999999971650E-01     1.8750000000048361E-01     0.0000000000000000E+00 
    2.4999999999981831E-01     2.5000000000063310E-01     0.0000000000000000E+00 
    2.4999999999992020E-01     3.1250000000078260E-01     0.0000000000000000E+00 
    2.5000000000002198E-01     3.7500000000093209E-01     0.0000000000000000E+00 
    2.5000000000012390E-01     4.3750000000108180E-01     0.0000000000000000E+00 
    2.5000000000022571E-01     5.0000000000121769E-01     0.0000000000000000E+00 
    2.5000000000032763E-01     5.6250000000094724E-01     0.0000000000000000E+00 
    2.5000000000042938E-01     6.2500000000066314E-01     0.0000000000000000E+00 
    2.5000000000053119E-01     6.8750000000037925E-01     0.0000000000000000E+00 
[...]
CELL_DATA 256 
SCALARS Pressure double 1 
LOOKUP_TABLE default 

    2.4569348182492230E+00 
    2.3486405188644497E+00 
    2.2760782734082530E+00 
    2.2202843419312819E+00 
    2.1733878267746567E+00 
    2.1319375309854181E+00 
    2.0943281358123822E+00 
    2.0598176562289217E+00 
    2.0281224572461114E+00 
    1.9992208851641706E+00 
    1.9732304321946526E+00 
    1.9502831409175450E+00 
    1.9303190902955956E+00 
    1.9128663652962743E+00 
    1.8988878666012592E+00 
    1.8917839369964022E+00 
    2.3486405188650332E+00 
    2.3026325800006413E+00 
    2.2523803744317057E+00 
    2.2057172677097077E+00 
    2.1630783345695721E+00 
    2.1238140276119761E+00 
    2.0873805443823912E+00 
    2.0534913680251803E+00 
    2.0220848163656591E+00 
    1.9932605959456089E+00 
    1.9672120554045895E+00 
    1.9441258081409409E+00 
    1.9239789359868367E+00 
    1.9062992771182414E+00 
    1.8921356474271747E+00 
    1.8849487206684725E+00 
    2.2760782734090981E+00 
    2.2523803744321174E+00 
    2.2184106142251072E+00 
    2.1814808214601280E+00 
    2.1445018871048571E+00 
    2.1085341408493314E+00 
    2.0739947971075403E+00 
    2.0411273986436353E+00 
    2.0101752886872788E+00 
    1.9814265509252602E+00 
    1.9552043402585537E+00 
    1.9317945164015715E+00 
    1.9112485390344283E+00 
    1.8931104983994480E+00 
    1.8785735646793260E+00 
    1.8712097461220680E+00 
    2.2202843419323233E+00 
    2.2057172677104124E+00 
    2.1814808214604637E+00 
    2.1520624558766155E+00 
    2.1202531298804987E+00 
    2.0876293446355532E+00 
    2.0551138562489859E+00 
    2.0233274040366744E+00 
    1.9927793518653056E+00 
    1.9639518988897227E+00 
    1.9373221733002359E+00 
    1.9133081472062494E+00 
    1.8920677203393936E+00 
    1.8732003297488480E+00 
    1.8580688445513351E+00 
    1.8504029273624165E+00 
    2.1733878267758651E+00 
    2.1630783345704954E+00 
    2.1445018871054549E+00 
    2.1202531298807803E+00 
    2.0924489244322086E+00 
    2.0626050214582712E+00 
    2.0317949681177399E+00 
    2.0008328007029608E+00 
    1.9704091234199999E+00 
    1.9411704023073790E+00 
    1.9137490605259955E+00 
    1.8887171163703365E+00 
    1.8663681794252853E+00 
    1.8464038804049570E+00 
    1.8303586920281205E+00 
    1.8222085016340932E+00 
    2.1319375309867756E+00 
    2.1238140276130739E+00 
    2.1085341408501357E+00 
    2.0876293446360652E+00 
    2.0626050214585137E+00 
    2.0347323917915654E+00 
    2.0050459977117887E+00 
    1.9744171453093178E+00 
    1.9436359036510704E+00 
    1.9134713944416457E+00 
    1.8847010755994835E+00 
    1.8580651176377736E+00 
    1.8340333378349878E+00 
    1.8124468568403334E+00 
    1.7950196781325243E+00 
    1.7861267788426300E+00 
    2.0943281358138690E+00 
    2.0873805443836311E+00 
    2.0739947971085120E+00 
    2.0551138562496907E+00 
    2.0317949681181928E+00 
    2.0050459977120076E+00 
    1.9757809455190092E+00 
    1.9448430085600017E+00 
    1.9130555540590697E+00 
    1.8812680822498220E+00 
    1.8503876115717255E+00 
    1.8213368381649850E+00 
    1.7948173639515801E+00 
    1.7708719034954701E+00 
    1.7514283246912774E+00 
    1.7414381021451111E+00 
    2.0598176562305106E+00 
    2.0534913680265321E+00 
    2.0411273986447407E+00 
    2.0233274040375391E+00 
    2.0008328007035963E+00 
    1.9744171453097381E+00 
    1.9448430085602133E+00 
    1.9128720105521606E+00 
    1.8793055406125612E+00 
    1.8450289208185027E+00 
    1.8110541122325261E+00 
    1.7784991836543889E+00 
    1.7483592012739162E+00 
    1.7209997340567516E+00 
    1.6986279129654429E+00 
    1.6870287717754231E+00 
    2.0281224572475032E+00 
    2.0220848163668608E+00 
    2.0101752886882949E+00 
    1.9927793518661470E+00 
    1.9704091234206784E+00 
    1.9436359036515960E+00 
    1.9130555540594438E+00 
    1.8793055406127719E+00 
    1.8431105622596189E+00 
    1.8053361034140825E+00 
    1.7670538321910469E+00 
    1.7295701721954746E+00 
    1.6942313516784160E+00 
    1.6618918796340665E+00 
    1.6351650464981569E+00 
    1.6211521308104233E+00 
    1.9992208851651845E+00 
    1.9932605959464993E+00 
    1.9814265509260411E+00 
    1.9639518988904132E+00 
    1.9411704023079979E+00 
    1.9134713944422050E+00 
    1.8812680822503240E+00 
    1.8450289208189392E+00 
    1.8053361034143636E+00 
    1.7629535740555717E+00 
    1.7189262723208276E+00 
    1.6746898463702664E+00 
    1.6319711795534271E+00 
    1.5922895883707395E+00 
    1.5589442409283716E+00 
    1.5411749786982913E+00 
    1.9732304321953296E+00 
    1.9672120554051991E+00 
    1.9552043402591202E+00 
    1.9373221733007899E+00 
    1.9137490605265624E+00 
    1.8847010756000866E+00 
    1.8503876115723796E+00 
    1.8110541122332329E+00 
    1.7670538321916782E+00 
    1.7189262723211947E+00 
    1.6675299672192494E+00 
    1.6142673218546038E+00 
    1.5611672596893325E+00 
    1.5105604440595737E+00 
    1.4669494473713462E+00 
    1.4429553611393930E+00 
    1.9502831409179322E+00 
    1.9441258081413082E+00 
    1.9317945164019539E+00 
    1.9133081472066884E+00 
    1.8887171163708734E+00 
    1.8580651176384442E+00 
    1.8213368381658235E+00 
    1.7784991836554185E+00 
    1.7295701721965364E+00 
    1.6746898463711009E+00 
    1.6142673218550920E+00 
    1.5493210058467857E+00 
    1.4818238585754162E+00 
    1.4148181930514754E+00 
    1.3545929679888489E+00 
    1.3191320466725525E+00 
    1.9303190902957421E+00 
    1.9239789359870028E+00 
    1.9112485390346612E+00 
    1.8920677203397491E+00 
    1.8663681794258193E+00 
    1.8340333378357552E+00 
    1.7948173639526410E+00 
    1.7483592012753257E+00 
    1.6942313516799907E+00 
    1.6319711795548304E+00 
    1.5611672596904385E+00 
    1.4818238585760688E+00 
    1.3949507156964349E+00 
    1.3033883874704502E+00 
    1.2150412355232632E+00 
    1.1560648614871105E+00 
    1.9128663652962326E+00 
    1.9062992771182523E+00 
    1.8931104983995699E+00 
    1.8732003297491548E+00 
    1.8464038804055192E+00 
    1.8124468568412269E+00 
    1.7708719034967855E+00 
    1.7209997340585854E+00 
    1.6618918796362161E+00 
    1.5922895883727910E+00 
    1.5105604440614033E+00 
    1.4148181930529298E+00 
    1.3033883874713115E+00 
    1.1761283716908804E+00 
    1.0393596003728014E+00 
    9.2890963608911759E-01 
    1.8988878666011826E+00 
    1.8921356474271669E+00 
    1.8785735646794568E+00 
    1.8580688445516942E+00 
    1.8303586920287986E+00 
    1.7950196781336201E+00 
    1.7514283246929101E+00 
    1.6986279129677502E+00 
    1.6351650465009093E+00 
    1.5589442409310672E+00 
    1.4669494473738498E+00 
    1.3545929679909969E+00 
    1.2150412355247973E+00 
    1.0393596003733288E+00 
    8.2030045866063084E-01 
    5.8692092236921800E-01 
    1.8917839369963456E+00 
    1.8849487206684936E+00 
    1.8712097461222494E+00 
    1.8504029273628639E+00 
    1.8222085016349134E+00 
    1.7861267788439446E+00 
    1.7414381021470655E+00 
    1.6870287717781880E+00 
    1.6211521308137380E+00 
    1.5411749787015692E+00 
    1.4429553611424917E+00 
    1.3191320466753025E+00 
    1.1560648614891829E+00 
    9.2890963608978028E-01 
    5.8692092236844073E-01 
    0.0000000000000000E+00 

SCALARS Saturarion double 1 
LOOKUP_TABLE default 

    1.0000000000000000E+00 
    9.4362769056625351E-01 
    8.9617363766060854E-01 
    8.4760514654101970E-01 
    7.9985427649400376E-01 
    7.5426443325916270E-01 
    7.1071590879758084E-01 
    6.6890155642363514E-01 
    6.2796200264657309E-01 
    5.8706920745211000E-01 
    5.4425863488087678E-01 
    4.9586641067992693E-01 
    4.3117288677188076E-01 
    3.2197976340206680E-01 
    1.1712989605342063E-01 
    3.4358858807466463E-03 
    9.4362769056655926E-01 
    9.0713247033963740E-01 
    8.6590220417672692E-01 
    8.2307036034226333E-01 
    7.8017283050482600E-01 
    7.3852841577627182E-01 
    6.9815463563082458E-01 
    6.5895671632196628E-01 
    6.2018046648936187E-01 
    5.8104476509656910E-01 
    5.3966239335024702E-01 
    4.9239414964373951E-01 
    4.2828635560255907E-01 
    3.1789826485892930E-01 
    1.1091002672725546E-01 
    2.9054763125300905E-03 
    8.9617363766124714E-01 
    8.6590220417703256E-01 
    8.3052769782558344E-01 
    7.9339533907043325E-01 
    7.5570814154939125E-01 
    7.1851046115299788E-01 
    6.8193457625131559E-01 
    6.4601645465163771E-01 
    6.1010587599139698E-01 
    5.7331443231625356E-01 
    5.3389098913052335E-01 
    4.8819312630968298E-01 
    4.2518957673171126E-01 
    3.1352776332869964E-01 
    1.0444087684771451E-01 
    2.4223660257559508E-03 
    8.4760514654196772E-01 
    8.2307036034290171E-01 
    7.9339533907076276E-01 
    7.6165406365419652E-01 
    7.2906230997134758E-01 
    6.9646707580303746E-01 
    6.6401491563866932E-01 
    6.3163060536492344E-01 
    5.9884074838936319E-01 
    5.6474036470162292E-01 
    5.2768554100047604E-01 
    4.8375359005267571E-01 
    4.2233006189922007E-01 
    3.0884587393204860E-01 
    9.8083655073329931E-02 
    2.0171342793246548E-03 
    7.9985427649530949E-01 
    7.8017283050565123E-01 
    7.5570814154998989E-01 
    7.2906230997156884E-01 
    7.0133064002863221E-01 
    6.7318443802740147E-01 
    6.4477893689408705E-01 
    6.1615621501317464E-01 
    5.8675455818248046E-01 
    5.5585309408059602E-01 
    5.2163874287978729E-01 
    4.8044810763670814E-01 
    4.2048531423342167E-01 
    3.0965775777205712E-01 
    1.0138609704945717E-01 
    2.2769465555798054E-03 
    7.5426443326055514E-01 
    7.3852841577723249E-01 
    7.1851046115373951E-01 
    6.9646707580353628E-01 
    6.7318443802760919E-01 
    6.4935660400227602E-01 
    6.2492715906683260E-01 
    6.0003887950682155E-01 
    5.7405417483023247E-01 
    5.4641013754495849E-01 
    5.1523509811043799E-01 
    4.7688335125597647E-01 
    4.1934418834000370E-01 
    3.1046162151952617E-01 
    1.0271150306650632E-01 
    2.3357559296410908E-03 
    7.1071590879917168E-01 
    6.9815463563210178E-01 
    6.8193457625229226E-01 
    6.6401491563936010E-01 
    6.4477893689449828E-01 
    6.2492715906699381E-01 
    6.0434052641591063E-01 
    5.8318627090885999E-01 
    5.6078536344531171E-01 
    5.3650543005954932E-01 
    5.0857793699521670E-01 
    4.7335957231549608E-01 
    4.1906993713550872E-01 
    3.1261104224202191E-01 
    1.0648367028799596E-01 
    2.6279318050038106E-03 
    6.6890155642544702E-01 
    6.5895671632347541E-01 
    6.4601645465282387E-01 
    6.3163060536577986E-01 
    6.1615621501374107E-01 
    6.0003887950715651E-01 
    5.8318627090902153E-01 
    5.6566713571590022E-01 
    5.4692043690058922E-01 
    5.2620479644932261E-01 
    5.0182886234433588E-01 
    4.7003243500502756E-01 
    4.1987477068809187E-01 
    3.1665448994639894E-01 
    1.1479914119369054E-01 
    3.3912954881973362E-03 
    6.2796200264799407E-01 
    6.2018046649060488E-01 
    6.1010587599238331E-01 
    5.9884074839009138E-01 
    5.8675455818300304E-01 
    5.7405417483058241E-01 
    5.6078536344549879E-01 
    5.4692043690066994E-01 
    5.3199344116425928E-01 
    5.1515847725613895E-01 
    4.9482563623824805E-01 
    4.6742919334057231E-01 
    4.2205329794212004E-01 
    3.2690009102438594E-01 
    1.3764730470138070E-01 
    6.4845673390292041E-03 
    5.8706920745325297E-01 
    5.8104476509754088E-01 
    5.7331443231702395E-01 
    5.6474036470220690E-01 
    5.5585309408104322E-01 
    5.4641013754525058E-01 
    5.3650543005972273E-01 
    5.2620479644941975E-01 
    5.1515847725617647E-01 
    5.0245460435667422E-01 
    4.8656842457246857E-01 
    4.6419073926531612E-01 
    4.2514180879104646E-01 
    3.3975701093065863E-01 
    1.6584753328685570E-01 
    1.2323079512473564E-02 
    5.4425863488170689E-01 
    5.3966239335095201E-01 
    5.3389098913108002E-01 
    5.2768554100090448E-01 
    5.2163874288011280E-01 
    5.1523509811064960E-01 
    5.0857793699534526E-01 
    5.0182886234440027E-01 
    4.9482563623823955E-01 
    4.8656842457243737E-01 
    4.7567067404061281E-01 
    4.5916418525306907E-01 
    4.2799106803661885E-01 
    3.5513107252502041E-01 
    2.0024088646508359E-01 
    2.5154211620420024E-02 
    4.9586641068046355E-01 
    4.9239414964417327E-01 
    4.8819312631002548E-01 
    4.8375359005292218E-01 
    4.8044810763687468E-01 
    4.7688335125606857E-01 
    4.7335957231551423E-01 
    4.7003243500498809E-01 
    4.6742919334047328E-01 
    4.6419073926518623E-01 
    4.5916418525297553E-01 
    4.4975543482642921E-01 
    4.2817437174799039E-01 
    3.7092104296287048E-01 
    2.3882799169530539E-01 
    5.2030236675590431E-02 
    4.3117288677205196E-01 
    4.2828635560268014E-01 
    4.2518957673177094E-01 
    4.2233006189922656E-01 
    4.2048531423336322E-01 
    4.1934418833987924E-01 
    4.1906993713531893E-01 
    4.1987477068782603E-01 
    4.2205329794178231E-01 
    4.2514180879069202E-01 
    4.2799106803630915E-01 
    4.2817437174780165E-01 
    4.1926960343382330E-01 
    3.8207106247756484E-01 
    2.7867298935592838E-01 
    1.0117734627153631E-01 
    3.2197976340171836E-01 
    3.1789826485857803E-01 
    3.1352776332833582E-01 
    3.0884587393166102E-01 
    3.0965775777162724E-01 
    3.1046162151902568E-01 
    3.1261104224141856E-01 
    3.1665448994565498E-01 
    3.2690009102354955E-01 
    3.3975701092980992E-01 
    3.5513107252426013E-01 
    3.7092104296229472E-01 
    3.8207106247726835E-01 
    3.7296470411138072E-01 
    3.0841882646209340E-01 
    1.6236977832847629E-01 
    1.1712989605349031E-01 
    1.1091002672728317E-01 
    1.0444087684770666E-01 
    9.8083655073248829E-02 
    1.0138609704925360E-01 
    1.0271150306612793E-01 
    1.0648367028735056E-01 
    1.1479914119268970E-01 
    1.3764730470000397E-01 
    1.6584753328524945E-01 
    2.0024088646352012E-01 
    2.3882799169399060E-01 
    2.7867298935500634E-01 
    3.0841882646160118E-01 
    3.0013191106071330E-01 
    2.1070394413474489E-01 
    3.4358858807616204E-03 
    2.9054763125392264E-03 
    2.4223660257608106E-03 
    2.0171342793234019E-03 
    2.2769465555693424E-03 
    2.3357559296170423E-03 
    2.6279318049555276E-03 
    3.3912954881029911E-03 
    6.4845673387925115E-03 
    1.2323079512009252E-02 
    2.5154211619595704E-02 
    5.2030236674345184E-02 
    1.0117734627021852E-01 
    1.6236977832766356E-01 
    2.1070394413429072E-01 
    2.0383630550920773E-01 
