# vtk DataFile Version 2.0
Pressure Field Data 
ASCII 
DATASET UNSTRUCTURED_GRID 

POINTS 289 double 

    0.0000000000000000E+00     0.0000000000000000E+00     0.0000000000000000E+00 
    1.0000000000000000E+00     0.0000000000000000E+00     0.0000000000000000E+00 
    1.0000000000000000E+00     1.0000000000000000E+00     0.0000000000000000E+00 
    0.0000000000000000E+00     1.0000000000000000E+00     0.0000000000000000E+00 
    6.2499999999872928E-02     0.0000000000000000E+00     0.0000000000000000E+00 
    1.2499999999977310E-01     0.0000000000000000E+00     0.0000000000000000E+00 
    1.8749999999959341E-01     0.0000000000000000E+00     0.0000000000000000E+00 
    2.4999999999941089E-01     0.0000000000000000E+00     0.0000000000000000E+00 
    3.1249999999922851E-01     0.0000000000000000E+00     0.0000000000000000E+00 
    3.7499999999904610E-01     0.0000000000000000E+00     0.0000000000000000E+00 
    4.3749999999886358E-01     0.0000000000000000E+00     0.0000000000000000E+00 
    4.9999999999869210E-01     0.0000000000000000E+00     0.0000000000000000E+00 
    5.6249999999884603E-01     0.0000000000000000E+00     0.0000000000000000E+00 
    6.2499999999901090E-01     0.0000000000000000E+00     0.0000000000000000E+00 
    6.8749999999917577E-01     0.0000000000000000E+00     0.0000000000000000E+00 
    7.4999999999934064E-01     0.0000000000000000E+00     0.0000000000000000E+00 
    8.1249999999950551E-01     0.0000000000000000E+00     0.0000000000000000E+00 
    8.7499999999967026E-01     0.0000000000000000E+00     0.0000000000000000E+00 
    9.3749999999983513E-01     0.0000000000000000E+00     0.0000000000000000E+00 
    1.0000000000000000E+00     6.2499999999872928E-02     0.0000000000000000E+00 
    1.0000000000000000E+00     1.2499999999977310E-01     0.0000000000000000E+00 
    1.0000000000000000E+00     1.8749999999959341E-01     0.0000000000000000E+00 
    1.0000000000000000E+00     2.4999999999941089E-01     0.0000000000000000E+00 
    1.0000000000000000E+00     3.1249999999922851E-01     0.0000000000000000E+00 
    1.0000000000000000E+00     3.7499999999904610E-01     0.0000000000000000E+00 
    1.0000000000000000E+00     4.3749999999886358E-01     0.0000000000000000E+00 
    1.0000000000000000E+00     4.9999999999869210E-01     0.0000000000000000E+00 
    1.0000000000000000E+00     5.6249999999884603E-01     0.0000000000000000E+00 
    1.0000000000000000E+00     6.2499999999901090E-01     0.0000000000000000E+00 
    1.0000000000000000E+00     6.8749999999917577E-01     0.0000000000000000E+00 
    1.0000000000000000E+00     7.4999999999934064E-01     0.0000000000000000E+00 
    1.0000000000000000E+00     8.1249999999950551E-01     0.0000000000000000E+00 
    1.0000000000000000E+00     8.7499999999967026E-01     0.0000000000000000E+00 
    1.0000000000000000E+00     9.3749999999983513E-01     0.0000000000000000E+00 
    9.3749999999973976E-01     1.0000000000000000E+00     0.0000000000000000E+00 
    8.7499999999950118E-01     1.0000000000000000E+00     0.0000000000000000E+00 
    8.1249999999991318E-01     1.0000000000000000E+00     0.0000000000000000E+00 
    7.5000000000034706E-01     1.0000000000000000E+00     0.0000000000000000E+00 
    6.8750000000078049E-01     1.0000000000000000E+00     0.0000000000000000E+00 
    6.2500000000121403E-01     1.0000000000000000E+00     0.0000000000000000E+00 
    5.6250000000164757E-01     1.0000000000000000E+00     0.0000000000000000E+00 
    5.0000000000205946E-01     1.0000000000000000E+00     0.0000000000000000E+00 
    4.3750000000182099E-01     1.0000000000000000E+00     0.0000000000000000E+00 
    3.7500000000156092E-01     1.0000000000000000E+00     0.0000000000000000E+00 
    3.1250000000130068E-01     1.0000000000000000E+00     0.0000000000000000E+00 
    2.5000000000104050E-01     1.0000000000000000E+00     0.0000000000000000E+00 
    1.8750000000078040E-01     1.0000000000000000E+00     0.0000000000000000E+00 
    1.2500000000052031E-01     1.0000000000000000E+00     0.0000000000000000E+00 
    6.2500000000260125E-02     1.0000000000000000E+00     0.0000000000000000E+00 
    0.0000000000000000E+00     9.3749999999973976E-01     0.0000000000000000E+00 
    0.0000000000000000E+00     8.7499999999950118E-01     0.0000000000000000E+00 
    0.0000000000000000E+00     8.1249999999991318E-01     0.0000000000000000E+00 
    0.0000000000000000E+00     7.5000000000034706E-01     0.0000000000000000E+00 
    0.0000000000000000E+00     6.8750000000078049E-01     0.0000000000000000E+00 
    0.0000000000000000E+00     6.2500000000121403E-01     0.0000000000000000E+00 
    0.0000000000000000E+00     5.6250000000164757E-01     0.0000000000000000E+00 
    0.0000000000000000E+00     5.0000000000205946E-01     0.0000000000000000E+00 
    0.0000000000000000E+00     4.3750000000182099E-01     0.0000000000000000E+00 
    0.0000000000000000E+00     3.7500000000156092E-01     0.0000000000000000E+00 
    0.0000000000000000E+00     3.1250000000130068E-01     0.0000000000000000E+00 
    0.0000000000000000E+00     2.5000000000104050E-01     0.0000000000000000E+00 
    0.0000000000000000E+00     1.8750000000078040E-01     0.0000000000000000E+00 
    0.0000000000000000E+00     1.2500000000052031E-01     0.0000000000000000E+00 
    0.0000000000000000E+00     6.2500000000260125E-02     0.0000000000000000E+00 
    6.2499999999897131E-02     6.2500000000235922E-02     0.0000000000000000E+00 
    6.2499999999921327E-02     1.2500000000047351E-01     0.0000000000000000E+00 
    6.2499999999945530E-02     1.8750000000070621E-01     0.0000000000000000E+00 
    6.2499999999969733E-02     2.5000000000093858E-01     0.0000000000000000E+00 
    6.2499999999993928E-02     3.1250000000117117E-01     0.0000000000000000E+00 
    6.2500000000018124E-02     3.7500000000140382E-01     0.0000000000000000E+00 
    6.2500000000042327E-02     4.3750000000163619E-01     0.0000000000000000E+00 
    6.2500000000066530E-02     5.0000000000184897E-01     0.0000000000000000E+00 
    6.2500000000090733E-02     5.6250000000147260E-01     0.0000000000000000E+00 
    6.2500000000114922E-02     6.2500000000107636E-01     0.0000000000000000E+00 
    6.2500000000139125E-02     6.8750000000068034E-01     0.0000000000000000E+00 
    6.2500000000163328E-02     7.5000000000028411E-01     0.0000000000000000E+00 
    6.2500000000187531E-02     8.1249999999988787E-01     0.0000000000000000E+00 
    6.2500000000211720E-02     8.7499999999951172E-01     0.0000000000000000E+00 
    6.2500000000235922E-02     9.3749999999974565E-01     0.0000000000000000E+00 
    1.2499999999981980E-01     6.2500000000211733E-02     0.0000000000000000E+00 
    1.2499999999986650E-01     1.2500000000042691E-01     0.0000000000000000E+00 
    1.2499999999991319E-01     1.8750000000063199E-01     0.0000000000000000E+00 
    1.2499999999995989E-01     2.5000000000083678E-01     0.0000000000000000E+00 
    1.2500000000000661E-01     3.1250000000104172E-01     0.0000000000000000E+00 
    1.2500000000005329E-01     3.7500000000124661E-01     0.0000000000000000E+00 
    1.2500000000010000E-01     4.3750000000145117E-01     0.0000000000000000E+00 
    1.2500000000014669E-01     5.0000000000163858E-01     0.0000000000000000E+00 
    1.2500000000019340E-01     5.6250000000129741E-01     0.0000000000000000E+00 
    1.2500000000024011E-01     6.2500000000093847E-01     0.0000000000000000E+00 
    1.2500000000028680E-01     6.8750000000057998E-01     0.0000000000000000E+00 
    1.2500000000033351E-01     7.5000000000022127E-01     0.0000000000000000E+00 
    1.2500000000038020E-01     8.1249999999986211E-01     0.0000000000000000E+00 
    1.2500000000042691E-01     8.7499999999952238E-01     0.0000000000000000E+00 
    1.2500000000047359E-01     9.3749999999975164E-01     0.0000000000000000E+00 
    1.8749999999966760E-01     6.2500000000187531E-02     0.0000000000000000E+00 
    1.8749999999974179E-01     1.2500000000038020E-01     0.0000000000000000E+00 
    1.8749999999981601E-01     1.8750000000055780E-01     0.0000000000000000E+00 
    1.8749999999989009E-01     2.5000000000073502E-01     0.0000000000000000E+00 
    1.8749999999996431E-01     3.1250000000091221E-01     0.0000000000000000E+00 
    1.8750000000003850E-01     3.7500000000108941E-01     0.0000000000000000E+00 
    1.8750000000011269E-01     4.3750000000126649E-01     0.0000000000000000E+00 
    1.8750000000018691E-01     5.0000000000142808E-01     0.0000000000000000E+00 
    1.8750000000026110E-01     5.6250000000112244E-01     0.0000000000000000E+00 
    1.8750000000033529E-01     6.2500000000080080E-01     0.0000000000000000E+00 
    1.8750000000040951E-01     6.8750000000047962E-01     0.0000000000000000E+00 
    1.8750000000048361E-01     7.5000000000015843E-01     0.0000000000000000E+00 
    1.8750000000055780E-01     8.1249999999983680E-01     0.0000000000000000E+00 
    1.8750000000063199E-01     8.7499999999953304E-01     0.0000000000000000E+00 
    1.8750000000070621E-01     9.3749999999975764E-01     0.0000000000000000E+00 
    2.4999999999951281E-01     6.2500000000163314E-02     0.0000000000000000E+00 
    2.4999999999961461E-01     1.2500000000033351E-01     0.0000000000000000E+00 
    2.4999999999971650E-01     1.8750000000048361E-01     0.0000000000000000E+00 
    2.4999999999981831E-01     2.5000000000063310E-01     0.0000000000000000E+00 
    2.4999999999992020E-01     3.1250000000078260E-01     0.0000000000000000E+00 
    2.5000000000002198E-01     3.7500000000093209E-01     0.0000000000000000E+00 
    2.5000000000012390E-01     4.3750000000108180E-01     0.0000000000000000E+00 
    2.5000000000022571E-01     5.0000000000121769E-01     0.0000000000000000E+00 
    2.5000000000032763E-01     5.6250000000094724E-01     0.0000000000000000E+00 
    2.5000000000042938E-01     6.2500000000066314E-01     0.0000000000000000E+00 
    2.5000000000053119E-01     6.8750000000037925E-01     0.0000000000000000E+00 
[...]
CELL_DATA 256 
SCALARS Pressure double 1 
LOOKUP_TABLE default 

    1.7749817564690391E+00 
    1.6697363743410556E+00 
    1.6016543847171361E+00 
    1.5509484402819409E+00 
    1.5095544405457872E+00 
    1.4738871093178534E+00 
    1.4422241089037213E+00 
    1.4137178673007538E+00 
    1.3879841832205042E+00 
    1.3649089995627395E+00 
    1.3445429668012723E+00 
    1.3270308020591881E+00 
    1.3125484669034821E+00 
    1.3012379888384693E+00 
    1.2931018880705729E+00 
    1.2883164077296694E+00 
    1.6697363743416131E+00 
    1.6261081530685091E+00 
    1.5797906976139215E+00 
    1.5379070627456515E+00 
    1.5005933172807702E+00 
    1.4670124787946843E+00 
    1.4364778421880948E+00 
    1.4085824789115862E+00 
    1.3831537715558448E+00 
    1.3601912085445791E+00 
    1.3398146091030056E+00 
    1.3222177936675339E+00 
    1.3076165418499970E+00 
    1.2961844790818500E+00 
    1.2879477131920474E+00 
    1.2830990592772828E+00 
    1.6016543847179150E+00 
    1.5797906976142950E+00 
    1.5491554061560258E+00 
    1.5165774282386937E+00 
    1.4846442574062182E+00 
    1.4541946336847931E+00 
    1.4254767976331730E+00 
    1.3985939057121071E+00 
    1.3736621133404334E+00 
    1.3508552753861689E+00 
    1.3304096307043562E+00 
    1.3126069984200430E+00 
    1.2977380245746142E+00 
    1.2860382393592595E+00 
    1.2775825256027569E+00 
    1.2725976744138949E+00 
    1.5509484402828722E+00 
    1.5379070627462736E+00 
    1.5165774282389854E+00 
    1.4911363390487731E+00 
    1.4641020325498670E+00 
    1.4368341081025238E+00 
    1.4100774686076671E+00 
    1.3842989212087990E+00 
    1.3598656539618519E+00 
    1.3371288092865867E+00 
    1.3164593824356272E+00 
    1.2982519489669313E+00 
    1.2828987821168265E+00 
    1.2707275446571809E+00 
    1.2618933076788574E+00 
    1.2566757510007858E+00 
    1.5095544405468366E+00 
    1.5005933172815642E+00 
    1.4846442574067269E+00 
    1.4641020325501035E+00 
    1.4408717801912916E+00 
    1.4162772185195285E+00 
    1.3912205444911199E+00 
    1.3663576084926872E+00 
    1.3422259541627928E+00 
    1.3193235489980331E+00 
    1.2981527226383414E+00 
    1.2792335694512882E+00 
    1.2630823901143760E+00 
    1.2501526745750218E+00 
    1.2407147282392665E+00 
    1.2351230993777407E+00 
    1.4738871093190031E+00 
    1.4670124787956091E+00 
    1.4541946336854672E+00 
    1.4368341081029490E+00 
    1.4162772185197274E+00 
    1.3936349044785170E+00 
    1.3697862002360215E+00 
    1.3454480017868096E+00 
    1.3212509547039566E+00 
    1.2977990608816736E+00 
    1.2757115553700233E+00 
    1.2556394808821414E+00 
    1.2382483083986189E+00 
    1.2241561850527758E+00 
    1.2137897416775907E+00 
    1.2076138106209275E+00 
    1.4422241089049588E+00 
    1.4364778421891244E+00 
    1.4254767976339762E+00 
    1.4100774686082445E+00 
    1.3912205444914871E+00 
    1.3697862002361982E+00 
    1.3465547025787457E+00 
    1.3222262385377375E+00 
    1.2974644365486578E+00 
    1.2729399677456767E+00 
    1.2493705715484764E+00 
    1.2275415363686470E+00 
    1.2082960288730931E+00 
    1.1924648846894357E+00 
    1.1806966399432766E+00 
    1.1736298591492882E+00 
    1.4137178673020541E+00 
    1.4085824789126902E+00 
    1.3985939057130057E+00 
    1.3842989212094976E+00 
    1.3663576084931970E+00 
    1.3454480017871440E+00 
    1.3222262385379044E+00 
    1.2973308031574322E+00 
    1.2714121928483866E+00 
    1.2451703594963413E+00 
    1.2193986648533002E+00 
    1.1950170672603357E+00 
    1.1730760912564751E+00 
    1.1546862635595148E+00 
    1.1408233453598682E+00 
    1.1324056247584366E+00 
    1.3879841832216262E+00 
    1.3831537715568121E+00 
    1.3736621133412479E+00 
    1.3598656539625229E+00 
    1.3422259541633301E+00 
    1.3212509547043703E+00 
    1.2974644365489505E+00 
    1.2714121928485498E+00 
    1.2436907286329795E+00 
    1.2149877857974170E+00 
    1.1861383471670057E+00 
    1.1581854342273648E+00 
    1.1324142014301486E+00 
    1.1103063997840952E+00 
    1.0933235737667113E+00 
    1.0828434548924106E+00 
    1.3649089995635431E+00 
    1.3601912085452839E+00 
    1.3508552753867857E+00 
    1.3371288092871312E+00 
    1.3193235489985187E+00 
    1.2977990608821088E+00 
    1.2729399677460664E+00 
    1.2451703594966772E+00 
    1.2149877857976314E+00 
    1.1830120086762299E+00 
    1.1500615664022420E+00 
    1.1172603482289165E+00 
    1.0861358549969922E+00 
    1.0586454301169754E+00 
    1.0369745801863219E+00 
    1.0232907599415093E+00 
    1.3445429668017963E+00 
    1.3398146091034777E+00 
    1.3304096307047963E+00 
    1.3164593824360578E+00 
    1.2981527226387832E+00 
    1.2757115553704912E+00 
    1.2493705715489813E+00 
    1.2193986648538413E+00 
    1.1861383471674858E+00 
    1.1500615664025187E+00 
    1.1118691355863903E+00 
    1.0726611840558613E+00 
    1.0341461329369974E+00 
    9.9882959356877987E-01 
    9.6996695274025313E-01 
    9.5114474764222856E-01 
    1.3270308020594794E+00 
    1.3222177936678123E+00 
    1.3126069984203361E+00 
    1.2982519489672713E+00 
    1.2792335694517050E+00 
    1.2556394808826614E+00 
    1.2275415363692930E+00 
    1.1950170672611218E+00 
    1.1581854342281674E+00 
    1.1172603482295400E+00 
    1.0726611840562215E+00 
    1.0252478946527857E+00 
    9.7668314132963463E-01 
    9.2993385555145913E-01 
    8.8970711743118425E-01 
    8.6218196356862631E-01 
    1.3125484669035903E+00 
    1.3076165418501233E+00 
    1.2977380245747951E+00 
    1.2828987821171058E+00 
    1.2630823901147941E+00 
    1.2382483083992162E+00 
    1.2082960288739109E+00 
    1.1730760912575502E+00 
    1.1324142014313348E+00 
    1.0861358549980356E+00 
    1.0341461329378061E+00 
    9.7668314133010303E-01 
    9.1481515267367064E-01 
    8.5139277030473171E-01 
    7.9258167711704797E-01 
    7.4911654852245990E-01 
    1.3012379888384500E+00 
    1.2961844790818728E+00 
    1.2860382393593692E+00 
    1.2707275446574340E+00 
    1.2501526745754721E+00 
    1.2241561850534797E+00 
    1.1924648846904555E+00 
    1.1546862635609154E+00 
    1.1103063997857145E+00 
    1.0586454301184967E+00 
    9.9882959357010892E-01 
    9.2993385555249020E-01 
    8.5139277030532545E-01 
    7.6420230553467527E-01 
    6.7407834393516941E-01 
    5.9799330109640469E-01 
    1.2931018880705363E+00 
    1.2879477131920636E+00 
    1.2775825256028801E+00 
    1.2618933076791570E+00 
    1.2407147282398092E+00 
    1.2137897416784502E+00 
    1.1806966399445367E+00 
    1.1408233453616232E+00 
    1.0933235737687794E+00 
    1.0369745801883166E+00 
    9.6996695274207057E-01 
    8.8970711743270481E-01 
    7.9258167711810312E-01 
    6.7407834393553223E-01 
    5.3134322183991745E-01 
    3.7779739270059798E-01 
    1.2883164077296467E+00 
    1.2830990592773199E+00 
    1.2725976744140555E+00 
    1.2566757510011513E+00 
    1.2351230993783910E+00 
    1.2076138106219521E+00 
    1.1736298591507925E+00 
    1.1324056247605410E+00 
    1.0828434548949128E+00 
    1.0232907599439520E+00 
    9.5114474764449530E-01 
    8.6218196357057397E-01 
    7.4911654852386000E-01 
    5.9799330109683668E-01 
    3.7779739270009133E-01 
    0.0000000000000000E+00 

SCALARS Saturarion double 1 
LOOKUP_TABLE default 

    1.0000000000000000E+00 
    9.6415457711005481E-01 
    9.3135997794702219E-01 
    8.9550439149947070E-01 
    8.5832175382233589E-01 
    8.2125279080759739E-01 
    7.8470107958184010E-01 
    7.4878807107911327E-01 
    7.1314783989013342E-01 
    6.7741945313910867E-01 
    6.4059409894793817E-01 
    6.0123949880051120E-01 
    5.5601096060183519E-01 
    4.9814698593617868E-01 
    4.0469137064770061E-01 
    1.9602613071001027E-01 
    9.6415457711020847E-01 
    9.3922413032343655E-01 
    9.0945248088340502E-01 
    8.7683675430197860E-01 
    8.4272445448525901E-01 
    8.0838380620695649E-01 
    7.7419208685110397E-01 
    7.4034777445658040E-01 
    7.0651559279488252E-01 
    6.7234120215795468E-01 
    6.3686381042149731E-01 
    5.9869527061226735E-01 
    5.5452247692342616E-01 
    4.9745289602036935E-01 
    4.0457047837880195E-01 
    1.9600876608999743E-01 
    9.3135997794750569E-01 
    9.0945248088361141E-01 
    8.8278970391013734E-01 
    8.5358854742887091E-01 
    8.2292199974539992E-01 
    7.9177361873751406E-01 
    7.6049806750943383E-01 
    7.2931754199538490E-01 
    6.9792325459063742E-01 
    6.6584951592960573E-01 
    6.3222109944428784E-01 
    5.9566979348703974E-01 
    5.5298870994198790E-01 
    4.9697213255544370E-01 
    4.0497057149434684E-01 
    1.9715829491790154E-01 
    8.9550439150022820E-01 
    8.7683675430249131E-01 
    8.5358854742911339E-01 
    8.2790044764967963E-01 
    8.0081659242953707E-01 
    7.7313119737226244E-01 
    7.4513451554569288E-01 
    7.1691474553516621E-01 
    6.8824540387937960E-01 
    6.5861530552804548E-01 
    6.2721013910924395E-01 
    5.9251368550694872E-01 
    5.5166416139025976E-01 
    4.9677398398746392E-01 
    4.0605551960934622E-01 
    1.9981884260539778E-01 
    8.5832175382323095E-01 
    8.4272445448600308E-01 
    8.2292199974588831E-01 
    8.0081659242976388E-01 
    7.7735053603741122E-01 
    7.5316606844545730E-01 
    7.2850914432698044E-01 
    7.0350903446675883E-01 
    6.7783758604045119E-01 
    6.5107852705760227E-01 
    6.2225617998817073E-01 
    5.8999095598477358E-01 
    5.5095878024146394E-01 
    4.9838830480374874E-01 
    4.0941743974155997E-01 
    2.0660335939330524E-01 
    8.2125279080875879E-01 
    8.0838380620789907E-01 
    7.9177361873820939E-01 
    7.7313119737267133E-01 
    7.5316606844564782E-01 
    7.3251328248784342E-01 
    7.1123731748684771E-01 
    6.8950963809340815E-01 
    6.6692215244450859E-01 
    6.4314126237620461E-01 
    6.1712199157956482E-01 
    5.8745152102196707E-01 
    5.5079386664572105E-01 
    5.0041623914911693E-01 
    4.1382498304982218E-01 
    2.1579956383703322E-01 
    7.8470107958323743E-01 
    7.7419208685223562E-01 
    7.6049806751029636E-01 
    7.4513451554627896E-01 
    7.2850914432735592E-01 
    7.1123731748701402E-01 
    6.9331697747838494E-01 
    6.7491458000857651E-01 
    6.5557433769494611E-01 
    6.3489150308368292E-01 
    6.1187107759208714E-01 
    5.8505694376110084E-01 
    5.5122064162444462E-01 
    5.0336202982906042E-01 
    4.1974160700997165E-01 
    2.2774033884699083E-01 
    7.4878807108068357E-01 
    7.4034777445788225E-01 
    7.2931754199641030E-01 
    7.1691474553593482E-01 
    7.0350903446728208E-01 
    6.8950963809371957E-01 
    6.7491458000871241E-01 
    6.5980222673018918E-01 
    6.4378383938099726E-01 
    6.2636149022358667E-01 
    6.0656819066561762E-01 
    5.8284775756479623E-01 
    5.5225330260376404E-01 
    5.0730844267003594E-01 
    4.2742908060910023E-01 
    2.4259214649096122E-01 
    7.1314783989137631E-01 
    7.0651559279595499E-01 
    6.9792325459149962E-01 
    6.8824540388001976E-01 
    6.7783758604090205E-01 
    6.6692215244479702E-01 
    6.5557433769509521E-01 
    6.4378383938104733E-01 
    6.3121144367013893E-01 
    6.1727048001690665E-01 
    6.0101313160083181E-01 
    5.8090917438791001E-01 
    5.5386162923825155E-01 
    5.1308813890305094E-01 
    4.3801995990075565E-01 
    2.6170791204170890E-01 
    6.7741945314007956E-01 
    6.7234120215878301E-01 
    6.6584951593024799E-01 
    6.5861530552855352E-01 
    6.5107852705796776E-01 
    6.4314126237645930E-01 
    6.3489150308384412E-01 
    6.2636149022365151E-01 
    6.1727048001691309E-01 
    6.0698543641878111E-01 
    5.9454964602064975E-01 
    5.7845469976426189E-01 
    5.5566863280350387E-01 
    5.1960528230391423E-01 
    4.5065823102988323E-01 
    2.8409101602118070E-01 
    6.4059409894866570E-01 
    6.3686381042212059E-01 
    6.3222109944478544E-01 
    6.2721013910962020E-01 
    6.2225617998843963E-01 
    6.1712199157973224E-01 
    6.1187107759218673E-01 
    6.0656819066565704E-01 
    6.0101313160081282E-01 
    5.9454964602061411E-01 
    5.8626717923076765E-01 
    5.7470085180737807E-01 
    5.5694161200241765E-01 
    5.2661102763566248E-01 
    4.6539236896408459E-01 
    3.1022397567280952E-01 
    6.0123949880098204E-01 
    5.9869527061266081E-01 
    5.9566979348735927E-01 
    5.9251368550718819E-01 
    5.8999095598491680E-01 
    5.8745152102203391E-01 
    5.8505694376111361E-01 
    5.8284775756475804E-01 
    5.8090917438781364E-01 
    5.7845469976414809E-01 
    5.7470085180730257E-01 
    5.6826413372581464E-01 
    5.5639012659136144E-01 
    5.3309563098138302E-01 
    4.8154638003244132E-01 
    3.4000421466741260E-01 
    5.5601096060201594E-01 
    5.5452247692357193E-01 
    5.5298870994207117E-01 
    5.5166416139029784E-01 
    5.5095878024143941E-01 
    5.5079386664564156E-01 
    5.5122064162431195E-01 
    5.5225330260357752E-01 
    5.5386162923802840E-01 
    5.5566863280327505E-01 
    5.5694161200222969E-01 
    5.5639012659124676E-01 
    5.5153909598182582E-01 
    5.3699811839113465E-01 
    4.9779957410085218E-01 
    3.7429931132658711E-01 
    4.9814698593594225E-01 
    4.9745289602012577E-01 
    4.9697213255519357E-01 
    4.9677398398719763E-01 
    4.9838830480345087E-01 
    5.0041623914878686E-01 
    5.0336202982868694E-01 
    5.0730844266960806E-01 
    5.1308813890261351E-01 
    5.1960528230349667E-01 
    5.2661102763531020E-01 
    5.3309563098113344E-01 
    5.3699811839101519E-01 
    5.3352855074937178E-01 
    5.0998488448421875E-01 
    4.1122321527324185E-01 
    4.0469137064754851E-01 
    4.0457047837864596E-01 
    4.0497057149418708E-01 
    4.0605551960916281E-01 
    4.0941743974134165E-01 
    4.1382498304953608E-01 
    4.1974160700960966E-01 
    4.2742908060861767E-01 
    4.3801995990024067E-01 
    4.5065823102936847E-01 
    4.6539236896361336E-01 
    4.8154638003205930E-01 
    4.9779957410060288E-01 
    5.0998488448411339E-01 
    5.0772147011021196E-01 
    4.4494357258520739E-01 
    1.9602613070996433E-01 
    1.9600876608995360E-01 
    1.9715829491785519E-01 
    1.9981884260531813E-01 
    2.0660335939313954E-01 
    2.1579956383674392E-01 
    2.2774033884653341E-01 
    2.4259214649029751E-01 
    2.6170791204103716E-01 
    2.8409101602055759E-01 
    3.1022397567228238E-01 
    3.4000421466702485E-01 
    3.7429931132639926E-01 
    4.1122321527328526E-01 
    4.4494357258522838E-01 
    4.4414926523584386E-01 
