# vtk DataFile Version 2.0
Pressure Field Data 
ASCII 
DATASET UNSTRUCTURED_GRID 

POINTS 289 double 

    0.0000000000000000E+00     0.0000000000000000E+00     0.0000000000000000E+00 
    1.0000000000000000E+00     0.0000000000000000E+00     0.0000000000000000E+00 
    1.0000000000000000E+00     1.0000000000000000E+00     0.0000000000000000E+00 
    0.0000000000000000E+00     1.0000000000000000E+00     0.0000000000000000E+00 
    6.2499999999872928E-02     0.0000000000000000E+00     0.0000000000000000E+00 
    1.2499999999977310E-01     0.0000000000000000E+00     0.0000000000000000E+00 
    1.8749999999959341E-01     0.0000000000000000E+00     0.0000000000000000E+00 
    2.4999999999941089E-01     0.0000000000000000E+00     0.0000000000000000E+00 
    3.1249999999922851E-01     0.0000000000000000E+00     0.0000000000000000E+00 
    3.7499999999904610E-01     0.0000000000000000E+00     0.0000000000000000E+00 
    4.3749999999886358E-01     0.0000000000000000E+00     0.0000000000000000E+00 
    4.9999999999869210E-01     0.0000000000000000E+00     0.0000000000000000E+00 
    5.6249999999884603E-01     0.0000000000000000E+00     0.0000000000000000E+00 
    6.2499999999901090E-01     0.0000000000000000E+00     0.0000000000000000E+00 
    6.8749999999917577E-01     0.0000000000000000E+00     0.0000000000000000E+00 
    7.4999999999934064E-01     0.0000000000000000E+00     0.0000000000000000E+00 
    8.1249999999950551E-01     0.0000000000000000E+00     0.0000000000000000E+00 
    8.7499999999967026E-01     0.0000000000000000E+00     0.0000000000000000E+00 
    9.3749999999983513E-01     0.0000000000000000E+00     0.0000000000000000E+00 
    1.0000000000000000E+00     6.2499999999872928E-02     0.0000000000000000E+00 
    1.0000000000000000E+00     1.2499999999977310E-01     0.0000000000000000E+00 
    1.0000000000000000E+00     1.8749999999959341E-01     0.0000000000000000E+00 
    1.0000000000000000E+00     2.4999999999941089E-01     0.0000000000000000E+00 
    1.0000000000000000E+00     3.1249999999922851E-01     0.0000000000000000E+00 
    1.0000000000000000E+00     3.7499999999904610E-01     0.0000000000000000E+00 
    1.0000000000000000E+00     4.3749999999886358E-01     0.0000000000000000E+00 
    1.0000000000000000E+00     4.9999999999869210E-01     0.0000000000000000E+00 
    1.0000000000000000E+00     5.6249999999884603E-01     0.0000000000000000E+00 
    1.0000000000000000E+00     6.2499999999901090E-01     0.0000000000000000E+00 
    1.0000000000000000E+00     6.8749999999917577E-01     0.0000000000000000E+00 
    1.0000000000000000E+00     7.4999999999934064E-01     0.0000000000000000E+00 
    1.0000000000000000E+00     8.1249999999950551E-01     0.0000000000000000E+00 
    1.0000000000000000E+00     8.7499999999967026E-01     0.0000000000000000E+00 
    1.0000000000000000E+00     9.3749999999983513E-01     0.0000000000000000E+00 
    9.3749999999973976E-01     1.0000000000000000E+00     0.0000000000000000E+00 
    8.7499999999950118E-01     1.0000000000000000E+00     0.0000000000000000E+00 
    8.1249999999991318E-01     1.0000000000000000E+00     0.0000000000000000E+00 
    7.5000000000034706E-01     1.0000000000000000E+00     0.0000000000000000E+00 
    6.8750000000078049E-01     1.0000000000000000E+00     0.0000000000000000E+00 
    6.2500000000121403E-01     1.0000000000000000E+00     0.0000000000000000E+00 
    5.6250000000164757E-01     1.0000000000000000E+00     0.0000000000000000E+00 
    5.0000000000205946E-01     1.0000000000000000E+00     0.0000000000000000E+00 
    4.3750000000182099E-01     1.0000000000000000E+00     0.0000000000000000E+00 
    3.7500000000156092E-01     1.0000000000000000E+00     0.0000000000000000E+00 
    3.1250000000130068E-01     1.0000000000000000E+00     0.0000000000000000E+00 
    2.5000000000104050E-01     1.0000000000000000E+00     0.0000000000000000E+00 
    1.8750000000078040E-01     1.0000000000000000E+00     0.0000000000000000E+00 
    1.2500000000052031E-01     1.0000000000000000E+00     0.0000000000000000E+00 
    6.2500000000260125E-02     1.0000000000000000E+00     0.0000000000000000E+00 
    0.0000000000000000E+00     9.3749999999973976E-01     0.0000000000000000E+00 
    0.0000000000000000E+00     8.7499999999950118E-01     0.0000000000000000E+00 
    0.0000000000000000E+00     8.1249999999991318E-01     0.0000000000000000E+00 
    0.0000000000000000E+00     7.5000000000034706E-01     0.0000000000000000E+00 
    0.0000000000000000E+00     6.8750000000078049E-01     0.0000000000000000E+00 
    0.0000000000000000E+00     6.2500000000121403E-01     0.0000000000000000E+00 
    0.0000000000000000E+00     5.6250000000164757E-01     0.0000000000000000E+00 
    0.0000000000000000E+00     5.0000000000205946E-01     0.0000000000000000E+00 
    0.0000000000000000E+00     4.3750000000182099E-01     0.0000000000000000E+00 
    0.0000000000000000E+00     3.7500000000156092E-01     0.0000000000000000E+00 
    0.0000000000000000E+00     3.1250000000130068E-01     0.0000000000000000E+00 
    0.0000000000000000E+00     2.5000000000104050E-01     0.0000000000000000E+00 
    0.0000000000000000E+00     1.8750000000078040E-01     0.0000000000000000E+00 
    0.0000000000000000E+00     1.2500000000052031E-01     0.0000000000000000E+00 
    0.0000000000000000E+00     6.2500000000260125E-02     0.0000000000000000E+00 
    6.2499999999897131E-02     6.2500000000235922E-02     0.0000000000000000E+00 
    6.2499999999921327E-02     1.2500000000047351E-01     0.0000000000000000E+00 
    6.2499999999945530E-02     1.8750000000070621E-01     0.0000000000000000E+00 
    6.2499999999969733E-02     2.5000000000093858E-01     0.0000000000000000E+00 
    6.2499999999993928E-02     3.1250000000117117E-01     0.0000000000000000E+00 
    6.2500000000018124E-02     3.7500000000140382E-01     0.0000000000000000E+00 
    6.2500000000042327E-02     4.3750000000163619E-01     0.0000000000000000E+00 
    6.2500000000066530E-02     5.0000000000184897E-01     0.0000000000000000E+00 
    6.2500000000090733E-02     5.6250000000147260E-01     0.0000000000000000E+00 
    6.2500000000114922E-02     6.2500000000107636E-01     0.0000000000000000E+00 
    6.2500000000139125E-02     6.8750000000068034E-01     0.0000000000000000E+00 
    6.2500000000163328E-02     7.5000000000028411E-01     0.0000000000000000E+00 
    6.2500000000187531E-02     8.1249999999988787E-01     0.0000000000000000E+00 
    6.2500000000211720E-02     8.7499999999951172E-01     0.0000000000000000E+00 
    6.2500000000235922E-02     9.3749999999974565E-01     0.0000000000000000E+00 
    1.2499999999981980E-01     6.2500000000211733E-02     0.0000000000000000E+00 
    1.2499999999986650E-01     1.2500000000042691E-01     0.0000000000000000E+00 
    1.2499999999991319E-01     1.8750000000063199E-01     0.0000000000000000E+00 
    1.2499999999995989E-01     2.5000000000083678E-01     0.0000000000000000E+00 
    1.2500000000000661E-01     3.1250000000104172E-01     0.0000000000000000E+00 
    1.2500000000005329E-01     3.7500000000124661E-01     0.0000000000000000E+00 
    1.2500000000010000E-01     4.3750000000145117E-01     0.0000000000000000E+00 
    1.2500000000014669E-01     5.0000000000163858E-01     0.0000000000000000E+00 
    1.2500000000019340E-01     5.6250000000129741E-01     0.0000000000000000E+00 
    1.2500000000024011E-01     6.2500000000093847E-01     0.0000000000000000E+00 
    1.2500000000028680E-01     6.8750000000057998E-01     0.0000000000000000E+00 
    1.2500000000033351E-01     7.5000000000022127E-01     0.0000000000000000E+00 
    1.2500000000038020E-01     8.1249999999986211E-01     0.0000000000000000E+00 
    1.2500000000042691E-01     8.7499999999952238E-01     0.0000000000000000E+00 
    1.2500000000047359E-01     9.3749999999975164E-01     0.0000000000000000E+00 
    1.8749999999966760E-01     6.2500000000187531E-02     0.0000000000000000E+00 
    1.8749999999974179E-01     1.2500000000038020E-01     0.0000000000000000E+00 
    1.8749999999981601E-01     1.8750000000055780E-01     0.0000000000000000E+00 
    1.8749999999989009E-01     2.5000000000073502E-01     0.0000000000000000E+00 
    1.8749999999996431E-01     3.1250000000091221E-01     0.0000000000000000E+00 
    1.8750000000003850E-01     3.7500000000108941E-01     0.0000000000000000E+00 
    1.8750000000011269E-01     4.3750000000126649E-01     0.0000000000000000E+00 
    1.8750000000018691E-01     5.0000000000142808E-01     0.0000000000000000E+00 
    1.8750000000026110E-01     5.6250000000112244E-01     0.0000000000000000E+00 
    1.8750000000033529E-01     6.2500000000080080E-01     0.0000000000000000E+00 
    1.8750000000040951E-01     6.8750000000047962E-01     0.0000000000000000E+00 
    1.8750000000048361E-01     7.5000000000015843E-01     0.0000000000000000E+00 
    1.8750000000055780E-01     8.1249999999983680E-01     0.0000000000000000E+00 
    1.8750000000063199E-01     8.7499999999953304E-01     0.0000000000000000E+00 
    1.8750000000070621E-01     9.3749999999975764E-01     0.0000000000000000E+00 
    2.4999999999951281E-01     6.2500000000163314E-02     0.0000000000000000E+00 
    2.4999999999961461E-01     1.2500000000033351E-01     0.0000000000000000E+00 
    2.4999999999971650E-01     1.8750000000048361E-01     0.0000000000000000E+00 
    2.4999999999981831E-01     2.5000000000063310E-01     0.0000000000000000E+00 
    2.4999999999992020E-01     3.1250000000078260E-01     0.0000000000000000E+00 
    2.5000000000002198E-01     3.7500000000093209E-01     0.0000000000000000E+00 
    2.5000000000012390E-01     4.3750000000108180E-01     0.0000000000000000E+00 
    2.5000000000022571E-01     5.0000000000121769E-01     0.0000000000000000E+00 
    2.5000000000032763E-01     5.6250000000094724E-01     0.0000000000000000E+00 
    2.5000000000042938E-01     6.2500000000066314E-01     0.0000000000000000E+00 
    2.5000000000053119E-01     6.8750000000037925E-01     0.0000000000000000E+00 
[...]
CELL_DATA 256 
SCALARS Pressure double 1 
LOOKUP_TABLE default 

    1.8281217923597524E+00 
    1.7226082696959240E+00 
    1.6541355623834519E+00 
    1.6029849226771122E+00 
    1.5611097196976365E+00 
    1.5249377990237867E+00 
    1.4927588772535778E+00 
    1.4637368604881125E+00 
    1.4374990713058857E+00 
    1.4139431146144585E+00 
    1.3931308933134661E+00 
    1.3752161140828474E+00 
    1.3603766981767287E+00 
    1.3487412568128798E+00 
    1.3402778033435228E+00 
    1.3353088380825004E+00 
    1.7226082696964826E+00 
    1.6787715821927804E+00 
    1.6321104433581681E+00 
    1.5898082043125377E+00 
    1.5520277465412993E+00 
    1.5179498835463106E+00 
    1.4869022320948526E+00 
    1.4584906431618334E+00 
    1.4325549479594850E+00 
    1.4091070297960877E+00 
    1.3882786742609370E+00 
    1.3702735302052653E+00 
    1.3553102867915310E+00 
    1.3435496847256285E+00 
    1.3349827565252825E+00 
    1.3299498470480406E+00 
    1.6541355623842358E+00 
    1.6321104433585438E+00 
    1.6011819557436515E+00 
    1.5682207755945208E+00 
    1.5358432484528071E+00 
    1.5049088003101159E+00 
    1.4756822300059704E+00 
    1.4482812134988767E+00 
    1.4228358144109412E+00 
    1.3995336083195362E+00 
    1.3786242123339469E+00 
    1.3604009327242153E+00 
    1.3451592780361414E+00 
    1.3331232696396056E+00 
    1.3243325747487471E+00 
    1.3191633649607224E+00 
    1.6029849226780524E+00 
    1.5898082043131667E+00 
    1.5682207755948165E+00 
    1.5424267371670772E+00 
    1.5149688773619332E+00 
    1.4872270534898970E+00 
    1.4599634859211850E+00 
    1.4336606948070680E+00 
    1.4087011519573218E+00 
    1.3854513304541023E+00 
    1.3642975852011936E+00 
    1.3456484521181860E+00 
    1.3299039627180262E+00 
    1.3173830296513869E+00 
    1.3082073190167722E+00 
    1.3028074155984379E+00 
    1.5611097196986989E+00 
    1.5520277465421046E+00 
    1.5358432484533238E+00 
    1.5149688773621734E+00 
    1.4913291066863137E+00 
    1.4662657559707295E+00 
    1.4406977800515537E+00 
    1.4152971362216060E+00 
    1.3906176658498053E+00 
    1.3671743110575136E+00 
    1.3454871243707021E+00 
    1.3260933785029836E+00 
    1.3095210355697751E+00 
    1.2962193762624405E+00 
    1.2864291755764343E+00 
    1.2806568026517842E+00 
    1.5249377990249537E+00 
    1.5179498835472505E+00 
    1.5049088003108013E+00 
    1.4872270534903307E+00 
    1.4662657559709340E+00 
    1.4431511907099659E+00 
    1.4187777787975848E+00 
    1.3938782117737856E+00 
    1.3691000120488033E+00 
    1.3450656347528618E+00 
    1.3224145952036856E+00 
    1.3018189312404400E+00 
    1.2839610217848878E+00 
    1.2694611080373672E+00 
    1.2587211939960925E+00 
    1.2523596225630143E+00 
    1.4927588772548379E+00 
    1.4869022320959009E+00 
    1.4756822300067891E+00 
    1.4599634859217754E+00 
    1.4406977800519312E+00 
    1.4187777787977662E+00 
    1.3949972447890899E+00 
    1.3700711897874385E+00 
    1.3446801410212046E+00 
    1.3195143403387586E+00 
    1.2953143518774333E+00 
    1.2728907917542063E+00 
    1.2531104235831843E+00 
    1.2368143518134478E+00 
    1.2246333654616703E+00 
    1.2173645393048236E+00 
    1.4637368604894390E+00 
    1.4584906431629601E+00 
    1.4482812134997947E+00 
    1.4336606948077824E+00 
    1.4152971362221285E+00 
    1.3938782117741289E+00 
    1.3700711897876103E+00 
    1.3445277069943486E+00 
    1.3179144079096523E+00 
    1.2909512692748613E+00 
    1.2644566293765069E+00 
    1.2393804088630542E+00 
    1.2168045981267464E+00 
    1.1978606054842624E+00 
    1.1835166804464163E+00 
    1.1748601100290308E+00 
    1.4374990713070315E+00 
    1.4325549479604733E+00 
    1.4228358144117748E+00 
    1.4087011519580097E+00 
    1.3906176658503575E+00 
    1.3691000120492287E+00 
    1.3446801410215055E+00 
    1.3179144079098204E+00 
    1.2894136195412840E+00 
    1.2598848648369665E+00 
    1.2301892371614047E+00 
    1.2014040301832543E+00 
    1.1748545925745688E+00 
    1.1520573023536393E+00 
    1.1344802870839228E+00 
    1.1236883655713101E+00 
    1.4139431146152801E+00 
    1.4091070297968080E+00 
    1.3995336083201677E+00 
    1.3854513304546610E+00 
    1.3671743110580121E+00 
    1.3450656347533101E+00 
    1.3195143403391596E+00 
    1.2909512692752063E+00 
    1.2598848648371879E+00 
    1.2269516687828528E+00 
    1.1929954153493374E+00 
    1.1591769741059048E+00 
    1.1270728752659851E+00 
    1.0986920385712899E+00 
    1.0762459656108385E+00 
    1.0621191444308580E+00 
    1.3931308933140027E+00 
    1.3882786742614213E+00 
    1.3786242123343981E+00 
    1.3642975852016370E+00 
    1.3454871243711568E+00 
    1.3224145952041677E+00 
    1.2953143518779524E+00 
    1.2644566293770629E+00 
    1.2301892371618985E+00 
    1.1929954153496225E+00 
    1.1535965282285534E+00 
    1.1131284930022747E+00 
    1.0733551074255436E+00 
    1.0368523226241624E+00 
    1.0069304748103054E+00 
    9.8744311661478701E-01 
    1.3752161140831471E+00 
    1.3702735302055511E+00 
    1.3604009327245168E+00 
    1.3456484521185377E+00 
    1.3260933785034141E+00 
    1.3018189312409758E+00 
    1.2728907917548717E+00 
    1.2393804088638631E+00 
    1.2014040301840805E+00 
    1.1591769741065476E+00 
    1.1131284930026464E+00 
    1.0641452452855849E+00 
    1.0139431897139779E+00 
    9.6557457645269329E-01 
    9.2384123248434569E-01 
    8.9527172295183854E-01 
    1.3603766981768413E+00 
    1.3553102867916622E+00 
    1.3451592780363284E+00 
    1.3299039627183147E+00 
    1.3095210355702063E+00 
    1.2839610217855038E+00 
    1.2531104235840265E+00 
    1.2168045981278530E+00 
    1.1748545925757916E+00 
    1.1270728752670620E+00 
    1.0733551074263794E+00 
    1.0139431897144622E+00 
    9.4993697439649238E-01 
    8.8426662054839766E-01 
    8.2322990838822918E-01 
    7.7804059876614340E-01 
    1.3487412568128607E+00 
    1.3435496847256527E+00 
    1.3331232696397188E+00 
    1.3173830296516480E+00 
    1.2962193762629040E+00 
    1.2694611080380915E+00 
    1.2368143518144978E+00 
    1.1978606054857059E+00 
    1.1520573023553100E+00 
    1.0986920385728611E+00 
    1.0368523226255366E+00 
    9.6557457645375988E-01 
    8.8426662054901217E-01 
    7.9393716234883105E-01 
    7.0040167581258472E-01 
    6.2125669186969301E-01 
    1.3402778033434850E+00 
    1.3349827565252992E+00 
    1.3243325747488746E+00 
    1.3082073190170795E+00 
    1.2864291755769914E+00 
    1.2587211939969762E+00 
    1.2246333654629675E+00 
    1.1835166804482258E+00 
    1.1344802870860577E+00 
    1.0762459656128993E+00 
    1.0069304748121850E+00 
    9.2384123248591898E-01 
    8.2322990838932164E-01 
    7.0040167581296076E-01 
    5.5228362338866632E-01 
    3.9264772039569484E-01 
    1.3353088380824762E+00 
    1.3299498470480782E+00 
    1.3191633649608874E+00 
    1.3028074155988130E+00 
    1.2806568026524519E+00 
    1.2523596225640679E+00 
    1.2173645393063717E+00 
    1.1748601100311999E+00 
    1.1236883655738927E+00 
    1.0621191444333828E+00 
    9.8744311661713202E-01 
    8.9527172295385482E-01 
    7.7804059876759368E-01 
    6.2125669187013999E-01 
    3.9264772039516710E-01 
    0.0000000000000000E+00 

SCALARS Saturarion double 1 
LOOKUP_TABLE default 

    1.0000000000000000E+00 
    9.6233595219775869E-01 
    9.2815174190043637E-01 
    8.9102473173376517E-01 
    8.5273879545317333E-01 
    8.1475023915553457E-01 
    7.7742861924858409E-01 
    7.4086362318875465E-01 
    7.0464957282597229E-01 
    6.6839434431941003E-01 
    6.3103299396305157E-01 
    5.9103653975405579E-01 
    5.4476850588671333E-01 
    4.8468964573710699E-01 
    3.8525809195061117E-01 
    1.6679110110700457E-01 
    9.6233595219795931E-01 
    9.3631661175968806E-01 
    9.0541724425714842E-01 
    8.7175248332489730E-01 
    8.3670741094101064E-01 
    8.0157131264581916E-01 
    7.6669810319193343E-01 
    7.3226528012718994E-01 
    6.9790401059665430E-01 
    6.6323252363193896E-01 
    6.2723809144075104E-01 
    5.8843905240536032E-01 
    5.4323033049583025E-01 
    4.8392738316790290E-01 
    3.8499924495140841E-01 
    1.6642692514187982E-01 
    9.2815174190094085E-01 
    9.0541724425738845E-01 
    8.7786594690160302E-01 
    8.4782910762495589E-01 
    8.1640521080112294E-01 
    7.8459401149556640E-01 
    7.5273615128781113E-01 
    7.2104110440566993E-01 
    6.8917290840885248E-01 
    6.5663865542942657E-01 
    6.2251746543257980E-01 
    5.8535079501161225E-01 
    5.4164569178057864E-01 
    4.8337983932704992E-01 
    3.8527548415176016E-01 
    1.6723074683368511E-01 
    8.9102473173453767E-01 
    8.7175248332542399E-01 
    8.4782910762522068E-01 
    8.2149104216873026E-01 
    7.9380766595603569E-01 
    7.6558508068402897E-01 
    7.3710447501176701E-01 
    7.0844209791219792E-01 
    6.7935279210528721E-01 
    6.4930012119066960E-01 
    6.1742993594778495E-01 
    5.8213214273933866E-01 
    5.4027930229288734E-01 
    4.8311709143519205E-01 
    3.8626168906937242E-01 
    1.6957392150739664E-01 
    8.5273879545410125E-01 
    8.3670741094176693E-01 
    8.1640521080163242E-01 
    7.9380766595626973E-01 
    7.6987806394467850E-01 
    7.4526603459129748E-01 
    7.2021198188936553E-01 
    6.9483940012570655E-01 
    6.6880210967614939E-01 
    6.4166595118542691E-01 
    6.1241335042104128E-01 
    5.7958074197924436E-01 
    5.3956055829830962E-01 
    4.8479017989623402E-01 
    3.8973005307669684E-01 
    1.7678375819429173E-01 
    8.1475023915672018E-01 
    8.0157131264677839E-01 
    7.8459401149626362E-01 
    7.6558508068445552E-01 
    7.4526603459149332E-01 
    7.2428054621552118E-01 
    7.0268385499926433E-01 
    6.8064639800690963E-01 
    6.5774256246877272E-01 
    6.3362687623559200E-01 
    6.0721370696615096E-01 
    5.7701035348052976E-01 
    5.3940421965249563E-01 
    4.8688808435549868E-01 
    3.9432423880735040E-01 
    1.8655994540001919E-01 
    7.7742861925000539E-01 
    7.6669810319306342E-01 
    7.5273615128867066E-01 
    7.3710447501235610E-01 
    7.2021198188973556E-01 
    7.0268385499943364E-01 
    6.8450879618779759E-01 
    6.6585407828867371E-01 
    6.4624705089761170E-01 
    6.2527100906748623E-01 
    6.0189524705406061E-01 
    5.7458814244350676E-01 
    5.3986258594861436E-01 
    4.8994896616954720E-01 
    4.0054373115159986E-01 
    1.9931268366577937E-01 
    7.4086362319035404E-01 
    7.3226528012852499E-01 
    7.2104110440671787E-01 
    7.0844209791297641E-01 
    6.9483940012623346E-01 
    6.8064639800722138E-01 
    6.6585407828880994E-01 
    6.5054021137927920E-01 
    6.3430313430659591E-01 
    6.1663132758091455E-01 
    5.9652587001154300E-01 
    5.7235716602788067E-01 
    5.4095132817338287E-01 
    4.9406065891420436E-01 
    4.0866884383386476E-01 
    2.1530530877419443E-01 
    7.0464957282722918E-01 
    6.9790401059774176E-01 
    6.8917290840971723E-01 
    6.7935279210593136E-01 
    6.6880210967658882E-01 
    6.5774256246906693E-01 
    6.4624705089775614E-01 
    6.3430313430664997E-01 
    6.2156174446211143E-01 
    6.0742062706966715E-01 
    5.9090337773143309E-01 
    5.7041452009078497E-01 
    5.4264297692686936E-01 
    5.0012517792761335E-01 
    4.1993987662758753E-01 
    2.3605489782887440E-01 
    6.6839434432039724E-01 
    6.6323252363278773E-01 
    6.5663865543009892E-01 
    6.4930012119118408E-01 
    6.4166595118580716E-01 
    6.3362687623584268E-01 
    6.2527100906763511E-01 
    6.1663132758098138E-01 
    6.0742062706967526E-01 
    5.9698895203333191E-01 
    5.8435290083195546E-01 
    5.6794637327380371E-01 
    5.4455036098390719E-01 
    5.0696700949607543E-01 
    4.3340689637459784E-01 
    2.6026427977752337E-01 
    6.3103299396378953E-01 
    6.2723809144137155E-01 
    6.2251746543308817E-01 
    6.1742993594817785E-01 
    6.1241335042131428E-01 
    6.0721370696633192E-01 
    6.0189524705416331E-01 
    5.9652587001157786E-01 
    5.9090337773140711E-01 
    5.8435290083191782E-01 
    5.7594022339642337E-01 
    5.6415052664872178E-01 
    5.4591803741808576E-01 
    5.1433318213457535E-01 
    4.4911869732731347E-01 
    2.8831166895314853E-01 
    5.9103653975453230E-01 
    5.8843905240575867E-01 
    5.8535079501193366E-01 
    5.8213214273957570E-01 
    5.7958074197938581E-01 
    5.7701035348059626E-01 
    5.7458814244351597E-01 
    5.7235716602783426E-01 
    5.7041452009068772E-01 
    5.6794637327369590E-01 
    5.6415052664864795E-01 
    5.5760064993573566E-01 
    5.4541373537033766E-01 
    5.2117061937620957E-01 
    4.6634141906555426E-01 
    3.1997094160865197E-01 
    5.4476850588688641E-01 
    5.4323033049596148E-01 
    5.4164569178065414E-01 
    5.4027930229292298E-01 
    5.3956055829827565E-01 
    5.3940421965240060E-01 
    5.3986258594846726E-01 
    5.4095132817319502E-01 
    5.4264297692662977E-01 
    5.4455036098366916E-01 
    5.4591803741788725E-01 
    5.4541373537022064E-01 
    5.4045973054748297E-01 
    5.2533097822324304E-01 
    4.8368732326775560E-01 
    3.5611778439856712E-01 
    4.8468964573685258E-01 
    4.8392738316764572E-01 
    4.8337983932677830E-01 
    4.8311709143490500E-01 
    4.8479017989591883E-01 
    4.8688808435514747E-01 
    4.8994896616914746E-01 
    4.9406065891375256E-01 
    5.0012517792715461E-01 
    5.0696700949564177E-01 
    5.1433318213420776E-01 
    5.2117061937594811E-01 
    5.2533097822311781E-01 
    5.2176032055634625E-01 
    4.9673408372311439E-01 
    3.9471421511099730E-01 
    3.8525809195045879E-01 
    3.8499924495125215E-01 
    3.8527548415159879E-01 
    3.8626168906918518E-01 
    3.8973005307646957E-01 
    3.9432423880705625E-01 
    4.0054373115121211E-01 
    4.0866884383335117E-01 
    4.1993987662704146E-01 
    4.3340689637405189E-01 
    4.4911869732681531E-01 
    4.6634141906515175E-01 
    4.8368732326749514E-01 
    4.9673408372300593E-01 
    4.9437432444754953E-01 
    4.2965299717445282E-01 
    1.6679110110697279E-01 
    1.6642692514183977E-01 
    1.6723074683364186E-01 
    1.6957392150731476E-01 
    1.7678375819412792E-01 
    1.8655994539970772E-01 
    1.9931268366527299E-01 
    2.1530530877345264E-01 
    2.3605489782813380E-01 
    2.6026427977683403E-01 
    2.8831166895256999E-01 
    3.1997094160822925E-01 
    3.5611778439835967E-01 
    3.9471421511103560E-01 
    4.2965299717446942E-01 
    4.2883569530617038E-01 
