# vtk DataFile Version 2.0
Pressure Field Data 
ASCII 
DATASET UNSTRUCTURED_GRID 

POINTS 289 double 

    0.0000000000000000E+00     0.0000000000000000E+00     0.0000000000000000E+00 
    1.0000000000000000E+00     0.0000000000000000E+00     0.0000000000000000E+00 
    1.0000000000000000E+00     1.0000000000000000E+00     0.0000000000000000E+00 
    0.0000000000000000E+00     1.0000000000000000E+00     0.0000000000000000E+00 
    6.2499999999872928E-02     0.0000000000000000E+00     0.0000000000000000E+00 
    1.2499999999977310E-01     0.0000000000000000E+00     0.0000000000000000E+00 
    1.8749999999959341E-01     0.0000000000000000E+00     0.0000000000000000E+00 
    2.4999999999941089E-01     0.0000000000000000E+00     0.0000000000000000E+00 
    3.1249999999922851E-01     0.0000000000000000E+00     0.0000000000000000E+00 
    3.7499999999904610E-01     0.0000000000000000E+00     0.0000000000000000E+00 
    4.3749999999886358E-01     0.0000000000000000E+00     0.0000000000000000E+00 
    4.9999999999869210E-01     0.0000000000000000E+00     0.0000000000000000E+00 
    5.6249999999884603E-01     0.0000000000000000E+00     0.0000000000000000E+00 
    6.2499999999901090E-01     0.0000000000000000E+00     0.0000000000000000E+00 
    6.8749999999917577E-01     0.0000000000000000E+00     0.0000000000000000E+00 
    7.4999999999934064E-01     0.0000000000000000E+00     0.0000000000000000E+00 
    8.1249999999950551E-01     0.0000000000000000E+00     0.0000000000000000E+00 
    8.7499999999967026E-01     0.0000000000000000E+00     0.0000000000000000E+00 
    9.3749999999983513E-01     0.0000000000000000E+00     0.0000000000000000E+00 
    1.0000000000000000E+00     6.2499999999872928E-02     0.0000000000000000E+00 
    1.0000000000000000E+00     1.2499999999977310E-01     0.0000000000000000E+00 
    1.0000000000000000E+00     1.8749999999959341E-01     0.0000000000000000E+00 
    1.0000000000000000E+00     2.4999999999941089E-01     0.0000000000000000E+00 
    1.0000000000000000E+00     3.1249999999922851E-01     0.0000000000000000E+00 
    1.0000000000000000E+00     3.7499999999904610E-01     0.0000000000000000E+00 
    1.0000000000000000E+00     4.3749999999886358E-01     0.0000000000000000E+00 
    1.0000000000000000E+00     4.9999999999869210E-01     0.0000000000000000E+00 
    1.0000000000000000E+00     5.6249999999884603E-01     0.0000000000000000E+00 
    1.0000000000000000E+00     6.2499999999901090E-01     0.0000000000000000E+00 
    1.0000000000000000E+00     6.8749999999917577E-01     0.0000000000000000E+00 
    1.0000000000000000E+00     7.4999999999934064E-01     0.0000000000000000E+00 
    1.0000000000000000E+00     8.1249999999950551E-01     0.0000000000000000E+00 
    1.0000000000000000E+00     8.7499999999967026E-01     0.0000000000000000E+00 
    1.0000000000000000E+00     9.3749999999983513E-01     0.0000000000000000E+00 
    9.3749999999973976E-01     1.0000000000000000E+00     0.0000000000000000E+00 
    8.7499999999950118E-01     1.0000000000000000E+00     0.0000000000000000E+00 
    8.1249999999991318E-01     1.0000000000000000E+00     0.0000000000000000E+00 
    7.5000000000034706E-01     1.0000000000000000E+00     0.0000000000000000E+00 
    6.8750000000078049E-01     1.0000000000000000E+00     0.0000000000000000E+00 
    6.2500000000121403E-01     1.0000000000000000E+00     0.0000000000000000E+00 
    5.6250000000164757E-01     1.0000000000000000E+00     0.0000000000000000E+00 
    5.0000000000205946E-01     1.0000000000000000E+00     0.0000000000000000E+00 
    4.3750000000182099E-01     1.0000000000000000E+00     0.0000000000000000E+00 
    3.7500000000156092E-01     1.0000000000000000E+00     0.0000000000000000E+00 
    3.1250000000130068E-01     1.0000000000000000E+00     0.0000000000000000E+00 
    2.5000000000104050E-01     1.0000000000000000E+00     0.0000000000000000E+00 
    1.8750000000078040E-01     1.0000000000000000E+00     0.0000000000000000E+00 
    1.2500000000052031E-01     1.0000000000000000E+00     0.0000000000000000E+00 
    6.2500000000260125E-02     1.0000000000000000E+00     0.0000000000000000E+00 
    0.0000000000000000E+00     9.3749999999973976E-01     0.0000000000000000E+00 
    0.0000000000000000E+00     8.7499999999950118E-01     0.0000000000000000E+00 
    0.0000000000000000E+00     8.1249999999991318E-01     0.0000000000000000E+00 
    0.0000000000000000E+00     7.5000000000034706E-01     0.0000000000000000E+00 
    0.0000000000000000E+00     6.8750000000078049E-01     0.0000000000000000E+00 
    0.0000000000000000E+00     6.2500000000121403E-01     0.0000000000000000E+00 
    0.0000000000000000E+00     5.6250000000164757E-01     0.0000000000000000E+00 
    0.0000000000000000E+00     5.0000000000205946E-01     0.0000000000000000E+00 
    0.0000000000000000E+00     4.3750000000182099E-01     0.0000000000000000E+00 
    0.0000000000000000E+00     3.7500000000156092E-01     0.0000000000000000E+00 
    0.0000000000000000E+00     3.1250000000130068E-01     0.0000000000000000E+00 
    0.0000000000000000E+00     2.5000000000104050E-01     0.0000000000000000E+00 
    0.0000000000000000E+00     1.8750000000078040E-01     0.0000000000000000E+00 
    0.0000000000000000E+00     1.2500000000052031E-01     0.0000000000000000E+00 
    0.0000000000000000E+00     6.2500000000260125E-02     0.0000000000000000E+00 
    6.2499999999897131E-02     6.2500000000235922E-02     0.0000000000000000E+00 
    6.2499999999921327E-02     1.2500000000047351E-01     0.0000000000000000E+00 
    6.2499999999945530E-02     1.8750000000070621E-01     0.0000000000000000E+00 
    6.2499999999969733E-02     2.5000000000093858E-01     0.0000000000000000E+00 
    6.2499999999993928E-02     3.1250000000117117E-01     0.0000000000000000E+00 
    6.2500000000018124E-02     3.7500000000140382E-01     0.0000000000000000E+00 
    6.2500000000042327E-02     4.3750000000163619E-01     0.0000000000000000E+00 
    6.2500000000066530E-02     5.0000000000184897E-01     0.0000000000000000E+00 
    6.2500000000090733E-02     5.6250000000147260E-01     0.0000000000000000E+00 
    6.2500000000114922E-02     6.2500000000107636E-01     0.0000000000000000E+00 
    6.2500000000139125E-02     6.8750000000068034E-01     0.0000000000000000E+00 
    6.2500000000163328E-02     7.5000000000028411E-01     0.0000000000000000E+00 
    6.2500000000187531E-02     8.1249999999988787E-01     0.0000000000000000E+00 
    6.2500000000211720E-02     8.7499999999951172E-01     0.0000000000000000E+00 
    6.2500000000235922E-02     9.3749999999974565E-01     0.0000000000000000E+00 
    1.2499999999981980E-01     6.2500000000211733E-02     0.0000000000000000E+00 
    1.2499999999986650E-01     1.2500000000042691E-01     0.0000000000000000E+00 
    1.2499999999991319E-01     1.8750000000063199E-01     0.0000000000000000E+00 
    1.2499999999995989E-01     2.5000000000083678E-01     0.0000000000000000E+00 
    1.2500000000000661E-01     3.1250000000104172E-01     0.0000000000000000E+00 
    1.2500000000005329E-01     3.7500000000124661E-01     0.0000000000000000E+00 
    1.2500000000010000E-01     4.3750000000145117E-01     0.0000000000000000E+00 
    1.2500000000014669E-01     5.0000000000163858E-01     0.0000000000000000E+00 
    1.2500000000019340E-01     5.6250000000129741E-01     0.0000000000000000E+00 
    1.2500000000024011E-01     6.2500000000093847E-01     0.0000000000000000E+00 
    1.2500000000028680E-01     6.8750000000057998E-01     0.0000000000000000E+00 
    1.2500000000033351E-01     7.5000000000022127E-01     0.0000000000000000E+00 
    1.2500000000038020E-01     8.1249999999986211E-01     0.0000000000000000E+00 
    1.2500000000042691E-01     8.7499999999952238E-01     0.0000000000000000E+00 
    1.2500000000047359E-01     9.3749999999975164E-01     0.0000000000000000E+00 
    1.8749999999966760E-01     6.2500000000187531E-02     0.0000000000000000E+00 
    1.8749999999974179E-01     1.2500000000038020E-01     0.0000000000000000E+00 
    1.8749999999981601E-01     1.8750000000055780E-01     0.0000000000000000E+00 
    1.8749999999989009E-01     2.5000000000073502E-01     0.0000000000000000E+00 
    1.8749999999996431E-01     3.1250000000091221E-01     0.0000000000000000E+00 
    1.8750000000003850E-01     3.7500000000108941E-01     0.0000000000000000E+00 
    1.8750000000011269E-01     4.3750000000126649E-01     0.0000000000000000E+00 
    1.8750000000018691E-01     5.0000000000142808E-01     0.0000000000000000E+00 
    1.8750000000026110E-01     5.6250000000112244E-01     0.0000000000000000E+00 
    1.8750000000033529E-01     6.2500000000080080E-01     0.0000000000000000E+00 
    1.8750000000040951E-01     6.8750000000047962E-01     0.0000000000000000E+00 
    1.8750000000048361E-01     7.5000000000015843E-01     0.0000000000000000E+00 
    1.8750000000055780E-01     8.1249999999983680E-01     0.0000000000000000E+00 
    1.8750000000063199E-01     8.7499999999953304E-01     0.0000000000000000E+00 
    1.8750000000070621E-01     9.3749999999975764E-01     0.0000000000000000E+00 
    2.4999999999951281E-01     6.2500000000163314E-02     0.0000000000000000E+00 
    2.4999999999961461E-01     1.2500000000033351E-01     0.0000000000000000E+00 
    2.4999999999971650E-01     1.8750000000048361E-01     0.0000000000000000E+00 
    2.4999999999981831E-01     2.5000000000063310E-01     0.0000000000000000E+00 
    2.4999999999992020E-01     3.1250000000078260E-01     0.0000000000000000E+00 
    2.5000000000002198E-01     3.7500000000093209E-01     0.0000000000000000E+00 
    2.5000000000012390E-01     4.3750000000108180E-01     0.0000000000000000E+00 
    2.5000000000022571E-01     5.0000000000121769E-01     0.0000000000000000E+00 
    2.5000000000032763E-01     5.6250000000094724E-01     0.0000000000000000E+00 
    2.5000000000042938E-01     6.2500000000066314E-01     0.0000000000000000E+00 
    2.5000000000053119E-01     6.8750000000037925E-01     0.0000000000000000E+00 
[...]
CELL_DATA 256 
SCALARS Pressure double 1 
LOOKUP_TABLE default 

    1.7453162531472306E+00 
    1.6402220342819813E+00 
    1.5723600959225141E+00 
    1.5219047721822543E+00 
    1.4807820954573387E+00 
    1.4453993027051997E+00 
    1.4140271413418326E+00 
    1.3858114232923844E+00 
    1.3603612792430613E+00 
    1.3375558582568774E+00 
    1.3174391489952488E+00 
    1.3001502497906574E+00 
    1.2858628781513564E+00 
    1.2747243348298696E+00 
    1.2667538945896100E+00 
    1.2620651964788641E+00 
    1.6402220342825360E+00 
    1.5967112863880450E+00 
    1.5505874592626148E+00 
    1.5089398266965808E+00 
    1.4718893221033449E+00 
    1.4385888445753787E+00 
    1.4083434997094770E+00 
    1.3807390149809076E+00 
    1.3555955914819984E+00 
    1.3329055209345846E+00 
    1.3127815704899006E+00 
    1.2954114807787622E+00 
    1.2810082501951825E+00 
    1.2697504108659645E+00 
    1.2616809321395328E+00 
    1.2569296116557023E+00 
    1.5723600959232875E+00 
    1.5505874592629845E+00 
    1.5201175360685344E+00 
    1.4877557844897482E+00 
    1.4560734195743672E+00 
    1.4258974446018640E+00 
    1.3974666598844427E+00 
    1.3708759085721791E+00 
    1.3462333564433631E+00 
    1.3237049342936784E+00 
    1.3035190588724808E+00 
    1.2859505623635568E+00 
    1.2712862240355081E+00 
    1.2597656323687314E+00 
    1.2514803542120441E+00 
    1.2465935236198731E+00 
    1.5219047721831758E+00 
    1.5089398266971958E+00 
    1.4877557844900366E+00 
    1.4625140730252180E+00 
    1.4357190582127017E+00 
    1.4087188452369992E+00 
    1.3822484757113986E+00 
    1.3567657829551671E+00 
    1.3326292083543554E+00 
    1.3101810910557614E+00 
    1.2897835285441588E+00 
    1.2718227693788846E+00 
    1.2566856410414575E+00 
    1.2447023147797405E+00 
    1.2360434607997708E+00 
    1.2309244781916180E+00 
    1.4807820954583744E+00 
    1.4718893221041285E+00 
    1.4560734195748688E+00 
    1.4357190582129342E+00 
    1.4127204248824083E+00 
    1.3883909541283268E+00 
    1.3636232990430333E+00 
    1.3390641240684154E+00 
    1.3152416743870625E+00 
    1.2926442225120205E+00 
    1.2717639246384054E+00 
    1.2531108192216014E+00 
    1.2371936614709174E+00 
    1.2244659968920284E+00 
    1.2152117056689689E+00 
    1.2097204975010012E+00 
    1.4453993027063321E+00 
    1.4385888445762898E+00 
    1.4258974446025277E+00 
    1.4087188452374175E+00 
    1.3883909541285229E+00 
    1.3660159718507778E+00 
    1.3424641580329624E+00 
    1.3184434035033852E+00 
    1.2945747473910316E+00 
    1.2714517018207965E+00 
    1.2496819556302337E+00 
    1.2299044545996927E+00 
    1.2127743184029518E+00 
    1.1989063624883942E+00 
    1.1887382050542181E+00 
    1.1826687281132591E+00 
    1.4140271413430514E+00 
    1.4083434997104909E+00 
    1.3974666598852339E+00 
    1.3822484757119669E+00 
    1.3636232990433947E+00 
    1.3424641580331365E+00 
    1.3195435990333928E+00 
    1.2955533472973078E+00 
    1.2711474237658982E+00 
    1.2469854155559033E+00 
    1.2237721547425060E+00 
    1.2022785172338082E+00 
    1.1833337450073296E+00 
    1.1677609493380077E+00 
    1.1562159740895595E+00 
    1.1492685997976007E+00 
    1.3858114232936654E+00 
    1.3807390149819947E+00 
    1.3708759085730629E+00 
    1.3567657829558535E+00 
    1.3390641240689163E+00 
    1.3184434035037131E+00 
    1.2955533472974716E+00 
    1.2710249017386055E+00 
    1.2454993760353514E+00 
    1.2196654042539190E+00 
    1.1943022919207140E+00 
    1.1703131012687211E+00 
    1.1487302113684901E+00 
    1.1306506942795727E+00 
    1.1170520297704549E+00 
    1.1087781262752774E+00 
    1.3603612792441655E+00 
    1.3555955914829494E+00 
    1.3462333564441631E+00 
    1.3326292083550146E+00 
    1.3152416743875903E+00 
    1.2945747473914371E+00 
    1.2711474237661844E+00 
    1.2454993760355118E+00 
    1.2182189320066843E+00 
    1.1899828943495214E+00 
    1.1616115891026753E+00 
    1.1341288223239738E+00 
    1.1087968836370137E+00 
    1.0870765601315533E+00 
    1.0704231055742739E+00 
    1.0601304752361438E+00 
    1.3375558582576654E+00 
    1.3329055209352743E+00 
    1.3237049342942824E+00 
    1.3101810910562945E+00 
    1.2926442225124954E+00 
    1.2714517018212224E+00 
    1.2469854155562843E+00 
    1.2196654042542474E+00 
    1.1899828943497308E+00 
    1.1585481124294037E+00 
    1.1261654514538220E+00 
    1.0939381271728144E+00 
    1.0633659635554977E+00 
    1.0363759633812522E+00 
    1.0151359217568552E+00 
    1.0017140660337840E+00 
    1.3174391489957598E+00 
    1.3127815704903603E+00 
    1.3035190588729091E+00 
    1.2897835285445782E+00 
    1.2717639246388355E+00 
    1.2496819556306900E+00 
    1.2237721547429989E+00 
    1.1943022919212420E+00 
    1.1616115891031431E+00 
    1.1261654514540922E+00 
    1.0886530976620150E+00 
    1.0501546621223230E+00 
    1.0123474275206006E+00 
    9.7769621383733452E-01 
    9.4942160518885566E-01 
    9.3098486857813090E-01 
    1.3001502497909379E+00 
    1.2954114807790298E+00 
    1.2859505623638394E+00 
    1.2718227693792141E+00 
    1.2531108192220066E+00 
    1.2299044546001994E+00 
    1.2022785172344392E+00 
    1.1703131012694896E+00 
    1.1341288223247581E+00 
    1.0939381271734241E+00 
    1.0501546621226754E+00 
    1.0036234247331033E+00 
    9.5597714313520010E-01 
    9.1013360329367543E-01 
    8.7074173412126765E-01 
    8.4381146077383795E-01 
    1.2858628781514563E+00 
    1.2810082501953006E+00 
    1.2712862240356801E+00 
    1.2566856410417271E+00 
    1.2371936614713241E+00 
    1.2127743184035349E+00 
    1.1833337450081296E+00 
    1.1487302113695423E+00 
    1.1087968836381750E+00 
    1.0633659635565196E+00 
    1.0123474275213928E+00 
    9.5597714313565918E-01 
    8.9530559095267548E-01 
    8.3313747966849339E-01 
    7.7555831745025650E-01 
    7.3306327919216763E-01 
    1.2747243348298443E+00 
    1.2697504108659814E+00 
    1.2597656323688342E+00 
    1.2447023147799854E+00 
    1.2244659968924665E+00 
    1.1989063624890819E+00 
    1.1677609493390060E+00 
    1.1306506942809449E+00 
    1.0870765601331398E+00 
    1.0363759633827427E+00 
    9.7769621383863703E-01 
    9.1013360329468584E-01 
    8.3313747966907492E-01 
    7.4769529332086215E-01 
    6.5945984219694531E-01 
    5.8508361174272794E-01 
    1.2667538945895667E+00 
    1.2616809321395428E+00 
    1.2514803542121606E+00 
    1.2360434608000619E+00 
    1.2152117056694991E+00 
    1.1887382050550592E+00 
    1.1562159740907940E+00 
    1.1170520297721740E+00 
    1.0704231055763007E+00 
    1.0151359217588094E+00 
    9.4942160519063579E-01 
    8.7074173412275724E-01 
    7.7555831745129034E-01 
    6.5945984219730092E-01 
    5.1970667873363807E-01 
    3.6954977232602093E-01 
    1.2620651964788350E+00 
    1.2569296116557331E+00 
    1.2465935236200265E+00 
    1.2309244781919744E+00 
    1.2097204975016380E+00 
    1.1826687281142629E+00 
    1.1492685997990744E+00 
    1.1087781262773386E+00 
    1.0601304752385952E+00 
    1.0017140660361770E+00 
    9.3098486858035057E-01 
    8.4381146077574565E-01 
    7.3306327919353886E-01 
    5.8508361174315127E-01 
    3.6954977232552577E-01 
    0.0000000000000000E+00 

SCALARS Saturarion double 1 
LOOKUP_TABLE default 

    1.0000000000000000E+00 
    9.6518066246931300E-01 
    9.3317890891935718E-01 
    8.9805560576404053E-01 
    8.6151356002467372E-01 
    8.2498217449603373E-01 
    7.8888275273567998E-01 
    7.5335392693782288E-01 
    7.1805192472283197E-01 
    6.8263293943252590E-01 
    6.4611877408532958E-01 
    6.0712751179691138E-01 
    5.6246379466272323E-01 
    5.0576112736475820E-01 
    4.1539443259077274E-01 
    2.1295244069680266E-01 
    9.6518066246946477E-01 
    9.4087066767472538E-01 
    9.1174659214345899E-01 
    8.7973797240191109E-01 
    8.4616907046932877E-01 
    8.1229443777449750E-01 
    7.7850349706000599E-01 
    7.4500599274382662E-01 
    7.1148538587922017E-01 
    6.7760237638358634E-01 
    6.4242436942808123E-01 
    6.0461168913976449E-01 
    5.6100015937352399E-01 
    5.0509879509043065E-01 
    4.1533390700039324E-01 
    2.1311026691458995E-01 
    9.3317890891982436E-01 
    9.1174659214367992E-01 
    8.8559732397788526E-01 
    8.5688221634093931E-01 
    8.2665841119351102E-01 
    7.9589912293420295E-01 
    7.6496623407511632E-01 
    7.3408871830856193E-01 
    7.0297300534939744E-01 
    6.7116840727082572E-01 
    6.3782427758989235E-01 
    6.0161901580998733E-01 
    5.5949102948522944E-01 
    5.0464801602155329E-01 
    4.1578583995238366E-01 
    2.1441217030371826E-01 
    8.9805560576478005E-01 
    8.7973797240240359E-01 
    8.5688221634117834E-01 
    8.3157371968417737E-01 
    8.0484128230666863E-01 
    7.7747158924406967E-01 
    7.4975957735823351E-01 
    7.2179996975262550E-01 
    6.9337672052021027E-01 
    6.6399261702261592E-01 
    6.3285456787258187E-01 
    5.9849483466787989E-01 
    5.5818554157100841E-01 
    5.0447759797868408E-01 
    4.1690803982891483E-01 
    2.1717950179205228E-01 
    8.6151356002554624E-01 
    8.4616907047006151E-01 
    8.2665841119398942E-01 
    8.0484128230689711E-01 
    7.8164731821520717E-01 
    7.5771402451264291E-01 
    7.3329022534320598E-01 
    7.0850831324549024E-01 
    6.8305030003499068E-01 
    6.5650974123205741E-01 
    6.2793349745509763E-01 
    5.9598499011705675E-01 
    5.5748344451513243E-01 
    5.0605537365050113E-01 
    4.2020551830078268E-01 
    2.2367883308573164E-01 
    8.2498217449716638E-01 
    8.1229443777541899E-01 
    7.9589912293488496E-01 
    7.7747158924448911E-01 
    7.5771402451283121E-01 
    7.3725621010736941E-01 
    7.1616772907202364E-01 
    6.9462053984659688E-01 
    6.7221646252850265E-01 
    6.4862838143169876E-01 
    6.2283322180268141E-01 
    5.9345911857454048E-01 
    5.5730947927474606E-01 
    5.0804016403173979E-01 
    4.2450904966084874E-01 
    2.3244923077256077E-01 
    7.8888275273706765E-01 
    7.7850349706113908E-01 
    7.6496623407596254E-01 
    7.4975957735881904E-01 
    7.3329022534358035E-01 
    7.1616772907218129E-01 
    6.9839521458381115E-01 
    6.8013865661654116E-01 
    6.6095182009277087E-01 
    6.4043654250566673E-01 
    6.1761698445782842E-01 
    5.9107582741508335E-01 
    5.5771449957914199E-01 
    5.1091866035171718E-01 
    4.3026181071391256E-01 
    2.4382706756470046E-01 
    7.5335392693937542E-01 
    7.4500599274511592E-01 
    7.3408871830958566E-01 
    7.2179996975338678E-01 
    7.0850831324600927E-01 
    6.9462053984691052E-01 
    6.8013865661667472E-01 
    6.6514141107705149E-01 
    6.4924741139041720E-01 
    6.3196627151142404E-01 
    6.1234810598889544E-01 
    5.8887460730589147E-01 
    5.5871233918878893E-01 
    5.1477146793201989E-01 
    4.3771542366026289E-01 
    2.5796958627218197E-01 
    7.1805192472409018E-01 
    7.1148538588027976E-01 
    7.0297300535025820E-01 
    6.9337672052084598E-01 
    6.8305030003543610E-01 
    6.7221646252879153E-01 
    6.6095182009291498E-01 
    6.4924741139046083E-01 
    6.3676967548544117E-01 
    6.2294064384914161E-01 
    6.0682786135080558E-01 
    5.8693480956787725E-01 
    5.6027189996161098E-01 
    5.2039673958950505E-01 
    4.4794837019066419E-01 
    2.7616223649427574E-01 
    6.8263293943348380E-01 
    6.7760237638440102E-01 
    6.7116840727146443E-01 
    6.6399261702311441E-01 
    6.5650974123242178E-01 
    6.4862838143193990E-01 
    6.4043654250580495E-01 
    6.3196627151149221E-01 
    6.2294064384915138E-01 
    6.1273611035077025E-01 
    6.0041039640961069E-01 
    5.8448505655924876E-01 
    5.6202210063244529E-01 
    5.2674026288546139E-01 
    4.6015325939318835E-01 
    2.9754199959131783E-01 
    6.4611877408604657E-01 
    6.4242436942869308E-01 
    6.3782427759037463E-01 
    6.3285456787295968E-01 
    6.2793349745536697E-01 
    6.2283322180285339E-01 
    6.1761698445793767E-01 
    6.1234810598893175E-01 
    6.0682786135078859E-01 
    6.0041039640957317E-01 
    5.9219807422736837E-01 
    5.8075216440476274E-01 
    5.6324268516272302E-01 
    5.3355595779031784E-01 
    4.7437914899231876E-01 
    3.2262733514815134E-01 
    6.0712751179738877E-01 
    6.0461168914015795E-01 
    6.0161901581030308E-01 
    5.9849483466810893E-01 
    5.9598499011720418E-01 
    5.9345911857461786E-01 
    5.9107582741509068E-01 
    5.8887460730585450E-01 
    5.8693480956778399E-01 
    5.8448505655913863E-01 
    5.8075216440468524E-01 
    5.7437527422073942E-01 
    5.6266533488786707E-01 
    5.3985673657808386E-01 
    4.8998029801076010E-01 
    3.5137179367220545E-01 
    5.6246379466290120E-01 
    5.6100015937366698E-01 
    5.5949102948531881E-01 
    5.5818554157104605E-01 
    5.5748344451511100E-01 
    5.5730947927466923E-01 
    5.5771449957901564E-01 
    5.5871233918860985E-01 
    5.6027189996139204E-01 
    5.6202210063221680E-01 
    5.6324268516253340E-01 
    5.6266533488775672E-01 
    5.5786749039335071E-01 
    5.4362633651489378E-01 
    5.0567138069957818E-01 
    3.8463415796260930E-01 
    5.0576112736453371E-01 
    5.0509879509020061E-01 
    5.0464801602131415E-01 
    5.0447759797842140E-01 
    5.0605537365021558E-01 
    5.0804016403142072E-01 
    5.1091866035135447E-01 
    5.1477146793160666E-01 
    5.2039673958907673E-01 
    5.2674026288505515E-01 
    5.3355595778997311E-01 
    5.3985673657783806E-01 
    5.4362633651477510E-01 
    5.4020752010641215E-01 
    5.1741544422436725E-01 
    4.2060972404432362E-01 
    4.1539443259062553E-01 
    4.1533390700023559E-01 
    4.1578583995222390E-01 
    4.1690803982873270E-01 
    4.2020551830056818E-01 
    4.2450904966057268E-01 
    4.3026181071355601E-01 
    4.3771542365979682E-01 
    4.4794837019016465E-01 
    4.6015325939269275E-01 
    4.7437914899186118E-01 
    4.8998029801038689E-01 
    5.0567138069933459E-01 
    5.1741544422426600E-01 
    5.1520055390315567E-01 
    4.5361229712063089E-01 
    2.1295244069676761E-01 
    2.1311026691454818E-01 
    2.1441217030367341E-01 
    2.1717950179197770E-01 
    2.2367883308557154E-01 
    2.3244923077228408E-01 
    2.4382706756427133E-01 
    2.5796958627155925E-01 
    2.7616223649364824E-01 
    2.9754199959073019E-01 
    3.2262733514765207E-01 
    3.5137179367183663E-01 
    3.8463415796243039E-01 
    4.2060972404436980E-01 
    4.5361229712065348E-01 
    4.5282924052698076E-01 
