# vtk DataFile Version 2.0
Pressure Field Data 
ASCII 
DATASET UNSTRUCTURED_GRID 

POINTS 289 double 

    0.0000000000000000E+00     0.0000000000000000E+00     0.0000000000000000E+00 
    1.0000000000000000E+00     0.0000000000000000E+00     0.0000000000000000E+00 
    1.0000000000000000E+00     1.0000000000000000E+00     0.0000000000000000E+00 
    0.0000000000000000E+00     1.0000000000000000E+00     0.0000000000000000E+00 
    6.2499999999872928E-02     0.0000000000000000E+00     0.0000000000000000E+00 
    1.2499999999977310E-01     0.0000000000000000E+00     0.0000000000000000E+00 
    1.8749999999959341E-01     0.0000000000000000E+00     0.0000000000000000E+00 
    2.4999999999941089E-01     0.0000000000000000E+00     0.0000000000000000E+00 
    3.1249999999922851E-01     0.0000000000000000E+00     0.0000000000000000E+00 
    3.7499999999904610E-01     0.0000000000000000E+00     0.0000000000000000E+00 
    4.3749999999886358E-01     0.0000000000000000E+00     0.0000000000000000E+00 
    4.9999999999869210E-01     0.0000000000000000E+00     0.0000000000000000E+00 
    5.6249999999884603E-01     0.0000000000000000E+00     0.0000000000000000E+00 
    6.2499999999901090E-01     0.0000000000000000E+00     0.0000000000000000E+00 
    6.8749999999917577E-01     0.0000000000000000E+00     0.0000000000000000E+00 
    7.4999999999934064E-01     0.0000000000000000E+00     0.0000000000000000E+00 
    8.1249999999950551E-01     0.0000000000000000E+00     0.0000000000000000E+00 
    8.7499999999967026E-01     0.0000000000000000E+00     0.0000000000000000E+00 
    9.3749999999983513E-01     0.0000000000000000E+00     0.0000000000000000E+00 
    1.0000000000000000E+00     6.2499999999872928E-02     0.0000000000000000E+00 
    1.0000000000000000E+00     1.2499999999977310E-01     0.0000000000000000E+00 
    1.0000000000000000E+00     1.8749999999959341E-01     0.0000000000000000E+00 
    1.0000000000000000E+00     2.4999999999941089E-01     0.0000000000000000E+00 
    1.0000000000000000E+00     3.1249999999922851E-01     0.0000000000000000E+00 
    1.0000000000000000E+00     3.7499999999904610E-01     0.0000000000000000E+00 
    1.0000000000000000E+00     4.3749999999886358E-01     0.0000000000000000E+00 
    1.0000000000000000E+00     4.9999999999869210E-01     0.0000000000000000E+00 
    1.0000000000000000E+00     5.6249999999884603E-01     0.0000000000000000E+00 
    1.0000000000000000E+00     6.2499999999901090E-01     0.0000000000000000E+00 
    1.0000000000000000E+00     6.8749999999917577E-01     0.0000000000000000E+00 
    1.0000000000000000E+00     7.4999999999934064E-01     0.0000000000000000E+00 
    1.0000000000000000E+00     8.1249999999950551E-01     0.0000000000000000E+00 
    1.0000000000000000E+00     8.7499999999967026E-01     0.0000000000000000E+00 
    1.0000000000000000E+00     9.3749999999983513E-01     0.0000000000000000E+00 
    9.3749999999973976E-01     1.0000000000000000E+00     0.0000000000000000E+00 
    8.7499999999950118E-01     1.0000000000000000E+00     0.0000000000000000E+00 
    8.1249999999991318E-01     1.0000000000000000E+00     0.0000000000000000E+00 
    7.5000000000034706E-01     1.0000000000000000E+00     0.0000000000000000E+00 
    6.8750000000078049E-01     1.0000000000000000E+00     0.0000000000000000E+00 
    6.2500000000121403E-01     1.0000000000000000E+00     0.0000000000000000E+00 
    5.6250000000164757E-01     1.0000000000000000E+00     0.0000000000000000E+00 
    5.0000000000205946E-01     1.0000000000000000E+00     0.0000000000000000E+00 
    4.3750000000182099E-01     1.0000000000000000E+00     0.0000000000000000E+00 
    3.7500000000156092E-01     1.0000000000000000E+00     0.0000000000000000E+00 
    3.1250000000130068E-01     1.0000000000000000E+00     0.0000000000000000E+00 
    2.5000000000104050E-01     1.0000000000000000E+00     0.0000000000000000E+00 
    1.8750000000078040E-01     1.0000000000000000E+00     0.0000000000000000E+00 
    1.2500000000052031E-01     1.0000000000000000E+00     0.0000000000000000E+00 
    6.2500000000260125E-02     1.0000000000000000E+00     0.0000000000000000E+00 
    0.0000000000000000E+00     9.3749999999973976E-01     0.0000000000000000E+00 
    0.0000000000000000E+00     8.7499999999950118E-01     0.0000000000000000E+00 
    0.0000000000000000E+00     8.1249999999991318E-01     0.0000000000000000E+00 
    0.0000000000000000E+00     7.5000000000034706E-01     0.0000000000000000E+00 
    0.0000000000000000E+00     6.8750000000078049E-01     0.0000000000000000E+00 
    0.0000000000000000E+00     6.2500000000121403E-01     0.0000000000000000E+00 
    0.0000000000000000E+00     5.6250000000164757E-01     0.0000000000000000E+00 
    0.0000000000000000E+00     5.0000000000205946E-01     0.0000000000000000E+00 
    0.0000000000000000E+00     4.3750000000182099E-01     0.0000000000000000E+00 
    0.0000000000000000E+00     3.7500000000156092E-01     0.0000000000000000E+00 
    0.0000000000000000E+00     3.1250000000130068E-01     0.0000000000000000E+00 
    0.0000000000000000E+00     2.5000000000104050E-01     0.0000000000000000E+00 
    0.0000000000000000E+00     1.8750000000078040E-01     0.0000000000000000E+00 
    0.0000000000000000E+00     1.2500000000052031E-01     0.0000000000000000E+00 
    0.0000000000000000E+00     6.2500000000260125E-02     0.0000000000000000E+00 
    6.2499999999897131E-02     6.2500000000235922E-02     0.0000000000000000E+00 
    6.2499999999921327E-02     1.2500000000047351E-01     0.0000000000000000E+00 
    6.2499999999945530E-02     1.8750000000070621E-01     0.0000000000000000E+00 
    6.2499999999969733E-02     2.5000000000093858E-01     0.0000000000000000E+00 
    6.2499999999993928E-02     3.1250000000117117E-01     0.0000000000000000E+00 
    6.2500000000018124E-02     3.7500000000140382E-01     0.0000000000000000E+00 
    6.2500000000042327E-02     4.3750000000163619E-01     0.0000000000000000E+00 
    6.2500000000066530E-02     5.0000000000184897E-01     0.0000000000000000E+00 
    6.2500000000090733E-02     5.6250000000147260E-01     0.0000000000000000E+00 
    6.2500000000114922E-02     6.2500000000107636E-01     0.0000000000000000E+00 
    6.2500000000139125E-02     6.8750000000068034E-01     0.0000000000000000E+00 
    6.2500000000163328E-02     7.5000000000028411E-01     0.0000000000000000E+00 
    6.2500000000187531E-02     8.1249999999988787E-01     0.0000000000000000E+00 
    6.2500000000211720E-02     8.7499999999951172E-01     0.0000000000000000E+00 
    6.2500000000235922E-02     9.3749999999974565E-01     0.0000000000000000E+00 
    1.2499999999981980E-01     6.2500000000211733E-02     0.0000000000000000E+00 
    1.2499999999986650E-01     1.2500000000042691E-01     0.0000000000000000E+00 
    1.2499999999991319E-01     1.8750000000063199E-01     0.0000000000000000E+00 
    1.2499999999995989E-01     2.5000000000083678E-01     0.0000000000000000E+00 
    1.2500000000000661E-01     3.1250000000104172E-01     0.0000000000000000E+00 
    1.2500000000005329E-01     3.7500000000124661E-01     0.0000000000000000E+00 
    1.2500000000010000E-01     4.3750000000145117E-01     0.0000000000000000E+00 
    1.2500000000014669E-01     5.0000000000163858E-01     0.0000000000000000E+00 
    1.2500000000019340E-01     5.6250000000129741E-01     0.0000000000000000E+00 
    1.2500000000024011E-01     6.2500000000093847E-01     0.0000000000000000E+00 
    1.2500000000028680E-01     6.8750000000057998E-01     0.0000000000000000E+00 
    1.2500000000033351E-01     7.5000000000022127E-01     0.0000000000000000E+00 
    1.2500000000038020E-01     8.1249999999986211E-01     0.0000000000000000E+00 
    1.2500000000042691E-01     8.7499999999952238E-01     0.0000000000000000E+00 
    1.2500000000047359E-01     9.3749999999975164E-01     0.0000000000000000E+00 
    1.8749999999966760E-01     6.2500000000187531E-02     0.0000000000000000E+00 
    1.8749999999974179E-01     1.2500000000038020E-01     0.0000000000000000E+00 
    1.8749999999981601E-01     1.8750000000055780E-01     0.0000000000000000E+00 
    1.8749999999989009E-01     2.5000000000073502E-01     0.0000000000000000E+00 
    1.8749999999996431E-01     3.1250000000091221E-01     0.0000000000000000E+00 
    1.8750000000003850E-01     3.7500000000108941E-01     0.0000000000000000E+00 
    1.8750000000011269E-01     4.3750000000126649E-01     0.0000000000000000E+00 
    1.8750000000018691E-01     5.0000000000142808E-01     0.0000000000000000E+00 
    1.8750000000026110E-01     5.6250000000112244E-01     0.0000000000000000E+00 
    1.8750000000033529E-01     6.2500000000080080E-01     0.0000000000000000E+00 
    1.8750000000040951E-01     6.8750000000047962E-01     0.0000000000000000E+00 
    1.8750000000048361E-01     7.5000000000015843E-01     0.0000000000000000E+00 
    1.8750000000055780E-01     8.1249999999983680E-01     0.0000000000000000E+00 
    1.8750000000063199E-01     8.7499999999953304E-01     0.0000000000000000E+00 
    1.8750000000070621E-01     9.3749999999975764E-01     0.0000000000000000E+00 
    2.4999999999951281E-01     6.2500000000163314E-02     0.0000000000000000E+00 
    2.4999999999961461E-01     1.2500000000033351E-01     0.0000000000000000E+00 
    2.4999999999971650E-01     1.8750000000048361E-01     0.0000000000000000E+00 
    2.4999999999981831E-01     2.5000000000063310E-01     0.0000000000000000E+00 
    2.4999999999992020E-01     3.1250000000078260E-01     0.0000000000000000E+00 
    2.5000000000002198E-01     3.7500000000093209E-01     0.0000000000000000E+00 
    2.5000000000012390E-01     4.3750000000108180E-01     0.0000000000000000E+00 
    2.5000000000022571E-01     5.0000000000121769E-01     0.0000000000000000E+00 
    2.5000000000032763E-01     5.6250000000094724E-01     0.0000000000000000E+00 
    2.5000000000042938E-01     6.2500000000066314E-01     0.0000000000000000E+00 
    2.5000000000053119E-01     6.8750000000037925E-01     0.0000000000000000E+00 
[...]
CELL_DATA 256 
SCALARS Pressure double 1 
LOOKUP_TABLE default 

    1.7533298478541137E+00 
    1.6481946954346047E+00 
    1.5802731839173612E+00 
    1.5297499981515432E+00 
    1.4885538434945471E+00 
    1.4530939903422075E+00 
    1.4216430667194146E+00 
    1.3933486859721818E+00 
    1.3678217959377270E+00 
    1.3449433999928875E+00 
    1.3247593118170338E+00 
    1.3074101875944708E+00 
    1.2930704275939220E+00 
    1.2818860561460104E+00 
    1.2738720034795565E+00 
    1.2691575502958721E+00 
    1.6481946954351612E+00 
    1.6046521401655567E+00 
    1.5584758882833691E+00 
    1.5167643458018378E+00 
    1.4796425457674034E+00 
    1.4462661330841042E+00 
    1.4159424387731561E+00 
    1.3882591884213995E+00 
    1.3630385387451274E+00 
    1.3402747441158207E+00 
    1.3200825014555242E+00 
    1.3026512330975770E+00 
    1.2881947653925967E+00 
    1.2768904570156006E+00 
    1.2687769169925704E+00 
    1.2639996795476425E+00 
    1.5802731839181381E+00 
    1.5584758882837413E+00 
    1.5279611785023390E+00 
    1.4955408593429078E+00 
    1.4637905545868786E+00 
    1.4335404507609553E+00 
    1.4050319116426944E+00 
    1.3783620401467962E+00 
    1.3536411754508182E+00 
    1.3310374065046440E+00 
    1.3107812864181729E+00 
    1.2931495725010087E+00 
    1.2784301642389526E+00 
    1.2668617099347605E+00 
    1.2585314793959930E+00 
    1.2536184944641990E+00 
    1.5297499981524718E+00 
    1.5167643458024580E+00 
    1.4955408593431989E+00 
    1.4702451283673859E+00 
    1.4433852770202003E+00 
    1.4163125279748165E+00 
    1.3897645998335355E+00 
    1.3642017636602806E+00 
    1.3399848379177315E+00 
    1.3174585559500442E+00 
    1.2969874398891410E+00 
    1.2789600222596216E+00 
    1.2637646739608008E+00 
    1.2517310438944358E+00 
    1.2430258020041043E+00 
    1.2378803922259041E+00 
    1.4885538434955907E+00 
    1.4796425457681937E+00 
    1.4637905545873839E+00 
    1.4433852770204341E+00 
    1.4203238686353494E+00 
    1.3959225540626916E+00 
    1.3710765773005762E+00 
    1.3464350972771766E+00 
    1.3225288842766167E+00 
    1.2998488440201341E+00 
    1.2788898988194513E+00 
    1.2601648332265576E+00 
    1.2441845069695319E+00 
    1.2314025988600341E+00 
    1.2220995259402498E+00 
    1.2165811979963788E+00 
    1.4530939903433486E+00 
    1.4462661330850222E+00 
    1.4335404507616230E+00 
    1.4163125279752378E+00 
    1.3959225540628890E+00 
    1.3734751021448939E+00 
    1.3498428147282828E+00 
    1.3257360278169623E+00 
    1.3017783877753102E+00 
    1.2785662525169517E+00 
    1.2567104440470216E+00 
    1.2368531993882399E+00 
    1.2196524919344740E+00 
    1.2057241754682972E+00 
    1.1955030938123326E+00 
    1.1894046408969285E+00 
    1.4216430667206419E+00 
    1.4159424387741764E+00 
    1.4050319116434895E+00 
    1.3897645998341073E+00 
    1.3710765773009401E+00 
    1.3498428147284574E+00 
    1.3268379567026936E+00 
    1.3027560267806244E+00 
    1.2782536526697967E+00 
    1.2539934258286749E+00 
    1.2306836752640398E+00 
    1.2090991868449539E+00 
    1.1900730109026010E+00 
    1.1744304722003853E+00 
    1.1628256258603953E+00 
    1.1558455322609225E+00 
    1.3933486859734703E+00 
    1.3882591884224924E+00 
    1.3783620401476853E+00 
    1.3642017636609702E+00 
    1.3464350972776793E+00 
    1.3257360278172921E+00 
    1.3027560267807896E+00 
    1.2781280899499181E+00 
    1.2524960199897266E+00 
    1.2265515171924952E+00 
    1.2010776910256815E+00 
    1.1769821780353873E+00 
    1.1553022950231746E+00 
    1.1371388637160635E+00 
    1.1234690814457959E+00 
    1.1151556296262970E+00 
    1.3678217959388375E+00 
    1.3630385387460835E+00 
    1.3536411754516222E+00 
    1.3399848379183932E+00 
    1.3225288842771470E+00 
    1.3017783877757179E+00 
    1.2782536526700845E+00 
    1.2524960199898869E+00 
    1.2250960392307413E+00 
    1.1967334770113121E+00 
    1.1682326235323501E+00 
    1.1406224803656519E+00 
    1.1151715404028615E+00 
    1.0933463593951764E+00 
    1.0766040858288255E+00 
    1.0662599391509548E+00 
    1.3449433999936797E+00 
    1.3402747441165139E+00 
    1.3310374065052506E+00 
    1.3174585559505787E+00 
    1.2998488440206102E+00 
    1.2785662525173793E+00 
    1.2539934258290568E+00 
    1.2265515171928243E+00 
    1.1967334770115223E+00 
    1.1651521184321356E+00 
    1.1326156603600299E+00 
    1.1002329046695571E+00 
    1.0695111711850736E+00 
    1.0423857593403743E+00 
    1.0210294840766223E+00 
    1.0075359287494390E+00 
    1.3247593118175480E+00 
    1.3200825014559860E+00 
    1.3107812864186033E+00 
    1.2969874398895622E+00 
    1.2788898988198829E+00 
    1.2567104440474792E+00 
    1.2306836752645343E+00 
    1.2010776910262115E+00 
    1.1682326235328200E+00 
    1.1326156603603015E+00 
    1.0949191595479131E+00 
    1.0562286574904538E+00 
    1.0182298627290542E+00 
    9.8339871335068796E-01 
    9.5496549001508813E-01 
    9.3642373321104289E-01 
    1.3074101875947532E+00 
    1.3026512330978461E+00 
    1.2931495725012927E+00 
    1.2789600222599524E+00 
    1.2601648332269635E+00 
    1.2368531993887479E+00 
    1.2090991868455871E+00 
    1.1769821780361589E+00 
    1.1406224803664400E+00 
    1.1002329046701700E+00 
    1.0562286574908080E+00 
    1.0094587787872764E+00 
    9.6156409409149846E-01 
    9.1547576331672320E-01 
    8.7585879032769653E-01 
    8.4876708016773450E-01 
    1.2930704275940230E+00 
    1.2881947653927155E+00 
    1.2784301642391256E+00 
    1.2637646739610711E+00 
    1.2441845069699391E+00 
    1.2196524919350584E+00 
    1.1900730109034037E+00 
    1.1553022950242311E+00 
    1.1151715404040283E+00 
    1.0695111711861003E+00 
    1.0182298627298503E+00 
    9.6156409409195975E-01 
    9.0056916238393181E-01 
    8.3806226972669429E-01 
    7.8015102134009706E-01 
    7.3739347442922876E-01 
    1.2818860561459855E+00 
    1.2768904570156170E+00 
    1.2668617099348640E+00 
    1.2517310438946807E+00 
    1.2314025988604733E+00 
    1.2057241754689871E+00 
    1.1744304722013879E+00 
    1.1371388637174420E+00 
    1.0933463593967707E+00 
    1.0423857593418722E+00 
    9.8339871335199602E-01 
    9.1547576331773806E-01 
    8.3806226972727882E-01 
    7.5214807525196792E-01 
    6.6340352444085082E-01 
    5.8856569870241870E-01 
    1.2738720034795143E+00 
    1.2687769169925804E+00 
    1.2585314793961102E+00 
    1.2430258020043952E+00 
    1.2220995259407810E+00 
    1.1955030938131761E+00 
    1.1628256258616345E+00 
    1.1234690814475234E+00 
    1.0766040858308623E+00 
    1.0210294840785861E+00 
    9.5496549001687625E-01 
    8.7585879032919312E-01 
    7.8015102134113579E-01 
    6.6340352444120798E-01 
    5.2284634460157076E-01 
    3.7177476711892310E-01 
    1.2691575502958439E+00 
    1.2639996795476733E+00 
    1.2536184944643529E+00 
    1.2378803922262602E+00 
    1.2165811979970160E+00 
    1.1894046408979355E+00 
    1.1558455322624022E+00 
    1.1151556296283682E+00 
    1.0662599391534184E+00 
    1.0075359287518433E+00 
    9.3642373321327277E-01 
    8.4876708016965130E-01 
    7.3739347443060677E-01 
    5.8856569870284381E-01 
    3.7177476711842478E-01 
    0.0000000000000000E+00 

SCALARS Saturarion double 1 
LOOKUP_TABLE default 

    1.0000000000000000E+00 
    9.6490274953405353E-01 
    9.3268561762366364E-01 
    8.9736288775752993E-01 
    8.6064600943222624E-01 
    8.2396763704818277E-01 
    7.8774438235561983E-01 
    7.5211027974197353E-01 
    7.1671557700090216E-01 
    6.8121186059597405E-01 
    6.4461270841100304E-01 
    6.0552283675851415E-01 
    5.6070744744455736E-01 
    5.0369595097289743E-01 
    4.1251118709411627E-01 
    2.0834437477373549E-01 
    9.6490274953419708E-01 
    9.4042426755856856E-01 
    9.1112397610719764E-01 
    8.7894980741060158E-01 
    8.4523246583052047E-01 
    8.1123033753879203E-01 
    7.7732963327957816E-01 
    7.4373708898373780E-01 
    7.1013110485883313E-01 
    6.7616833620682504E-01 
    6.4090862111832614E-01 
    6.0299943453655658E-01 
    5.5923730145627337E-01 
    5.0302546298610296E-01 
    4.1243542143508966E-01 
    2.0845666461062010E-01 
    9.3268561762412971E-01 
    9.1112397610744245E-01 
    8.8483473346909514E-01 
    8.5598691019581497E-01 
    8.2564204683572118E-01 
    7.9477624822749271E-01 
    7.6374949352875998E-01 
    7.3278895079993533E-01 
    7.0159693611064367E-01 
    6.6971872088750217E-01 
    6.3629707628214616E-01 
    5.9999806017679924E-01 
    5.5772178412122642E-01 
    5.0256708356311541E-01 
    4.1287448400682919E-01 
    2.0972063388149648E-01 
    8.9736288775827611E-01 
    8.7894980741108675E-01 
    8.5598691019605611E-01 
    8.3057464590675156E-01 
    8.0374604918072112E-01 
    7.7628990591891012E-01 
    7.4849991687274586E-01 
    7.2046905432224218E-01 
    6.9197845180810191E-01 
    6.6252712885929266E-01 
    6.3131632731288956E-01 
    5.9686546853104461E-01 
    5.5641145692195326E-01 
    5.0238975014259590E-01 
    4.1398782163843628E-01 
    2.1246417661754294E-01 
    8.6064600943304537E-01 
    8.4523246583125411E-01 
    8.2564204683620213E-01 
    8.0374604918095360E-01 
    7.8047760000001365E-01 
    7.5647552862629497E-01 
    7.3198790181251028E-01 
    7.0714627685164311E-01 
    6.8162991195237932E-01 
    6.5502971707518032E-01 
    6.2638651816786439E-01 
    5.9435237135944430E-01 
    5.5570877834090693E-01 
    5.0397768323980874E-01 
    4.1730316973021109E-01 
    2.1904272169163869E-01 
    8.2396763704932086E-01 
    8.1123033753971929E-01 
    7.9477624822818604E-01 
    7.7628990591932900E-01 
    7.5647552862648992E-01 
    7.3596435533789772E-01 
    7.1482459449933133E-01 
    6.9322807719132895E-01 
    6.7077393562670828E-01 
    6.4713331154290199E-01 
    6.2127726365836644E-01 
    5.9182310171289487E-01 
    5.5553756829813039E-01 
    5.0597443118009477E-01 
    4.2163495076113666E-01 
    2.2793275873612437E-01 
    7.8774438235701338E-01 
    7.7732963328071647E-01 
    7.6374949352961174E-01 
    7.4849991687333461E-01 
    7.3198790181287665E-01 
    7.1482459449949309E-01 
    6.9701171908460213E-01 
    6.7871538221704530E-01 
    6.5948675729905792E-01 
    6.3892590748914735E-01 
    6.1605186645358967E-01 
    5.8943705297640503E-01 
    5.5594876093364554E-01 
    5.0887132879452601E-01 
    4.2743176678203010E-01 
    2.3946785444550275E-01 
    7.5211027974353473E-01 
    7.4373708898503066E-01 
    7.3278895080095985E-01 
    7.2046905432300745E-01 
    7.0714627685216858E-01 
    6.9322807719164048E-01 
    6.7871538221717853E-01 
    6.6368683309344312E-01 
    6.4775904276719287E-01 
    6.3043958914269138E-01 
    6.1077401177161428E-01 
    5.8723397257035337E-01 
    5.5695625753740330E-01 
    5.1274951855374451E-01 
    4.3494793142244265E-01 
    2.5380532895300362E-01 
    7.1671557700215016E-01 
    7.1013110485989739E-01 
    7.0159693611150364E-01 
    6.9197845180873874E-01 
    6.8162991195282385E-01 
    6.7077393562699572E-01 
    6.5948675729920303E-01 
    6.4775904276723872E-01 
    6.3525569241311597E-01 
    6.2139638479353354E-01 
    6.0524455185531778E-01 
    5.8529474507884072E-01 
    5.5852915597416131E-01 
    5.1841620986754311E-01 
    4.4527614314008845E-01 
    2.7224745179620397E-01 
    6.8121186059693295E-01 
    6.7616833620764905E-01 
    6.6971872088814199E-01 
    6.6252712885979625E-01 
    6.5502971707554591E-01 
    6.4713331154315024E-01 
    6.3892590748929046E-01 
    6.3043958914275944E-01 
    6.2139638479354431E-01 
    6.1117017761901982E-01 
    5.9881482038533096E-01 
    5.8284391641689404E-01 
    5.6029476586439053E-01 
    5.2480613594369163E-01 
    4.5759614234163626E-01 
    2.9389695670438554E-01 
    6.4461270841172447E-01 
    6.4090862111894420E-01 
    6.3629707628263465E-01 
    6.3131632731326548E-01 
    6.2638651816813540E-01 
    6.2127726365853586E-01 
    6.1605186645369603E-01 
    6.1077401177164892E-01 
    6.0524455185529480E-01 
    5.9881482038529421E-01 
    5.9058370780985614E-01 
    5.7910552932037773E-01 
    5.6152948548082215E-01 
    5.3167244657814772E-01 
    4.7195679802629520E-01 
    3.1926380041505359E-01 
    6.0552283675898932E-01 
    6.0299943453694838E-01 
    5.9999806017712065E-01 
    5.9686546853127720E-01 
    5.9435237135958952E-01 
    5.9182310171296870E-01 
    5.8943705297641269E-01 
    5.8723397257031784E-01 
    5.8529474507874579E-01 
    5.8284391641678357E-01 
    5.7910552932030346E-01 
    5.7271268946839260E-01 
    5.6095909781428466E-01 
    5.3802203533036508E-01 
    4.8770434651865402E-01 
    3.4828714085941798E-01 
    5.6070744744473677E-01 
    5.5923730145641881E-01 
    5.5772178412131557E-01 
    5.5641145692199023E-01 
    5.5570877834088983E-01 
    5.5553756829805379E-01 
    5.5594876093351753E-01 
    5.5695625753722422E-01 
    5.5852915597393926E-01 
    5.6029476586416049E-01 
    5.6152948548063264E-01 
    5.6095909781417375E-01 
    5.5614715910444645E-01 
    5.4182682042009289E-01 
    5.0354405392620327E-01 
    3.8182840685706193E-01 
    5.0369595097267150E-01 
    5.0302546298587081E-01 
    5.0256708356287549E-01 
    5.0238975014233467E-01 
    5.0397768323952119E-01 
    5.0597443117976637E-01 
    5.0887132879416053E-01 
    5.1274951855332673E-01 
    5.1841620986711368E-01 
    5.2480613594328129E-01 
    5.3167244657780144E-01 
    5.3802203533011583E-01 
    5.4182682041997354E-01 
    5.3839465527512242E-01 
    5.1540463445705043E-01 
    4.1806116061546506E-01 
    4.1251118709396722E-01 
    4.1243542143493239E-01 
    4.1287448400666854E-01 
    4.1398782163825343E-01 
    4.1730316972999643E-01 
    4.2163495076085722E-01 
    4.2743176678167250E-01 
    4.3494793142197469E-01 
    4.4527614313958475E-01 
    4.5759614234113316E-01 
    4.7195679802583557E-01 
    4.8770434651827765E-01 
    5.0354405392595891E-01 
    5.1540463445694662E-01 
    5.1317697976369359E-01 
    4.5126020190754523E-01 
    2.0834437477369294E-01 
    2.0845666461057688E-01 
    2.0972063388145062E-01 
    2.1246417661746711E-01 
    2.1904272169147401E-01 
    2.2793275873584443E-01 
    2.3946785444506680E-01 
    2.5380532895237062E-01 
    2.7224745179557164E-01 
    2.9389695670378918E-01 
    3.1926380041454683E-01 
    3.4828714085904416E-01 
    3.8182840685688108E-01 
    4.1806116061551141E-01 
    4.5126020190756810E-01 
    4.5047420052535037E-01 
