# vtk DataFile Version 2.0
Pressure Field Data 
ASCII 
DATASET UNSTRUCTURED_GRID 

POINTS 289 double 

    0.0000000000000000E+00     0.0000000000000000E+00     0.0000000000000000E+00 
    1.0000000000000000E+00     0.0000000000000000E+00     0.0000000000000000E+00 
    1.0000000000000000E+00     1.0000000000000000E+00     0.0000000000000000E+00 
    0.0000000000000000E+00     1.0000000000000000E+00     0.0000000000000000E+00 
    6.2499999999872928E-02     0.0000000000000000E+00     0.0000000000000000E+00 
    1.2499999999977310E-01     0.0000000000000000E+00     0.0000000000000000E+00 
    1.8749999999959341E-01     0.0000000000000000E+00     0.0000000000000000E+00 
    2.4999999999941089E-01     0.0000000000000000E+00     0.0000000000000000E+00 
    3.1249999999922851E-01     0.0000000000000000E+00     0.0000000000000000E+00 
    3.7499999999904610E-01     0.0000000000000000E+00     0.0000000000000000E+00 
    4.3749999999886358E-01     0.0000000000000000E+00     0.0000000000000000E+00 
    4.9999999999869210E-01     0.0000000000000000E+00     0.0000000000000000E+00 
    5.6249999999884603E-01     0.0000000000000000E+00     0.0000000000000000E+00 
    6.2499999999901090E-01     0.0000000000000000E+00     0.0000000000000000E+00 
    6.8749999999917577E-01     0.0000000000000000E+00     0.0000000000000000E+00 
    7.4999999999934064E-01     0.0000000000000000E+00     0.0000000000000000E+00 
    8.1249999999950551E-01     0.0000000000000000E+00     0.0000000000000000E+00 
    8.7499999999967026E-01     0.0000000000000000E+00     0.0000000000000000E+00 
    9.3749999999983513E-01     0.0000000000000000E+00     0.0000000000000000E+00 
    1.0000000000000000E+00     6.2499999999872928E-02     0.0000000000000000E+00 
    1.0000000000000000E+00     1.2499999999977310E-01     0.0000000000000000E+00 
    1.0000000000000000E+00     1.8749999999959341E-01     0.0000000000000000E+00 
    1.0000000000000000E+00     2.4999999999941089E-01     0.0000000000000000E+00 
    1.0000000000000000E+00     3.1249999999922851E-01     0.0000000000000000E+00 
    1.0000000000000000E+00     3.7499999999904610E-01     0.0000000000000000E+00 
    1.0000000000000000E+00     4.3749999999886358E-01     0.0000000000000000E+00 
    1.0000000000000000E+00     4.9999999999869210E-01     0.0000000000000000E+00 
    1.0000000000000000E+00     5.6249999999884603E-01     0.0000000000000000E+00 
    1.0000000000000000E+00     6.2499999999901090E-01     0.0000000000000000E+00 
    1.0000000000000000E+00     6.8749999999917577E-01     0.0000000000000000E+00 
    1.0000000000000000E+00     7.4999999999934064E-01     0.0000000000000000E+00 
    1.0000000000000000E+00     8.1249999999950551E-01     0.0000000000000000E+00 
    1.0000000000000000E+00     8.7499999999967026E-01     0.0000000000000000E+00 
    1.0000000000000000E+00     9.3749999999983513E-01     0.0000000000000000E+00 
    9.3749999999973976E-01     1.0000000000000000E+00     0.0000000000000000E+00 
    8.7499999999950118E-01     1.0000000000000000E+00     0.0000000000000000E+00 
    8.1249999999991318E-01     1.0000000000000000E+00     0.0000000000000000E+00 
    7.5000000000034706E-01     1.0000000000000000E+00     0.0000000000000000E+00 
    6.8750000000078049E-01     1.0000000000000000E+00     0.0000000000000000E+00 
    6.2500000000121403E-01     1.0000000000000000E+00     0.0000000000000000E+00 
    5.6250000000164757E-01     1.0000000000000000E+00     0.0000000000000000E+00 
    5.0000000000205946E-01     1.0000000000000000E+00     0.0000000000000000E+00 
    4.3750000000182099E-01     1.0000000000000000E+00     0.0000000000000000E+00 
    3.7500000000156092E-01     1.0000000000000000E+00     0.0000000000000000E+00 
    3.1250000000130068E-01     1.0000000000000000E+00     0.0000000000000000E+00 
    2.5000000000104050E-01     1.0000000000000000E+00     0.0000000000000000E+00 
    1.8750000000078040E-01     1.0000000000000000E+00     0.0000000000000000E+00 
    1.2500000000052031E-01     1.0000000000000000E+00     0.0000000000000000E+00 
    6.2500000000260125E-02     1.0000000000000000E+00     0.0000000000000000E+00 
    0.0000000000000000E+00     9.3749999999973976E-01     0.0000000000000000E+00 
    0.0000000000000000E+00     8.7499999999950118E-01     0.0000000000000000E+00 
    0.0000000000000000E+00     8.1249999999991318E-01     0.0000000000000000E+00 
    0.0000000000000000E+00     7.5000000000034706E-01     0.0000000000000000E+00 
    0.0000000000000000E+00     6.8750000000078049E-01     0.0000000000000000E+00 
    0.0000000000000000E+00     6.2500000000121403E-01     0.0000000000000000E+00 
    0.0000000000000000E+00     5.6250000000164757E-01     0.0000000000000000E+00 
    0.0000000000000000E+00     5.0000000000205946E-01     0.0000000000000000E+00 
    0.0000000000000000E+00     4.3750000000182099E-01     0.0000000000000000E+00 
    0.0000000000000000E+00     3.7500000000156092E-01     0.0000000000000000E+00 
    0.0000000000000000E+00     3.1250000000130068E-01     0.0000000000000000E+00 
    0.0000000000000000E+00     2.5000000000104050E-01     0.0000000000000000E+00 
    0.0000000000000000E+00     1.8750000000078040E-01     0.0000000000000000E+00 
    0.0000000000000000E+00     1.2500000000052031E-01     0.0000000000000000E+00 
    0.0000000000000000E+00     6.2500000000260125E-02     0.0000000000000000E+00 
    6.2499999999897131E-02     6.2500000000235922E-02     0.0000000000000000E+00 
    6.2499999999921327E-02     1.2500000000047351E-01     0.0000000000000000E+00 
    6.2499999999945530E-02     1.8750000000070621E-01     0.0000000000000000E+00 
    6.2499999999969733E-02     2.5000000000093858E-01     0.0000000000000000E+00 
    6.2499999999993928E-02     3.1250000000117117E-01     0.0000000000000000E+00 
    6.2500000000018124E-02     3.7500000000140382E-01     0.0000000000000000E+00 
    6.2500000000042327E-02     4.3750000000163619E-01     0.0000000000000000E+00 
    6.2500000000066530E-02     5.0000000000184897E-01     0.0000000000000000E+00 
    6.2500000000090733E-02     5.6250000000147260E-01     0.0000000000000000E+00 
    6.2500000000114922E-02     6.2500000000107636E-01     0.0000000000000000E+00 
    6.2500000000139125E-02     6.8750000000068034E-01     0.0000000000000000E+00 
    6.2500000000163328E-02     7.5000000000028411E-01     0.0000000000000000E+00 
    6.2500000000187531E-02     8.1249999999988787E-01     0.0000000000000000E+00 
    6.2500000000211720E-02     8.7499999999951172E-01     0.0000000000000000E+00 
    6.2500000000235922E-02     9.3749999999974565E-01     0.0000000000000000E+00 
    1.2499999999981980E-01     6.2500000000211733E-02     0.0000000000000000E+00 
    1.2499999999986650E-01     1.2500000000042691E-01     0.0000000000000000E+00 
    1.2499999999991319E-01     1.8750000000063199E-01     0.0000000000000000E+00 
    1.2499999999995989E-01     2.5000000000083678E-01     0.0000000000000000E+00 
    1.2500000000000661E-01     3.1250000000104172E-01     0.0000000000000000E+00 
    1.2500000000005329E-01     3.7500000000124661E-01     0.0000000000000000E+00 
    1.2500000000010000E-01     4.3750000000145117E-01     0.0000000000000000E+00 
    1.2500000000014669E-01     5.0000000000163858E-01     0.0000000000000000E+00 
    1.2500000000019340E-01     5.6250000000129741E-01     0.0000000000000000E+00 
    1.2500000000024011E-01     6.2500000000093847E-01     0.0000000000000000E+00 
    1.2500000000028680E-01     6.8750000000057998E-01     0.0000000000000000E+00 
    1.2500000000033351E-01     7.5000000000022127E-01     0.0000000000000000E+00 
    1.2500000000038020E-01     8.1249999999986211E-01     0.0000000000000000E+00 
    1.2500000000042691E-01     8.7499999999952238E-01     0.0000000000000000E+00 
    1.2500000000047359E-01     9.3749999999975164E-01     0.0000000000000000E+00 
    1.8749999999966760E-01     6.2500000000187531E-02     0.0000000000000000E+00 
    1.8749999999974179E-01     1.2500000000038020E-01     0.0000000000000000E+00 
    1.8749999999981601E-01     1.8750000000055780E-01     0.0000000000000000E+00 
    1.8749999999989009E-01     2.5000000000073502E-01     0.0000000000000000E+00 
    1.8749999999996431E-01     3.1250000000091221E-01     0.0000000000000000E+00 
    1.8750000000003850E-01     3.7500000000108941E-01     0.0000000000000000E+00 
    1.8750000000011269E-01     4.3750000000126649E-01     0.0000000000000000E+00 
    1.8750000000018691E-01     5.0000000000142808E-01     0.0000000000000000E+00 
    1.8750000000026110E-01     5.6250000000112244E-01     0.0000000000000000E+00 
    1.8750000000033529E-01     6.2500000000080080E-01     0.0000000000000000E+00 
    1.8750000000040951E-01     6.8750000000047962E-01     0.0000000000000000E+00 
    1.8750000000048361E-01     7.5000000000015843E-01     0.0000000000000000E+00 
    1.8750000000055780E-01     8.1249999999983680E-01     0.0000000000000000E+00 
    1.8750000000063199E-01     8.7499999999953304E-01     0.0000000000000000E+00 
    1.8750000000070621E-01     9.3749999999975764E-01     0.0000000000000000E+00 
    2.4999999999951281E-01     6.2500000000163314E-02     0.0000000000000000E+00 
    2.4999999999961461E-01     1.2500000000033351E-01     0.0000000000000000E+00 
    2.4999999999971650E-01     1.8750000000048361E-01     0.0000000000000000E+00 
    2.4999999999981831E-01     2.5000000000063310E-01     0.0000000000000000E+00 
    2.4999999999992020E-01     3.1250000000078260E-01     0.0000000000000000E+00 
    2.5000000000002198E-01     3.7500000000093209E-01     0.0000000000000000E+00 
    2.5000000000012390E-01     4.3750000000108180E-01     0.0000000000000000E+00 
    2.5000000000022571E-01     5.0000000000121769E-01     0.0000000000000000E+00 
    2.5000000000032763E-01     5.6250000000094724E-01     0.0000000000000000E+00 
    2.5000000000042938E-01     6.2500000000066314E-01     0.0000000000000000E+00 
    2.5000000000053119E-01     6.8750000000037925E-01     0.0000000000000000E+00 
[...]
CELL_DATA 256 
SCALARS Pressure double 1 
LOOKUP_TABLE default 

    1.7164136984713314E+00 
    1.6114677067289866E+00 
    1.5438214051866224E+00 
    1.4936118069731681E+00 
    1.4527552603488103E+00 
    1.4176516027660737E+00 
    1.3865647231784908E+00 
    1.3586338517219563E+00 
    1.3334614711043586E+00 
    1.3109199303703478E+00 
    1.2910464872916572E+00 
    1.2739743884944079E+00 
    1.2598744432638307E+00 
    1.2488976906929106E+00 
    1.2410779655589275E+00 
    1.2364798674762254E+00 
    1.6114677067295413E+00 
    1.5680721190648652E+00 
    1.5221380851179649E+00 
    1.4807219064870170E+00 
    1.4439296658648673E+00 
    1.4109042847621607E+00 
    1.3809427634329228E+00 
    1.3536235378980193E+00 
    1.3287596633491514E+00 
    1.3063362438567974E+00 
    1.2864589421678472E+00 
    1.2693092052401418E+00 
    1.2550966005397544E+00 
    1.2440030073083723E+00 
    1.2360859409350551E+00 
    1.2314259010838238E+00 
    1.5438214051873931E+00 
    1.5221380851183337E+00 
    1.4918303853802000E+00 
    1.4596808210427636E+00 
    1.4282446396882447E+00 
    1.3983372877392708E+00 
    1.3701882403881744E+00 
    1.3438841069732019E+00 
    1.3195251252774785E+00 
    1.2972693394420634E+00 
    1.2773373256474787E+00 
    1.2599967551420623E+00 
    1.2455299303463154E+00 
    1.2341789266584988E+00 
    1.2260495474951416E+00 
    1.2212551897467472E+00 
    1.4936118069740849E+00 
    1.4807219064876294E+00 
    1.4596808210430510E+00 
    1.4346349150224469E+00 
    1.4080749341058765E+00 
    1.3813376650810172E+00 
    1.3551484163185701E+00 
    1.3299561481989930E+00 
    1.3061106445704798E+00 
    1.2839455155097304E+00 
    1.2638139921878868E+00 
    1.2460938876434051E+00 
    1.2311660480046691E+00 
    1.2193616335784416E+00 
    1.2108644615496398E+00 
    1.2058396804512268E+00 
    1.4527552603498401E+00 
    1.4439296658656471E+00 
    1.4282446396887438E+00 
    1.4080749341061076E+00 
    1.3853039658145851E+00 
    1.3612350339523345E+00 
    1.3367513707869454E+00 
    1.3124905665359903E+00 
    1.2889716811652749E+00 
    1.2666734072820423E+00 
    1.2460778219436246E+00 
    1.2276848907585511E+00 
    1.2119954011654146E+00 
    1.1994615662435097E+00 
    1.1903785264545590E+00 
    1.1849851544469321E+00 
    1.4176516027672001E+00 
    1.4109042847630671E+00 
    1.3983372877399305E+00 
    1.3813376650814324E+00 
    1.3612350339525290E+00 
    1.3391229668023108E+00 
    1.3158630539744216E+00 
    1.2921542927108642E+00 
    1.2686082469667350E+00 
    1.2458080946794825E+00 
    1.2243501438300550E+00 
    1.2048613374843486E+00 
    1.1879861770983500E+00 
    1.1743349411818518E+00 
    1.1643540751371311E+00 
    1.1583904416754880E+00 
    1.3865647231797023E+00 
    1.3809427634339304E+00 
    1.3701882403889598E+00 
    1.3551484163191343E+00 
    1.3367513707873047E+00 
    1.3158630539745941E+00 
    1.2932483685879750E+00 
    1.2695906764318030E+00 
    1.2455345293207007E+00 
    1.2217286197084485E+00 
    1.1988651093436404E+00 
    1.1777006787879798E+00 
    1.1590505699055309E+00 
    1.1437291841602693E+00 
    1.1323976729117846E+00 
    1.1255710263137735E+00 
    1.3586338517232277E+00 
    1.3536235378990977E+00 
    1.3438841069740795E+00 
    1.3299561481996740E+00 
    1.3124905665364872E+00 
    1.2921542927111902E+00 
    1.2695906764319660E+00 
    1.2454231938098015E+00 
    1.2202840935036994E+00 
    1.1948508989408479E+00 
    1.1698891568737879E+00 
    1.1462853748739463E+00 
    1.1250539190926980E+00 
    1.1072776759193335E+00 
    1.0939340026757920E+00 
    1.0858067528890660E+00 
    1.3334614711054540E+00 
    1.3287596633500949E+00 
    1.3195251252782731E+00 
    1.3061106445711335E+00 
    1.2889716811657990E+00 
    1.2686082469671385E+00 
    1.2455345293209854E+00 
    1.2202840935038581E+00 
    1.1934371796871706E+00 
    1.1656598488138845E+00 
    1.1377581014488574E+00 
    1.1107369780470200E+00 
    1.0858362424928274E+00 
    1.0644952659296387E+00 
    1.0481612350596479E+00 
    1.0380593470961663E+00 
    1.3109199303711312E+00 
    1.3063362438574830E+00 
    1.2972693394426638E+00 
    1.2839455155102601E+00 
    1.2666734072825139E+00 
    1.2458080946799059E+00 
    1.2217286197088266E+00 
    1.1948508989411726E+00 
    1.1656598488140917E+00 
    1.1347563052359695E+00 
    1.1029308344737165E+00 
    1.0712664959259612E+00 
    1.0412359665161923E+00 
    1.0147357432401853E+00 
    9.9391404785439996E-01 
    9.8075606367200230E-01 
    1.2910464872921681E+00 
    1.2864589421683061E+00 
    1.2773373256479053E+00 
    1.2638139921883043E+00 
    1.2460778219440516E+00 
    1.2243501438305076E+00 
    1.1988651093441278E+00 
    1.1698891568743097E+00 
    1.1377581014493199E+00 
    1.1029308344739828E+00 
    1.0660852105689280E+00 
    1.0282818765695820E+00 
    9.9116764264335022E-01 
    9.5716665763619369E-01 
    9.2946272459962909E-01 
    9.1140977778089005E-01 
    1.2739743884946917E+00 
    1.2693092052404120E+00 
    1.2599967551423461E+00 
    1.2460938876437337E+00 
    1.2276848907589530E+00 
    1.2048613374848500E+00 
    1.1777006787886029E+00 
    1.1462853748747042E+00 
    1.1107369780477931E+00 
    1.0712664959265616E+00 
    1.0282818765699284E+00 
    9.8261352421260029E-01 
    9.3586489557925001E-01 
    8.9090497646769584E-01 
    8.5232251055594077E-01 
    8.2597861645712545E-01 
    1.2598744432639368E+00 
    1.2550966005398778E+00 
    1.2455299303464911E+00 
    1.2311660480049387E+00 
    1.2119954011658174E+00 
    1.1879861770989257E+00 
    1.1590505699063189E+00 
    1.1250539190937334E+00 
    1.0858362424939696E+00 
    1.0412359665171960E+00 
    9.9116764264412793E-01 
    9.3586489557969998E-01 
    8.7636077322713191E-01 
    8.1541437415945472E-01 
    7.5902889621058245E-01 
    7.1748310865777276E-01 
    1.2488976906928932E+00 
    1.2440030073083961E+00 
    1.2341789266586063E+00 
    1.2193616335786870E+00 
    1.1994615662439441E+00 
    1.1743349411825301E+00 
    1.1437291841612514E+00 
    1.1072776759206824E+00 
    1.0644952659311973E+00 
    1.0147357432416491E+00 
    9.5716665763747188E-01 
    8.9090497646868694E-01 
    8.1541437416002538E-01 
    7.3167314381135506E-01 
    6.4526781406218481E-01 
    5.7255611815175667E-01 
    1.2410779655588935E+00 
    1.2360859409350733E+00 
    1.2260495474952631E+00 
    1.2108644615499302E+00 
    1.1903785264550828E+00 
    1.1643540751379593E+00 
    1.1323976729129988E+00 
    1.0939340026774822E+00 
    1.0481612350616387E+00 
    9.9391404785631765E-01 
    9.2946272460137502E-01 
    8.5232251055740138E-01 
    7.5902889621159586E-01 
    6.4526781406253331E-01 
    5.0840579991882073E-01 
    3.6154288773606047E-01 
    1.2364798674762050E+00 
    1.2314259010838620E+00 
    1.2212551897469046E+00 
    1.2058396804515814E+00 
    1.1849851544475609E+00 
    1.1583904416764768E+00 
    1.1255710263152234E+00 
    1.0858067528910924E+00 
    1.0380593470985731E+00 
    9.8075606367434931E-01 
    9.1140977778306642E-01 
    8.2597861645899529E-01 
    7.1748310865911658E-01 
    5.7255611815217156E-01 
    3.6154288773557680E-01 
    0.0000000000000000E+00 

SCALARS Saturarion double 1 
LOOKUP_TABLE default 

    1.0000000000000000E+00 
    9.6618739171492674E-01 
    9.3496985684972800E-01 
    9.0057587677957074E-01 
    8.6467563443023021E-01 
    8.2868558261788894E-01 
    7.9304331578085507E-01 
    7.5790375876944238E-01 
    7.2294467016512232E-01 
    6.8783874189386440E-01 
    6.5163719395597453E-01 
    6.1300494580132403E-01 
    5.6888362694625094E-01 
    5.1326684597032013E-01 
    4.2575534156852779E-01 
    2.2975829898168390E-01 
    9.6618739171509116E-01 
    9.4249049448549971E-01 
    9.1400995228776361E-01 
    8.8260812184285320E-01 
    8.4958500207528043E-01 
    8.1618041693898125E-01 
    7.8279492242046145E-01 
    7.4964888092621895E-01 
    7.1644399625597754E-01 
    6.8285545024143468E-01 
    6.4797766255969469E-01 
    6.1051588789702593E-01 
    5.6744224592162040E-01 
    5.1263141938130896E-01 
    4.2574366951186604E-01 
    2.3006751795803138E-01 
    9.3496985685017975E-01 
    9.1400995228797044E-01 
    8.8837340082071847E-01 
    8.6014588470074149E-01 
    8.3036793610541837E-01 
    8.0000172970751948E-01 
    7.6941570471058585E-01 
    7.3884517920975934E-01 
    7.0801143516707354E-01 
    6.7647829468778065E-01 
    6.4341852854356418E-01 
    6.0755360772044142E-01 
    5.6595449883632654E-01 
    5.1220504725432714E-01 
    4.2623541373694418E-01 
    2.3148553194439800E-01 
    9.0057587678030371E-01 
    8.8260812184334980E-01 
    8.6014588470096254E-01 
    8.3521939260915101E-01 
    8.0884159079703510E-01 
    7.8179115995323067E-01 
    7.5436730267375507E-01 
    7.2667097777501910E-01 
    6.9849631854121230E-01 
    6.6935967154226073E-01 
    6.3848801244719366E-01 
    6.0445843877734096E-01 
    5.6466453658543880E-01 
    5.1205608861221885E-01 
    4.2738246844588051E-01 
    2.3430853375356822E-01 
    8.6467563443113460E-01 
    8.4958500207599685E-01 
    8.3036793610588400E-01 
    8.0884159079725759E-01 
    7.8592255515606091E-01 
    7.6224326754866156E-01 
    7.3805516629046442E-01 
    7.1349360249665306E-01 
    6.8825057028260805E-01 
    6.6192911995473969E-01 
    6.3359757841450026E-01 
    6.0195889536813030E-01 
    5.6396261218435462E-01 
    5.1359538185448161E-01 
    4.3061230564067660E-01 
    2.4051329202751334E-01 
    8.2868558261900971E-01 
    8.1618041693990695E-01 
    8.0000172970819117E-01 
    7.8179115995363702E-01 
    7.6224326754884408E-01 
    7.4198235490597042E-01 
    7.2108293138450763E-01 
    6.9971737514473564E-01 
    6.7749726946584499E-01 
    6.5410173935689653E-01 
    6.2852859290662921E-01 
    5.9944363601374673E-01 
    5.6377676403939048E-01 
    5.1553511822003173E-01 
    4.3481242089988253E-01 
    2.4883482644910140E-01 
    7.9304331578222820E-01 
    7.8279492242159587E-01 
    7.6941570471142762E-01 
    7.5436730267433771E-01 
    7.3805516629082679E-01 
    7.2108293138466373E-01 
    7.0345878918053206E-01 
    6.8534822474310930E-01 
    6.6631442486916292E-01 
    6.4596560806105852E-01 
    6.2334415649940500E-01 
    5.9706851056267896E-01 
    5.6415768020361301E-01 
    5.1834583273411416E-01 
    4.4040695841934507E-01 
    2.5962523571837692E-01 
    7.5790375877097715E-01 
    7.4964888092749193E-01 
    7.3884517921076531E-01 
    7.2667097777577094E-01 
    7.1349360249717464E-01 
    6.9971737514504073E-01 
    6.8534822474324697E-01 
    6.7046530323446174E-01 
    6.5469448563814969E-01 
    6.3755273168721260E-01 
    6.1810640726490196E-01 
    5.9487223216283014E-01 
    5.6511913201927100E-01 
    5.2210647315910808E-01 
    4.4763826194163925E-01 
    2.7305219408117448E-01 
    7.2294467016636232E-01 
    7.1644399625703403E-01 
    7.0801143516792020E-01 
    6.9849631854184391E-01 
    6.8825057028305403E-01 
    6.7749726946613076E-01 
    6.6631442486930770E-01 
    6.5469448563819799E-01 
    6.4230951664577818E-01 
    6.2859005924846789E-01 
    6.1261829186668870E-01 
    5.9292890780799168E-01 
    5.6662954471500915E-01 
    5.2758402126586434E-01 
    4.5753579360297242E-01 
    2.9034787020200448E-01 
    6.8783874189481697E-01 
    6.8285545024223859E-01 
    6.7647829468843079E-01 
    6.6935967154274989E-01 
    6.6192911995509807E-01 
    6.5410173935709193E-01 
    6.4596560806119274E-01 
    6.3755273168728144E-01 
    6.2859005924848232E-01 
    6.1846334252305646E-01 
    6.0624412611296064E-01 
    5.9048183340391125E-01 
    5.6832371349277999E-01 
    5.3376302896109318E-01 
    4.6933698980332023E-01 
    3.1076365025930069E-01 
    6.5163719395667818E-01 
    6.4797766256029943E-01 
    6.4341852854404380E-01 
    6.3848801244756248E-01 
    6.3359757841476472E-01 
    6.2852859290680563E-01 
    6.2334415649952002E-01 
    6.1810640726494326E-01 
    6.1261829186666850E-01 
    6.0624412611292910E-01 
    5.9809871164033801E-01 
    5.8676778710978039E-01 
    5.6949335834023374E-01 
    5.4040030067445854E-01 
    4.8309170732567047E-01 
    3.3484286491014942E-01 
    6.1300494580179521E-01 
    6.1051588789742017E-01 
    6.0755360772075095E-01 
    6.0445843877756555E-01 
    6.0195889536827674E-01 
    5.9944363601382322E-01 
    5.9706851056269594E-01 
    5.9487223216278939E-01 
    5.9292890780790186E-01 
    5.9048183340380556E-01 
    5.8676778710970134E-01 
    5.8044723415816091E-01 
    5.6889100195049846E-01 
    5.4652986705057438E-01 
    4.9818221369192861E-01 
    3.6258699354897739E-01 
    5.6888362694642580E-01 
    5.6744224592175130E-01 
    5.6595449883641724E-01 
    5.6466453658547278E-01 
    5.6396261218434063E-01 
    5.6377676403931787E-01 
    5.6415768020348145E-01 
    5.6511913201909569E-01 
    5.6662954471479354E-01 
    5.6832371349256183E-01 
    5.6949335834004500E-01 
    5.6889100195039022E-01 
    5.6414244849069173E-01 
    5.5017662638488973E-01 
    5.1335623091117799E-01 
    3.9484385986672271E-01 
    5.1326684597010408E-01 
    5.1263141938109513E-01 
    5.1220504725409821E-01 
    5.1205608861197272E-01 
    5.1359538185420572E-01 
    5.1553511821972531E-01 
    5.1834583273376256E-01 
    5.2210647315870617E-01 
    5.2758402126544746E-01 
    5.3376302896069461E-01 
    5.4040030067411959E-01 
    5.4652986705033513E-01 
    5.5017662638477405E-01 
    5.4680391225882341E-01 
    5.2469589457241728E-01 
    4.2988573399163521E-01 
    4.2575534156838268E-01 
    4.2574366951171028E-01 
    4.2623541373678742E-01 
    4.2738246844570438E-01 
    4.3061230564046510E-01 
    4.3481242089961658E-01 
    4.4040695841899785E-01 
    4.4763826194118572E-01 
    4.5753579360248625E-01 
    4.6933698980283522E-01 
    4.8309170732522849E-01 
    4.9818221369156834E-01 
    5.1335623091094207E-01 
    5.2469589457231758E-01 
    5.2252505344234601E-01 
    4.6216433939154877E-01 
    2.2975829898164590E-01 
    2.3006751795798905E-01 
    2.3148553194435331E-01 
    2.3430853375349533E-01 
    2.4051329202736349E-01 
    2.4883482644883961E-01 
    2.5962523571797180E-01 
    2.7305219408058951E-01 
    2.9034787020141539E-01 
    3.1076365025874386E-01 
    3.3484286490967347E-01 
    3.6258699354862500E-01 
    3.9484385986655351E-01 
    4.2988573399168312E-01 
    4.6216433939157342E-01 
    4.6139139059556017E-01 
