# vtk DataFile Version 2.0
Pressure Field Data 
ASCII 
DATASET UNSTRUCTURED_GRID 

POINTS 289 double 

    0.0000000000000000E+00     0.0000000000000000E+00     0.0000000000000000E+00 
    1.0000000000000000E+00     0.0000000000000000E+00     0.0000000000000000E+00 
    1.0000000000000000E+00     1.0000000000000000E+00     0.0000000000000000E+00 
    0.0000000000000000E+00     1.0000000000000000E+00     0.0000000000000000E+00 
    6.2499999999872928E-02     0.0000000000000000E+00     0.0000000000000000E+00 
    1.2499999999977310E-01     0.0000000000000000E+00     0.0000000000000000E+00 
    1.8749999999959341E-01     0.0000000000000000E+00     0.0000000000000000E+00 
    2.4999999999941089E-01     0.0000000000000000E+00     0.0000000000000000E+00 
    3.1249999999922851E-01     0.0000000000000000E+00     0.0000000000000000E+00 
    3.7499999999904610E-01     0.0000000000000000E+00     0.0000000000000000E+00 
    4.3749999999886358E-01     0.0000000000000000E+00     0.0000000000000000E+00 
    4.9999999999869210E-01     0.0000000000000000E+00     0.0000000000000000E+00 
    5.6249999999884603E-01     0.0000000000000000E+00     0.0000000000000000E+00 
    6.2499999999901090E-01     0.0000000000000000E+00     0.0000000000000000E+00 
    6.8749999999917577E-01     0.0000000000000000E+00     0.0000000000000000E+00 
    7.4999999999934064E-01     0.0000000000000000E+00     0.0000000000000000E+00 
    8.1249999999950551E-01     0.0000000000000000E+00     0.0000000000000000E+00 
    8.7499999999967026E-01     0.0000000000000000E+00     0.0000000000000000E+00 
    9.3749999999983513E-01     0.0000000000000000E+00     0.0000000000000000E+00 
    1.0000000000000000E+00     6.2499999999872928E-02     0.0000000000000000E+00 
    1.0000000000000000E+00     1.2499999999977310E-01     0.0000000000000000E+00 
    1.0000000000000000E+00     1.8749999999959341E-01     0.0000000000000000E+00 
    1.0000000000000000E+00     2.4999999999941089E-01     0.0000000000000000E+00 
    1.0000000000000000E+00     3.1249999999922851E-01     0.0000000000000000E+00 
    1.0000000000000000E+00     3.7499999999904610E-01     0.0000000000000000E+00 
    1.0000000000000000E+00     4.3749999999886358E-01     0.0000000000000000E+00 
    1.0000000000000000E+00     4.9999999999869210E-01     0.0000000000000000E+00 
    1.0000000000000000E+00     5.6249999999884603E-01     0.0000000000000000E+00 
    1.0000000000000000E+00     6.2499999999901090E-01     0.0000000000000000E+00 
    1.0000000000000000E+00     6.8749999999917577E-01     0.0000000000000000E+00 
    1.0000000000000000E+00     7.4999999999934064E-01     0.0000000000000000E+00 
    1.0000000000000000E+00     8.1249999999950551E-01     0.0000000000000000E+00 
    1.0000000000000000E+00     8.7499999999967026E-01     0.0000000000000000E+00 
    1.0000000000000000E+00     9.3749999999983513E-01     0.0000000000000000E+00 
    9.3749999999973976E-01     1.0000000000000000E+00     0.0000000000000000E+00 
    8.7499999999950118E-01     1.0000000000000000E+00     0.0000000000000000E+00 
    8.1249999999991318E-01     1.0000000000000000E+00     0.0000000000000000E+00 
    7.5000000000034706E-01     1.0000000000000000E+00     0.0000000000000000E+00 
    6.8750000000078049E-01     1.0000000000000000E+00     0.0000000000000000E+00 
    6.2500000000121403E-01     1.0000000000000000E+00     0.0000000000000000E+00 
    5.6250000000164757E-01     1.0000000000000000E+00     0.0000000000000000E+00 
    5.0000000000205946E-01     1.0000000000000000E+00     0.0000000000000000E+00 
    4.3750000000182099E-01     1.0000000000000000E+00     0.0000000000000000E+00 
    3.7500000000156092E-01     1.0000000000000000E+00     0.0000000000000000E+00 
    3.1250000000130068E-01     1.0000000000000000E+00     0.0000000000000000E+00 
    2.5000000000104050E-01     1.0000000000000000E+00     0.0000000000000000E+00 
    1.8750000000078040E-01     1.0000000000000000E+00     0.0000000000000000E+00 
    1.2500000000052031E-01     1.0000000000000000E+00     0.0000000000000000E+00 
    6.2500000000260125E-02     1.0000000000000000E+00     0.0000000000000000E+00 
    0.0000000000000000E+00     9.3749999999973976E-01     0.0000000000000000E+00 
    0.0000000000000000E+00     8.7499999999950118E-01     0.0000000000000000E+00 
    0.0000000000000000E+00     8.1249999999991318E-01     0.0000000000000000E+00 
    0.0000000000000000E+00     7.5000000000034706E-01     0.0000000000000000E+00 
    0.0000000000000000E+00     6.8750000000078049E-01     0.0000000000000000E+00 
    0.0000000000000000E+00     6.2500000000121403E-01     0.0000000000000000E+00 
    0.0000000000000000E+00     5.6250000000164757E-01     0.0000000000000000E+00 
    0.0000000000000000E+00     5.0000000000205946E-01     0.0000000000000000E+00 
    0.0000000000000000E+00     4.3750000000182099E-01     0.0000000000000000E+00 
    0.0000000000000000E+00     3.7500000000156092E-01     0.0000000000000000E+00 
    0.0000000000000000E+00     3.1250000000130068E-01     0.0000000000000000E+00 
    0.0000000000000000E+00     2.5000000000104050E-01     0.0000000000000000E+00 
    0.0000000000000000E+00     1.8750000000078040E-01     0.0000000000000000E+00 
    0.0000000000000000E+00     1.2500000000052031E-01     0.0000000000000000E+00 
    0.0000000000000000E+00     6.2500000000260125E-02     0.0000000000000000E+00 
    6.2499999999897131E-02     6.2500000000235922E-02     0.0000000000000000E+00 
    6.2499999999921327E-02     1.2500000000047351E-01     0.0000000000000000E+00 
    6.2499999999945530E-02     1.8750000000070621E-01     0.0000000000000000E+00 
    6.2499999999969733E-02     2.5000000000093858E-01     0.0000000000000000E+00 
    6.2499999999993928E-02     3.1250000000117117E-01     0.0000000000000000E+00 
    6.2500000000018124E-02     3.7500000000140382E-01     0.0000000000000000E+00 
    6.2500000000042327E-02     4.3750000000163619E-01     0.0000000000000000E+00 
    6.2500000000066530E-02     5.0000000000184897E-01     0.0000000000000000E+00 
    6.2500000000090733E-02     5.6250000000147260E-01     0.0000000000000000E+00 
    6.2500000000114922E-02     6.2500000000107636E-01     0.0000000000000000E+00 
    6.2500000000139125E-02     6.8750000000068034E-01     0.0000000000000000E+00 
    6.2500000000163328E-02     7.5000000000028411E-01     0.0000000000000000E+00 
    6.2500000000187531E-02     8.1249999999988787E-01     0.0000000000000000E+00 
    6.2500000000211720E-02     8.7499999999951172E-01     0.0000000000000000E+00 
    6.2500000000235922E-02     9.3749999999974565E-01     0.0000000000000000E+00 
    1.2499999999981980E-01     6.2500000000211733E-02     0.0000000000000000E+00 
    1.2499999999986650E-01     1.2500000000042691E-01     0.0000000000000000E+00 
    1.2499999999991319E-01     1.8750000000063199E-01     0.0000000000000000E+00 
    1.2499999999995989E-01     2.5000000000083678E-01     0.0000000000000000E+00 
    1.2500000000000661E-01     3.1250000000104172E-01     0.0000000000000000E+00 
    1.2500000000005329E-01     3.7500000000124661E-01     0.0000000000000000E+00 
    1.2500000000010000E-01     4.3750000000145117E-01     0.0000000000000000E+00 
    1.2500000000014669E-01     5.0000000000163858E-01     0.0000000000000000E+00 
    1.2500000000019340E-01     5.6250000000129741E-01     0.0000000000000000E+00 
    1.2500000000024011E-01     6.2500000000093847E-01     0.0000000000000000E+00 
    1.2500000000028680E-01     6.8750000000057998E-01     0.0000000000000000E+00 
    1.2500000000033351E-01     7.5000000000022127E-01     0.0000000000000000E+00 
    1.2500000000038020E-01     8.1249999999986211E-01     0.0000000000000000E+00 
    1.2500000000042691E-01     8.7499999999952238E-01     0.0000000000000000E+00 
    1.2500000000047359E-01     9.3749999999975164E-01     0.0000000000000000E+00 
    1.8749999999966760E-01     6.2500000000187531E-02     0.0000000000000000E+00 
    1.8749999999974179E-01     1.2500000000038020E-01     0.0000000000000000E+00 
    1.8749999999981601E-01     1.8750000000055780E-01     0.0000000000000000E+00 
    1.8749999999989009E-01     2.5000000000073502E-01     0.0000000000000000E+00 
    1.8749999999996431E-01     3.1250000000091221E-01     0.0000000000000000E+00 
    1.8750000000003850E-01     3.7500000000108941E-01     0.0000000000000000E+00 
    1.8750000000011269E-01     4.3750000000126649E-01     0.0000000000000000E+00 
    1.8750000000018691E-01     5.0000000000142808E-01     0.0000000000000000E+00 
    1.8750000000026110E-01     5.6250000000112244E-01     0.0000000000000000E+00 
    1.8750000000033529E-01     6.2500000000080080E-01     0.0000000000000000E+00 
    1.8750000000040951E-01     6.8750000000047962E-01     0.0000000000000000E+00 
    1.8750000000048361E-01     7.5000000000015843E-01     0.0000000000000000E+00 
    1.8750000000055780E-01     8.1249999999983680E-01     0.0000000000000000E+00 
    1.8750000000063199E-01     8.7499999999953304E-01     0.0000000000000000E+00 
    1.8750000000070621E-01     9.3749999999975764E-01     0.0000000000000000E+00 
    2.4999999999951281E-01     6.2500000000163314E-02     0.0000000000000000E+00 
    2.4999999999961461E-01     1.2500000000033351E-01     0.0000000000000000E+00 
    2.4999999999971650E-01     1.8750000000048361E-01     0.0000000000000000E+00 
    2.4999999999981831E-01     2.5000000000063310E-01     0.0000000000000000E+00 
    2.4999999999992020E-01     3.1250000000078260E-01     0.0000000000000000E+00 
    2.5000000000002198E-01     3.7500000000093209E-01     0.0000000000000000E+00 
    2.5000000000012390E-01     4.3750000000108180E-01     0.0000000000000000E+00 
    2.5000000000022571E-01     5.0000000000121769E-01     0.0000000000000000E+00 
    2.5000000000032763E-01     5.6250000000094724E-01     0.0000000000000000E+00 
    2.5000000000042938E-01     6.2500000000066314E-01     0.0000000000000000E+00 
    2.5000000000053119E-01     6.8750000000037925E-01     0.0000000000000000E+00 
[...]
CELL_DATA 256 
SCALARS Pressure double 1 
LOOKUP_TABLE default 

    1.6436702125542604E+00 
    1.5391011650812374E+00 
    1.4720026620985609E+00 
    1.4224179709647611E+00 
    1.3822388016186766E+00 
    1.3478459436409793E+00 
    1.3174855316941414E+00 
    1.2902796833204466E+00 
    1.2658135507374741E+00 
    1.2439416676296065E+00 
    1.2246834354127925E+00 
    1.2081559466519480E+00 
    1.1945199526367061E+00 
    1.1839305247095038E+00 
    1.1764507984512520E+00 
    1.1720667811999317E+00 
    1.5391011650817883E+00 
    1.4959983064296194E+00 
    1.4505466511916694E+00 
    1.4097193633817213E+00 
    1.3735847467971178E+00 
    1.3412601298094757E+00 
    1.3120215994841107E+00 
    1.2854286920248319E+00 
    1.2612758892931424E+00 
    1.2395295252644027E+00 
    1.2202764958476293E+00 
    1.2036810172666257E+00 
    1.1899413046233480E+00 
    1.1792421975764213E+00 
    1.1716701097138686E+00 
    1.1672266650337955E+00 
    1.4720026620993238E+00 
    1.4505466511920337E+00 
    1.4206518492808393E+00 
    1.3890427240644176E+00 
    1.3582339200801290E+00 
    1.3290113069373040E+00 
    1.3015803741900656E+00 
    1.2760064694992008E+00 
    1.2523693114015793E+00 
    1.2308064550120856E+00 
    1.2115179165046066E+00 
    1.1947520290533744E+00 
    1.1807771821970832E+00 
    1.1698361786390290E+00 
    1.1620625263533957E+00 
    1.1574900906945345E+00 
    1.4224179709656652E+00 
    1.4097193633823244E+00 
    1.3890427240646999E+00 
    1.3644961889877176E+00 
    1.3385358078256342E+00 
    1.3124693975600363E+00 
    1.2869972623091128E+00 
    1.2625455107543702E+00 
    1.2394416040672012E+00 
    1.2179966001482336E+00 
    1.1985406783825918E+00 
    1.1814292337555954E+00 
    1.1670255625684307E+00 
    1.1556578670123008E+00 
    1.1475348106192729E+00 
    1.1427409177786216E+00 
    1.3822388016196898E+00 
    1.3735847467978848E+00 
    1.3582339200806188E+00 
    1.3385358078258609E+00 
    1.3163463123544041E+00 
    1.2929427513795191E+00 
    1.2691841505606878E+00 
    1.2456847629213208E+00 
    1.2229400364191099E+00 
    1.2014040395947696E+00 
    1.1815328611764244E+00 
    1.1638001097152284E+00 
    1.1486842552954621E+00 
    1.1366289731121146E+00 
    1.1279496889305602E+00 
    1.1228030420101618E+00 
    1.3478459436420855E+00 
    1.3412601298103648E+00 
    1.3290113069379494E+00 
    1.3124693975604425E+00 
    1.2929427513797089E+00 
    1.2715027585649215E+00 
    1.2489887007920313E+00 
    1.2260767095230090E+00 
    1.2033540450882090E+00 
    1.1813774380497342E+00 
    1.1607140647536021E+00 
    1.1419598713265207E+00 
    1.1257306808371530E+00 
    1.1126205171575818E+00 
    1.1030901358246894E+00 
    1.0974010033186230E+00 
    1.3174855316953256E+00 
    1.3120215994850948E+00 
    1.3015803741908314E+00 
    1.2869972623096628E+00 
    1.2691841505610373E+00 
    1.2489887007921983E+00 
    1.2271560809374973E+00 
    1.2043481231403201E+00 
    1.1811851165992504E+00 
    1.1582879629756524E+00 
    1.1363165793490544E+00 
    1.1159913585234751E+00 
    1.0980907110971765E+00 
    1.0834026545029491E+00 
    1.0725938232979153E+00 
    1.0660870592544813E+00 
    1.2902796833216852E+00 
    1.2854286920258822E+00 
    1.2760064695000546E+00 
    1.2625455107550314E+00 
    1.2456847629218020E+00 
    1.2260767095233229E+00 
    1.2043481231404758E+00 
    1.1811031730432402E+00 
    1.1569508725967679E+00 
    1.1325404526781957E+00 
    1.1086025847241665E+00 
    1.0859817628229025E+00 
    1.0656457718765044E+00 
    1.0486376943958780E+00 
    1.0359265459305509E+00 
    1.0281917560521863E+00 
    1.2658135507385395E+00 
    1.2612758892940603E+00 
    1.2523693114023509E+00 
    1.2394416040678353E+00 
    1.2229400364196161E+00 
    1.2033540450885967E+00 
    1.1811851165995233E+00 
    1.1569508725969198E+00 
    1.1312107239025022E+00 
    1.1046033674814415E+00 
    1.0778985659109703E+00 
    1.0520539512408791E+00 
    1.0282516461682822E+00 
    1.0078733169344640E+00 
    9.9233713642452981E-01 
    9.8274385813191678E-01 
    1.2439416676303674E+00 
    1.2395295252650698E+00 
    1.2308064550126689E+00 
    1.2179966001487474E+00 
    1.2014040395952257E+00 
    1.1813774380501418E+00 
    1.1582879629760148E+00 
    1.1325404526785061E+00 
    1.1046033674816396E+00 
    1.0750535226442723E+00 
    1.0446465032167414E+00 
    1.0144145645657052E+00 
    9.8576135210296911E-01 
    9.6050295922360074E-01 
    9.4072818384237877E-01 
    9.2826470813490891E-01 
    1.2246834354132885E+00 
    1.2202764958480756E+00 
    1.2115179165050214E+00 
    1.1985406783829975E+00 
    1.1815328611768379E+00 
    1.1607140647540382E+00 
    1.1363165793495218E+00 
    1.1086025847246650E+00 
    1.0778985659114115E+00 
    1.0446465032169956E+00 
    1.0094953899987722E+00 
    9.7345678074617292E-01 
    9.3810025977784917E-01 
    9.0574408029677167E-01 
    8.7946730188489786E-01 
    8.6240907082406704E-01 
    1.2081559466522240E+00 
    1.2036810172668884E+00 
    1.1947520290536500E+00 
    1.1814292337559151E+00 
    1.1638001097156179E+00 
    1.1419598713270032E+00 
    1.1159913585240722E+00 
    1.0859817628236268E+00 
    1.0520539512416169E+00 
    1.0144145645662774E+00 
    9.7345678074650277E-01 
    9.2997417391421278E-01 
    8.8549609800564144E-01 
    8.4276525453610873E-01 
    8.0620442656769598E-01 
    7.8135965363052129E-01 
    1.1945199526368093E+00 
    1.1899413046234679E+00 
    1.1807771821972539E+00 
    1.1670255625686923E+00 
    1.1486842552958512E+00 
    1.1257306808377066E+00 
    1.0980907110979314E+00 
    1.0656457718774934E+00 
    1.0282516461693716E+00 
    9.8576135210392568E-01 
    9.3810025977858968E-01 
    8.8549609800606999E-01 
    8.2893763027535738E-01 
    7.7106579344635551E-01 
    7.1765981184191785E-01 
    6.7851590674323359E-01 
    1.1839305247094885E+00 
    1.1792421975764444E+00 
    1.1698361786391336E+00 
    1.1556578670125377E+00 
    1.1366289731125323E+00 
    1.1126205171582324E+00 
    1.0834026545038893E+00 
    1.0486376943971663E+00 
    1.0078733169359499E+00 
    9.6050295922499429E-01 
    9.0574408029798792E-01 
    8.4276525453705109E-01 
    7.7106579344689696E-01 
    6.9159765889143177E-01 
    6.0976159490165094E-01 
    5.4123405868856522E-01 
    1.1764507984512202E+00 
    1.1716701097138862E+00 
    1.1620625263535131E+00 
    1.1475348106195529E+00 
    1.1279496889310630E+00 
    1.1030901358254828E+00 
    1.0725938232990755E+00 
    1.0359265459321627E+00 
    9.9233713642642640E-01 
    9.4072818384420487E-01 
    8.7946730188655942E-01 
    8.0620442656908409E-01 
    7.1765981184288019E-01 
    6.0976159490198145E-01 
    4.8012292572660042E-01 
    3.4151439075021339E-01 
    1.1720667811999128E+00 
    1.1672266650338328E+00 
    1.1574900906946866E+00 
    1.1427409177789623E+00 
    1.1228030420107644E+00 
    1.0974010033195687E+00 
    1.0660870592558647E+00 
    1.0281917560541169E+00 
    9.8274385813420861E-01 
    9.2826470813714257E-01 
    8.6240907082613572E-01 
    7.8135965363229620E-01 
    6.7851590674450846E-01 
    5.4123405868895857E-01 
    3.4151439074975748E-01 
    0.0000000000000000E+00 

SCALARS Saturarion double 1 
LOOKUP_TABLE default 

    1.0000000000000000E+00 
    9.6874999834234077E-01 
    9.3955780450273663E-01 
    9.0707099680054148E-01 
    8.7286737693153993E-01 
    8.3832185208563470E-01 
    8.0390814246396614E-01 
    7.6981983440210378E-01 
    7.3578847749564713E-01 
    7.0152749024589656E-01 
    6.6616073925711272E-01 
    6.2846257672629624E-01 
    5.8568629627495095E-01 
    5.3263398805093753E-01 
    4.5171105552532004E-01 
    2.7293320246775199E-01 
    9.6874999834249098E-01 
    9.4663362148144525E-01 
    9.1982913085387430E-01 
    8.9002425870297786E-01 
    8.5845057336265895E-01 
    8.2630422830151695E-01 
    7.9401027988407513E-01 
    7.6181394140926129E-01 
    7.2946266106810831E-01 
    6.9666738704437892E-01 
    6.6258895956849517E-01 
    6.2603704326805076E-01 
    5.8429260931248950E-01 
    5.3204996080879863E-01 
    4.5178488737427458E-01 
    2.7352031374338487E-01 
    9.3955780450318349E-01 
    9.1982913085407703E-01 
    8.9553941184261299E-01 
    8.6860389699451102E-01 
    8.4001588397601223E-01 
    8.1070519248290496E-01 
    7.8105434306282695E-01 
    7.5131327041961049E-01 
    7.2124069310305572E-01 
    6.9043661357266384E-01 
    6.5813086903601925E-01 
    6.2314450116175768E-01 
    5.8284721245760607E-01 
    5.3166501908494790E-01 
    4.5233513159930872E-01 
    2.7508870800163621E-01 
    9.0707099680124492E-01 
    8.9002425870346369E-01 
    8.6860389699473384E-01 
    8.4469563155733707E-01 
    8.1926823002852167E-01 
    7.9307702005301195E-01 
    7.6643041189350347E-01 
    7.3944439959522867E-01 
    7.1193876612320028E-01 
    6.8346389552507458E-01 
    6.5329508217464649E-01 
    6.2011327092758284E-01 
    5.8158280623226577E-01 
    5.3154676089946451E-01 
    4.5349914861490059E-01 
    2.7787074332077610E-01 
    8.7286737693245320E-01 
    8.5845057336336195E-01 
    8.4001588397644811E-01 
    8.1926823002874294E-01 
    7.9708804649067377E-01 
    7.7409279047340984E-01 
    7.5053954032904802E-01 
    7.2657064803183669E-01 
    7.0190361339716467E-01 
    6.7616517511859331E-01 
    6.4847600308308873E-01 
    6.1762956140596692E-01 
    5.8086756460442812E-01 
    5.3297551294940604E-01 
    4.5653444886540862E-01 
    2.8331372731944565E-01 
    8.3832185208672017E-01 
    8.2630422830238848E-01 
    8.1070519248355066E-01 
    7.9307702005341896E-01 
    7.7409279047360868E-01 
    7.5436131448525556E-01 
    7.3396921816646310E-01 
    7.1308961629463496E-01 
    6.9135920551069907E-01 
    6.6847261480178033E-01 
    6.4347868495578631E-01 
    6.1512964372036671E-01 
    5.8063794772572330E-01 
    5.3478792557817556E-01 
    4.6045909650294414E-01 
    2.9049013463722362E-01 
    8.0390814246528641E-01 
    7.9401027988517370E-01 
    7.8105434306364530E-01 
    7.6643041189406658E-01 
    7.5053954032941028E-01 
    7.3396921816661365E-01 
    7.1674042570940288E-01 
    6.9901728700152499E-01 
    6.8038730802202807E-01 
    6.6047475400693823E-01 
    6.3836636928614665E-01 
    6.1276296137070718E-01 
    5.8094515871644281E-01 
    5.3741773208381849E-01 
    4.6565438548181493E-01 
    2.9978516542189926E-01 
    7.6981983440361812E-01 
    7.6181394141051628E-01 
    7.5131327042057683E-01 
    7.3944439959595198E-01 
    7.2657064803232507E-01 
    7.1308961629493428E-01 
    6.9901728700167043E-01 
    6.8443396277935542E-01 
    6.6898437554487411E-01 
    6.5220411645223642E-01 
    6.3319908387159662E-01 
    6.1056723802076374E-01 
    5.8180397276217344E-01 
    5.4094153187247973E-01 
    4.7234319872327429E-01 
    3.1142119849000094E-01 
    7.3578847749684251E-01 
    7.2946266106910762E-01 
    7.2124069310387140E-01 
    7.1193876612382778E-01 
    7.0190361339759810E-01 
    6.9135920551098295E-01 
    6.8038730802219194E-01 
    6.6898437554492285E-01 
    6.5683722203069939E-01 
    6.4339810345154369E-01 
    6.2778496547085427E-01 
    6.0860511778779980E-01 
    5.8318297109991746E-01 
    5.4605664368614260E-01 
    4.8144573178488337E-01 
    3.2652869909347143E-01 
    7.0152749024683536E-01 
    6.9666738704518005E-01 
    6.9043661357332464E-01 
    6.8346389552555709E-01 
    6.7616517511894325E-01 
    6.6847261480206788E-01 
    6.6047475400703848E-01 
    6.5220411645229326E-01 
    6.4339810345155057E-01 
    6.3346628595658538E-01 
    6.2151425392539505E-01 
    6.0615682387569336E-01 
    5.8473217442110215E-01 
    5.5183834779304097E-01 
    4.9230225660604371E-01 
    3.4460091666626902E-01 
    6.6616073925780805E-01 
    6.6258895956908681E-01 
    6.5813086903648899E-01 
    6.5329508217498888E-01 
    6.4847600308333853E-01 
    6.4347868495595417E-01 
    6.3836636928622226E-01 
    6.3319908387164281E-01 
    6.2778496547084339E-01 
    6.2151425392536519E-01 
    6.1353269508079145E-01 
    6.0248408143753196E-01 
    5.8577295351719039E-01 
    5.5805111655756490E-01 
    5.0496495207579306E-01 
    3.6621909794734486E-01 
    6.2846257672676187E-01 
    6.2603704326844856E-01 
    6.2314450116205566E-01 
    6.2011327092781121E-01 
    6.1762956140610525E-01 
    6.1512964372044354E-01 
    6.1276296137071939E-01 
    6.1056723802072843E-01 
    6.0860511778771231E-01 
    6.0615682387559544E-01 
    6.0248408143746524E-01 
    5.9629853002299837E-01 
    5.8510783879408801E-01 
    5.6377852042056986E-01 
    5.1888032205389534E-01 
    3.9148658241912826E-01 
    5.8568629627513014E-01 
    5.8429260931262328E-01 
    5.8284721245769355E-01 
    5.8158280623230418E-01 
    5.8086756460441924E-01 
    5.8063794772565147E-01 
    5.8094515871632435E-01 
    5.8180397276200579E-01 
    5.8318297109970896E-01 
    5.8473217442089476E-01 
    5.8577295351701308E-01 
    5.8510783879398276E-01 
    5.8047429501261349E-01 
    5.6714039074395806E-01 
    5.3287333769317669E-01 
    4.2121784052236089E-01 
    5.3263398805074180E-01 
    5.3204996080860611E-01 
    5.3166501908474750E-01 
    5.3154676089923480E-01 
    5.3297551294914958E-01 
    5.3478792557788568E-01 
    5.3741773208349142E-01 
    5.4094153187210348E-01 
    5.4605664368575746E-01 
    5.5183834779267171E-01 
    5.5805111655724426E-01 
    5.6377852042033305E-01 
    5.6714039074384415E-01 
    5.6387159361189920E-01 
    5.4329636830130101E-01 
    4.5387081592518691E-01 
    4.5171105552518054E-01 
    4.5178488737412903E-01 
    4.5233513159916172E-01 
    4.5349914861473656E-01 
    4.5653444886520855E-01 
    4.6045909650269129E-01 
    4.6565438548149229E-01 
    4.7234319872285424E-01 
    4.8144573178443345E-01 
    4.9230225660559485E-01 
    5.0496495207537950E-01 
    5.1888032205355228E-01 
    5.3287333769295286E-01 
    5.4329636830120542E-01 
    5.4122406522145861E-01 
    4.8422779469234201E-01 
    2.7293320246772973E-01 
    2.7352031374334757E-01 
    2.7508870800159668E-01 
    2.7787074332071099E-01 
    2.8331372731933130E-01 
    2.9049013463701040E-01 
    2.9978516542156214E-01 
    3.1142119848950661E-01 
    3.2652869909297622E-01 
    3.4460091666579246E-01 
    3.6621909794692936E-01 
    3.9148658241881645E-01 
    4.2121784052221084E-01 
    4.5387081592523748E-01 
    4.8422779469236887E-01 
    4.8347756804759917E-01 
