# vtk DataFile Version 2.0
Pressure Field Data 
ASCII 
DATASET UNSTRUCTURED_GRID 

POINTS 289 double 

    0.0000000000000000E+00     0.0000000000000000E+00     0.0000000000000000E+00 
    1.0000000000000000E+00     0.0000000000000000E+00     0.0000000000000000E+00 
    1.0000000000000000E+00     1.0000000000000000E+00     0.0000000000000000E+00 
    0.0000000000000000E+00     1.0000000000000000E+00     0.0000000000000000E+00 
    6.2499999999872928E-02     0.0000000000000000E+00     0.0000000000000000E+00 
    1.2499999999977310E-01     0.0000000000000000E+00     0.0000000000000000E+00 
    1.8749999999959341E-01     0.0000000000000000E+00     0.0000000000000000E+00 
    2.4999999999941089E-01     0.0000000000000000E+00     0.0000000000000000E+00 
    3.1249999999922851E-01     0.0000000000000000E+00     0.0000000000000000E+00 
    3.7499999999904610E-01     0.0000000000000000E+00     0.0000000000000000E+00 
    4.3749999999886358E-01     0.0000000000000000E+00     0.0000000000000000E+00 
    4.9999999999869210E-01     0.0000000000000000E+00     0.0000000000000000E+00 
    5.6249999999884603E-01     0.0000000000000000E+00     0.0000000000000000E+00 
    6.2499999999901090E-01     0.0000000000000000E+00     0.0000000000000000E+00 
    6.8749999999917577E-01     0.0000000000000000E+00     0.0000000000000000E+00 
    7.4999999999934064E-01     0.0000000000000000E+00     0.0000000000000000E+00 
    8.1249999999950551E-01     0.0000000000000000E+00     0.0000000000000000E+00 
    8.7499999999967026E-01     0.0000000000000000E+00     0.0000000000000000E+00 
    9.3749999999983513E-01     0.0000000000000000E+00     0.0000000000000000E+00 
    1.0000000000000000E+00     6.2499999999872928E-02     0.0000000000000000E+00 
    1.0000000000000000E+00     1.2499999999977310E-01     0.0000000000000000E+00 
    1.0000000000000000E+00     1.8749999999959341E-01     0.0000000000000000E+00 
    1.0000000000000000E+00     2.4999999999941089E-01     0.0000000000000000E+00 
    1.0000000000000000E+00     3.1249999999922851E-01     0.0000000000000000E+00 
    1.0000000000000000E+00     3.7499999999904610E-01     0.0000000000000000E+00 
    1.0000000000000000E+00     4.3749999999886358E-01     0.0000000000000000E+00 
    1.0000000000000000E+00     4.9999999999869210E-01     0.0000000000000000E+00 
    1.0000000000000000E+00     5.6249999999884603E-01     0.0000000000000000E+00 
    1.0000000000000000E+00     6.2499999999901090E-01     0.0000000000000000E+00 
    1.0000000000000000E+00     6.8749999999917577E-01     0.0000000000000000E+00 
    1.0000000000000000E+00     7.4999999999934064E-01     0.0000000000000000E+00 
    1.0000000000000000E+00     8.1249999999950551E-01     0.0000000000000000E+00 
    1.0000000000000000E+00     8.7499999999967026E-01     0.0000000000000000E+00 
    1.0000000000000000E+00     9.3749999999983513E-01     0.0000000000000000E+00 
    9.3749999999973976E-01     1.0000000000000000E+00     0.0000000000000000E+00 
    8.7499999999950118E-01     1.0000000000000000E+00     0.0000000000000000E+00 
    8.1249999999991318E-01     1.0000000000000000E+00     0.0000000000000000E+00 
    7.5000000000034706E-01     1.0000000000000000E+00     0.0000000000000000E+00 
    6.8750000000078049E-01     1.0000000000000000E+00     0.0000000000000000E+00 
    6.2500000000121403E-01     1.0000000000000000E+00     0.0000000000000000E+00 
    5.6250000000164757E-01     1.0000000000000000E+00     0.0000000000000000E+00 
    5.0000000000205946E-01     1.0000000000000000E+00     0.0000000000000000E+00 
    4.3750000000182099E-01     1.0000000000000000E+00     0.0000000000000000E+00 
    3.7500000000156092E-01     1.0000000000000000E+00     0.0000000000000000E+00 
    3.1250000000130068E-01     1.0000000000000000E+00     0.0000000000000000E+00 
    2.5000000000104050E-01     1.0000000000000000E+00     0.0000000000000000E+00 
    1.8750000000078040E-01     1.0000000000000000E+00     0.0000000000000000E+00 
    1.2500000000052031E-01     1.0000000000000000E+00     0.0000000000000000E+00 
    6.2500000000260125E-02     1.0000000000000000E+00     0.0000000000000000E+00 
    0.0000000000000000E+00     9.3749999999973976E-01     0.0000000000000000E+00 
    0.0000000000000000E+00     8.7499999999950118E-01     0.0000000000000000E+00 
    0.0000000000000000E+00     8.1249999999991318E-01     0.0000000000000000E+00 
    0.0000000000000000E+00     7.5000000000034706E-01     0.0000000000000000E+00 
    0.0000000000000000E+00     6.8750000000078049E-01     0.0000000000000000E+00 
    0.0000000000000000E+00     6.2500000000121403E-01     0.0000000000000000E+00 
    0.0000000000000000E+00     5.6250000000164757E-01     0.0000000000000000E+00 
    0.0000000000000000E+00     5.0000000000205946E-01     0.0000000000000000E+00 
    0.0000000000000000E+00     4.3750000000182099E-01     0.0000000000000000E+00 
    0.0000000000000000E+00     3.7500000000156092E-01     0.0000000000000000E+00 
    0.0000000000000000E+00     3.1250000000130068E-01     0.0000000000000000E+00 
    0.0000000000000000E+00     2.5000000000104050E-01     0.0000000000000000E+00 
    0.0000000000000000E+00     1.8750000000078040E-01     0.0000000000000000E+00 
    0.0000000000000000E+00     1.2500000000052031E-01     0.0000000000000000E+00 
    0.0000000000000000E+00     6.2500000000260125E-02     0.0000000000000000E+00 
    6.2499999999897131E-02     6.2500000000235922E-02     0.0000000000000000E+00 
    6.2499999999921327E-02     1.2500000000047351E-01     0.0000000000000000E+00 
    6.2499999999945530E-02     1.8750000000070621E-01     0.0000000000000000E+00 
    6.2499999999969733E-02     2.5000000000093858E-01     0.0000000000000000E+00 
    6.2499999999993928E-02     3.1250000000117117E-01     0.0000000000000000E+00 
    6.2500000000018124E-02     3.7500000000140382E-01     0.0000000000000000E+00 
    6.2500000000042327E-02     4.3750000000163619E-01     0.0000000000000000E+00 
    6.2500000000066530E-02     5.0000000000184897E-01     0.0000000000000000E+00 
    6.2500000000090733E-02     5.6250000000147260E-01     0.0000000000000000E+00 
    6.2500000000114922E-02     6.2500000000107636E-01     0.0000000000000000E+00 
    6.2500000000139125E-02     6.8750000000068034E-01     0.0000000000000000E+00 
    6.2500000000163328E-02     7.5000000000028411E-01     0.0000000000000000E+00 
    6.2500000000187531E-02     8.1249999999988787E-01     0.0000000000000000E+00 
    6.2500000000211720E-02     8.7499999999951172E-01     0.0000000000000000E+00 
    6.2500000000235922E-02     9.3749999999974565E-01     0.0000000000000000E+00 
    1.2499999999981980E-01     6.2500000000211733E-02     0.0000000000000000E+00 
    1.2499999999986650E-01     1.2500000000042691E-01     0.0000000000000000E+00 
    1.2499999999991319E-01     1.8750000000063199E-01     0.0000000000000000E+00 
    1.2499999999995989E-01     2.5000000000083678E-01     0.0000000000000000E+00 
    1.2500000000000661E-01     3.1250000000104172E-01     0.0000000000000000E+00 
    1.2500000000005329E-01     3.7500000000124661E-01     0.0000000000000000E+00 
    1.2500000000010000E-01     4.3750000000145117E-01     0.0000000000000000E+00 
    1.2500000000014669E-01     5.0000000000163858E-01     0.0000000000000000E+00 
    1.2500000000019340E-01     5.6250000000129741E-01     0.0000000000000000E+00 
    1.2500000000024011E-01     6.2500000000093847E-01     0.0000000000000000E+00 
    1.2500000000028680E-01     6.8750000000057998E-01     0.0000000000000000E+00 
    1.2500000000033351E-01     7.5000000000022127E-01     0.0000000000000000E+00 
    1.2500000000038020E-01     8.1249999999986211E-01     0.0000000000000000E+00 
    1.2500000000042691E-01     8.7499999999952238E-01     0.0000000000000000E+00 
    1.2500000000047359E-01     9.3749999999975164E-01     0.0000000000000000E+00 
    1.8749999999966760E-01     6.2500000000187531E-02     0.0000000000000000E+00 
    1.8749999999974179E-01     1.2500000000038020E-01     0.0000000000000000E+00 
    1.8749999999981601E-01     1.8750000000055780E-01     0.0000000000000000E+00 
    1.8749999999989009E-01     2.5000000000073502E-01     0.0000000000000000E+00 
    1.8749999999996431E-01     3.1250000000091221E-01     0.0000000000000000E+00 
    1.8750000000003850E-01     3.7500000000108941E-01     0.0000000000000000E+00 
    1.8750000000011269E-01     4.3750000000126649E-01     0.0000000000000000E+00 
    1.8750000000018691E-01     5.0000000000142808E-01     0.0000000000000000E+00 
    1.8750000000026110E-01     5.6250000000112244E-01     0.0000000000000000E+00 
    1.8750000000033529E-01     6.2500000000080080E-01     0.0000000000000000E+00 
    1.8750000000040951E-01     6.8750000000047962E-01     0.0000000000000000E+00 
    1.8750000000048361E-01     7.5000000000015843E-01     0.0000000000000000E+00 
    1.8750000000055780E-01     8.1249999999983680E-01     0.0000000000000000E+00 
    1.8750000000063199E-01     8.7499999999953304E-01     0.0000000000000000E+00 
    1.8750000000070621E-01     9.3749999999975764E-01     0.0000000000000000E+00 
    2.4999999999951281E-01     6.2500000000163314E-02     0.0000000000000000E+00 
    2.4999999999961461E-01     1.2500000000033351E-01     0.0000000000000000E+00 
    2.4999999999971650E-01     1.8750000000048361E-01     0.0000000000000000E+00 
    2.4999999999981831E-01     2.5000000000063310E-01     0.0000000000000000E+00 
    2.4999999999992020E-01     3.1250000000078260E-01     0.0000000000000000E+00 
    2.5000000000002198E-01     3.7500000000093209E-01     0.0000000000000000E+00 
    2.5000000000012390E-01     4.3750000000108180E-01     0.0000000000000000E+00 
    2.5000000000022571E-01     5.0000000000121769E-01     0.0000000000000000E+00 
    2.5000000000032763E-01     5.6250000000094724E-01     0.0000000000000000E+00 
    2.5000000000042938E-01     6.2500000000066314E-01     0.0000000000000000E+00 
    2.5000000000053119E-01     6.8750000000037925E-01     0.0000000000000000E+00 
[...]
CELL_DATA 256 
SCALARS Pressure double 1 
LOOKUP_TABLE default 

    1.9488872956469676E+00 
    1.8427789166393684E+00 
    1.7734374959437020E+00 
    1.7212992482341058E+00 
    1.6783560759705254E+00 
    1.6410641375923114E+00 
    1.6077388361174814E+00 
    1.5775682471003756E+00 
    1.5502037077209094E+00 
    1.5255666861954118E+00 
    1.5037411015878246E+00 
    1.4848954256005433E+00 
    1.4692010521524272E+00 
    1.4567350093172922E+00 
    1.4473715324417007E+00 
    1.4419410376224899E+00 
    1.8427789166399331E+00 
    1.7984793057792372E+00 
    1.7510545135050568E+00 
    1.7078232783488658E+00 
    1.6690077276972712E+00 
    1.6338273815630877E+00 
    1.6016406002747090E+00 
    1.5720803289226568E+00 
    1.5450125136186497E+00 
    1.5204745852015618E+00 
    1.4986219850616322E+00 
    1.4796750064448965E+00 
    1.4638477483664065E+00 
    1.4512496609176615E+00 
    1.4417746771563147E+00 
    1.4362778559238059E+00 
    1.7734374959445010E+00 
    1.7510545135054416E+00 
    1.7194759979631291E+00 
    1.6856658535202471E+00 
    1.6523042565247645E+00 
    1.6202958389178874E+00 
    1.5899411766045455E+00 
    1.5613889778067793E+00 
    1.5347987514782315E+00 
    1.5103866789098310E+00 
    1.4884292940597514E+00 
    1.4692402986102611E+00 
    1.4531147604931176E+00 
    1.4402272107981056E+00 
    1.4305170638755791E+00 
    1.4248850832762596E+00 
    1.7212992482350709E+00 
    1.7078232783495138E+00 
    1.6856658535205535E+00 
    1.6590917063165438E+00 
    1.6306977837048902E+00 
    1.6019082122882371E+00 
    1.5735227237346485E+00 
    1.5460576012488509E+00 
    1.5199279318073886E+00 
    1.4955325414094400E+00 
    1.4732893322180991E+00 
    1.4536329616000050E+00 
    1.4369694423845116E+00 
    1.4235734349517917E+00 
    1.4134687584104393E+00 
    1.4076184334276445E+00 
    1.6783560759716230E+00 
    1.6690077276981052E+00 
    1.6523042565253008E+00 
    1.6306977837051395E+00 
    1.6061552326935564E+00 
    1.5800578722507035E+00 
    1.5533609407347104E+00 
    1.5267711007236593E+00 
    1.5008771946693846E+00 
    1.4762304064288627E+00 
    1.4533879559144243E+00 
    1.4329208907950102E+00 
    1.4153721561481307E+00 
    1.4011566324780458E+00 
    1.3904256330298022E+00 
    1.3842219141358454E+00 
    1.6410641375935233E+00 
    1.6338273815640647E+00 
    1.6202958389186013E+00 
    1.6019082122886892E+00 
    1.5800578722509167E+00 
    1.5559043628669744E+00 
    1.5303753207757689E+00 
    1.5042374903791726E+00 
    1.4781748216473858E+00 
    1.4528495985742909E+00 
    1.4289447242839146E+00 
    1.4071753215220173E+00 
    1.3882513479201131E+00 
    1.3727731090370925E+00 
    1.3610640505058624E+00 
    1.3542836393389810E+00 
    1.6077388361187941E+00 
    1.6016406002758024E+00 
    1.5899411766054006E+00 
    1.5735227237352667E+00 
    1.5533609407351059E+00 
    1.5303753207759589E+00 
    1.5053885600626704E+00 
    1.4791475384015913E+00 
    1.4523693568772109E+00 
    1.4257868876218558E+00 
    1.4001904079821452E+00 
    1.3764444160658198E+00 
    1.3554598806709486E+00 
    1.3380778453442830E+00 
    1.3248677958152173E+00 
    1.3171806029557547E+00 
    1.5775682471017618E+00 
    1.5720803289238345E+00 
    1.5613889778077399E+00 
    1.5460576012495995E+00 
    1.5267711007242082E+00 
    1.5042374903795335E+00 
    1.4791475384017720E+00 
    1.4521808768727726E+00 
    1.4240390225734079E+00 
    1.3954858166366828E+00 
    1.3673947638146757E+00 
    1.3407813586179265E+00 
    1.3167916647232161E+00 
    1.2965836424846553E+00 
    1.2810909872734420E+00 
    1.2719816185338733E+00 
    1.5502037077221105E+00 
    1.5450125136196864E+00 
    1.5347987514791062E+00 
    1.5199279318081109E+00 
    1.5008771946699664E+00 
    1.4781748216478336E+00 
    1.4523693568775284E+00 
    1.4240390225735862E+00 
    1.3938251160685213E+00 
    1.3624770582438810E+00 
    1.3309140822342609E+00 
    1.3002899464273041E+00 
    1.2720159481318973E+00 
    1.2476688662237951E+00 
    1.2287157677125951E+00 
    1.2173502991422009E+00 
    1.5255666861962760E+00 
    1.5204745852023203E+00 
    1.5103866789104965E+00 
    1.4955325414100280E+00 
    1.4762304064293901E+00 
    1.4528495985747649E+00 
    1.4257868876222806E+00 
    1.3954858166370494E+00 
    1.3624770582441157E+00 
    1.3274333000154703E+00 
    1.2912543543578627E+00 
    1.2551844320673606E+00 
    1.2209077507523096E+00 
    1.1905336809113456E+00 
    1.1663124537207994E+00 
    1.1513389956806592E+00 
    1.5037411015883924E+00 
    1.4986219850621434E+00 
    1.4884292940602286E+00 
    1.4732893322185676E+00 
    1.4533879559149059E+00 
    1.4289447242844253E+00 
    1.4001904079826963E+00 
    1.3673947638152666E+00 
    1.3309140822347858E+00 
    1.2912543543581669E+00 
    1.2491818812457849E+00 
    1.2059133562042612E+00 
    1.1633357640613957E+00 
    1.1241686075999495E+00 
    1.0918173452510784E+00 
    1.0709804387061173E+00 
    1.4848954256008633E+00 
    1.4796750064452013E+00 
    1.4692402986105817E+00 
    1.4536329616003776E+00 
    1.4329208907954665E+00 
    1.4071753215225857E+00 
    1.3764444160665255E+00 
    1.3407813586187867E+00 
    1.3002899464281856E+00 
    1.2551844320680481E+00 
    1.2059133562046596E+00 
    1.1534229774562472E+00 
    1.0995481972421981E+00 
    1.0475188625083540E+00 
    1.0023096000751215E+00 
    9.7150765604803624E-01 
    1.4692010521525496E+00 
    1.4638477483665484E+00 
    1.4531147604933183E+00 
    1.4369694423848187E+00 
    1.4153721561485892E+00 
    1.3882513479207670E+00 
    1.3554598806718439E+00 
    1.3167916647243953E+00 
    1.2720159481332036E+00 
    1.2209077507534623E+00 
    1.1633357640622923E+00 
    1.0995481972427184E+00 
    1.0307145555712018E+00 
    9.5992974427707189E-01 
    8.9373525550278232E-01 
    8.4472325801893233E-01 
    1.4567350093172742E+00 
    1.4512496609176893E+00 
    1.4402272107982279E+00 
    1.4235734349520694E+00 
    1.4011566324785378E+00 
    1.3727731090378614E+00 
    1.3380778453453992E+00 
    1.2965836424861938E+00 
    1.2476688662255808E+00 
    1.1905336809130296E+00 
    1.1241686076014257E+00 
    1.0475188625095024E+00 
    9.5992974427773503E-01 
    8.6242387005941545E-01 
    7.6097388528354393E-01 
    6.7489740181581692E-01 
    1.4473715324416614E+00 
    1.4417746771563329E+00 
    1.4305170638757148E+00 
    1.4134687584107655E+00 
    1.3904256330303928E+00 
    1.3610640505067992E+00 
    1.3248677958165969E+00 
    1.2810909872753717E+00 
    1.2287157677148792E+00 
    1.1663124537230107E+00 
    1.0918173452531001E+00 
    1.0023096000768179E+00 
    8.9373525550396149E-01 
    7.6097388528394938E-01 
    6.0038079688850521E-01 
    4.2680884991113582E-01 
    1.4419410376224662E+00 
    1.4362778559238476E+00 
    1.4248850832764359E+00 
    1.4076184334280419E+00 
    1.3842219141365517E+00 
    1.3542836393400970E+00 
    1.3171806029574002E+00 
    1.2719816185361874E+00 
    1.2173502991449638E+00 
    1.1513389956833706E+00 
    1.0709804387086435E+00 
    9.7150765605021361E-01 
    8.4472325802049975E-01 
    6.7489740181629798E-01 
    4.2680884991055784E-01 
    0.0000000000000000E+00 

SCALARS Saturarion double 1 
LOOKUP_TABLE default 

    1.0000000000000000E+00 
    9.5830854221047890E-01 
    9.2111518513395574E-01 
    8.8128575264163211E-01 
    8.4069122475046854E-01 
    8.0080325555547349E-01 
    7.6190552680233681E-01 
    7.2401217568522569E-01 
    6.8662731468750615E-01 
    6.4928520202273143E-01 
    6.1078522052759743E-01 
    5.6934163686365702E-01 
    5.2051985433242776E-01 
    4.5462103861553210E-01 
    3.3914630843839350E-01 
    1.0770358849809633E-01 
    9.5830854221068329E-01 
    9.2992531940362477E-01 
    8.9661499450789017E-01 
    8.6074140764767149E-01 
    8.2375703703401104E-01 
    7.8698444890953179E-01 
    7.5071846992984881E-01 
    7.1508610282558072E-01 
    6.7964254619606923E-01 
    6.4394089693397238E-01 
    6.0684152780080769E-01 
    5.6661196525882662E-01 
    5.1884270989528625E-01 
    4.5364027992746753E-01 
    3.3838519915399345E-01 
    1.0657612375927358E-01 
    9.2111518513449731E-01 
    8.9661499450817361E-01 
    8.6718795602432741E-01 
    8.3540833209258281E-01 
    8.0242002921404554E-01 
    7.6924981572606876E-01 
    7.3620241974210299E-01 
    7.0345629766865669E-01 
    6.7061418927021388E-01 
    6.3711902969913026E-01 
    6.0193629506325264E-01 
    5.6336281032617186E-01 
    5.1711051259637530E-01 
    4.5287031080706347E-01 
    3.3818978659204585E-01 
    1.0643495960047991E-01 
    8.8128575264246489E-01 
    8.6074140764822571E-01 
    8.3540833209283283E-01 
    8.0772517883797679E-01 
    7.7880909771210460E-01 
    7.4948654094788503E-01 
    7.2001561076765530E-01 
    6.9044450122854906E-01 
    6.6048564193608506E-01 
    6.2954340684161536E-01 
    5.9666221495348404E-01 
    5.5997785518720933E-01 
    5.1561390701824350E-01 
    4.5238200950893181E-01 
    3.3876763641096058E-01 
    1.0763527037425205E-01 
    8.4069122475145375E-01 
    8.2375703703479186E-01 
    8.0242002921454447E-01 
    7.7880909771235196E-01 
    7.5392791881935795E-01 
    7.2843848508525022E-01 
    7.0256705442559741E-01 
    6.7642329346869634E-01 
    6.4962067706722793E-01 
    6.2168237638177115E-01 
    5.9148617433990625E-01 
    5.5733765732957941E-01 
    5.1483224107195646E-01 
    4.5416227291630390E-01 
    3.4248661899492749E-01 
    1.1495434702259029E-01 
    8.0080325555672471E-01 
    7.8698444891050845E-01 
    7.6924981572677587E-01 
    7.4948654094832701E-01 
    7.2843848508546705E-01 
    7.0676557854857847E-01 
    6.8450181526035025E-01 
    6.6181467185464216E-01 
    6.3823947252152013E-01 
    6.1340189892072183E-01 
    5.8611500056010291E-01 
    5.5466668928647012E-01 
    5.1466136198639212E-01 
    4.5638774153287021E-01 
    3.4758009849124405E-01 
    1.2447385341588285E-01 
    7.6190552680381907E-01 
    7.5071846993100766E-01 
    7.3620241974297940E-01 
    7.2001561076827547E-01 
    7.0256705442597323E-01 
    6.8450181526051534E-01 
    6.6578781741327109E-01 
    6.4659399544659379E-01 
    6.2641012602988788E-01 
    6.0479089870448854E-01 
    5.8061574640049740E-01 
    5.5214620398280745E-01 
    5.1515728607045197E-01 
    4.5968500296841575E-01 
    3.5459516968632648E-01 
    1.3741257796530637E-01 
    7.2401217568687792E-01 
    7.1508610282694762E-01 
    7.0345629766974260E-01 
    6.9044450122933809E-01 
    6.7642329346921937E-01 
    6.6181467185495135E-01 
    6.4659399544672513E-01 
    6.3083803244169179E-01 
    6.1411648444762168E-01 
    5.9588585881618772E-01 
    5.7506640712676549E-01 
    5.4982838879652229E-01 
    5.1634352850370180E-01 
    4.6415885067321477E-01 
    3.6384073681391926E-01 
    1.5471198368001057E-01 
    6.8662731468879235E-01 
    6.7964254619717923E-01 
    6.7061418927110217E-01 
    6.6048564193674453E-01 
    6.4962067706768789E-01 
    6.3823947252181679E-01 
    6.2641012603003376E-01 
    6.1411648444767220E-01 
    6.0098806804806904E-01 
    5.8638654676080282E-01 
    5.6926355936574036E-01 
    5.4784566981778093E-01 
    5.1820646362310419E-01 
    4.7091710195091430E-01 
    3.7687335449822268E-01 
    1.7876632799388703E-01 
    6.4928520202375306E-01 
    6.4394089693482681E-01 
    6.3711902969983936E-01 
    6.2954340684216126E-01 
    6.2168237638216128E-01 
    6.1340189892100316E-01 
    6.0479089870463942E-01 
    5.9588585881625555E-01 
    5.8638654676081881E-01 
    5.7560423392720894E-01 
    5.6248932677319852E-01 
    5.4531970520269790E-01 
    5.2033863901372701E-01 
    4.7857440678893570E-01 
    3.9249991191039235E-01 
    2.0712739688903931E-01 
    6.1078522052836426E-01 
    6.0684152780145428E-01 
    6.0193629506377555E-01 
    5.9666221495388105E-01 
    5.9148617434018602E-01 
    5.8611500056028243E-01 
    5.8061574640058800E-01 
    5.7506640712680901E-01 
    5.6926355936572948E-01 
    5.6248932677316588E-01 
    5.5375200022428750E-01 
    5.4140374424468896E-01 
    5.2193038475343456E-01 
    4.8687659386475940E-01 
    4.1078722267553136E-01 
    2.3964180231250437E-01 
    5.6934163686414818E-01 
    5.6661196525924462E-01 
    5.6336281032649904E-01 
    5.5997785518744181E-01 
    5.5733765732972351E-01 
    5.5466668928652840E-01 
    5.5214620398280556E-01 
    5.4982838879647333E-01 
    5.4784566981768279E-01 
    5.4531970520258866E-01 
    5.4140374424461424E-01 
    5.3455953797003131E-01 
    5.2154045000715299E-01 
    4.9465697204898113E-01 
    4.3085449232700801E-01 
    2.7565650389171681E-01 
    5.2051985433259174E-01 
    5.1884270989540171E-01 
    5.1711051259644369E-01 
    5.1561390701825904E-01 
    5.1483224107191183E-01 
    5.1466136198628132E-01 
    5.1515728607028377E-01 
    5.1634352850348575E-01 
    5.1820646362285461E-01 
    5.2033863901347344E-01 
    5.2193038475322429E-01 
    5.2154045000703086E-01 
    5.1630388074083233E-01 
    4.9952344801088455E-01 
    4.5114271518558868E-01 
    3.1601405183348996E-01 
    4.5462103861523323E-01 
    4.5364027992716188E-01 
    4.5287031080675560E-01 
    4.5238200950860175E-01 
    4.5416227291594824E-01 
    4.5638774153247696E-01 
    4.5968500296797199E-01 
    4.6415885067271706E-01 
    4.7091710195040448E-01 
    4.7857440678845664E-01 
    4.8687659386435822E-01 
    4.9465697204869508E-01 
    4.9952344801075049E-01 
    4.9565813735747344E-01 
    4.6652149419248162E-01 
    3.5828994835399758E-01 
    3.3914630843823895E-01 
    3.3838519915383136E-01 
    3.3818978659187648E-01 
    3.3876763641076779E-01 
    3.4248661899468485E-01 
    3.4758009849092536E-01 
    3.5459516968589050E-01 
    3.6384073681333107E-01 
    3.7687335449759130E-01 
    3.9249991190976208E-01 
    4.1078722267496048E-01 
    4.3085449232654766E-01 
    4.5114271518529403E-01 
    4.6652149419236066E-01 
    4.6388749214844033E-01 
    3.9566649303088786E-01 
    1.0770358849807936E-01 
    1.0657612375924519E-01 
    1.0643495960044357E-01 
    1.0763527037416926E-01 
    1.1495434702241621E-01 
    1.2447385341553066E-01 
    1.3741257796471093E-01 
    1.5471198367910677E-01 
    1.7876632799295702E-01 
    2.0712739688817264E-01 
    2.3964180231178314E-01 
    2.7565650389119190E-01 
    3.1601405183322151E-01 
    3.5828994835400824E-01 
    3.9566649303088625E-01 
    3.9477490404368060E-01 
