# vtk DataFile Version 2.0
Pressure Field Data 
ASCII 
DATASET UNSTRUCTURED_GRID 

POINTS 289 double 

    0.0000000000000000E+00     0.0000000000000000E+00     0.0000000000000000E+00 
    1.0000000000000000E+00     0.0000000000000000E+00     0.0000000000000000E+00 
    1.0000000000000000E+00     1.0000000000000000E+00     0.0000000000000000E+00 
    0.0000000000000000E+00     1.0000000000000000E+00     0.0000000000000000E+00 
    6.2499999999872928E-02     0.0000000000000000E+00     0.0000000000000000E+00 
    1.2499999999977310E-01     0.0000000000000000E+00     0.0000000000000000E+00 
    1.8749999999959341E-01     0.0000000000000000E+00     0.0000000000000000E+00 
    2.4999999999941089E-01     0.0000000000000000E+00     0.0000000000000000E+00 
    3.1249999999922851E-01     0.0000000000000000E+00     0.0000000000000000E+00 
    3.7499999999904610E-01     0.0000000000000000E+00     0.0000000000000000E+00 
    4.3749999999886358E-01     0.0000000000000000E+00     0.0000000000000000E+00 
    4.9999999999869210E-01     0.0000000000000000E+00     0.0000000000000000E+00 
    5.6249999999884603E-01     0.0000000000000000E+00     0.0000000000000000E+00 
    6.2499999999901090E-01     0.0000000000000000E+00     0.0000000000000000E+00 
    6.8749999999917577E-01     0.0000000000000000E+00     0.0000000000000000E+00 
    7.4999999999934064E-01     0.0000000000000000E+00     0.0000000000000000E+00 
    8.1249999999950551E-01     0.0000000000000000E+00     0.0000000000000000E+00 
    8.7499999999967026E-01     0.0000000000000000E+00     0.0000000000000000E+00 
    9.3749999999983513E-01     0.0000000000000000E+00     0.0000000000000000E+00 
    1.0000000000000000E+00     6.2499999999872928E-02     0.0000000000000000E+00 
    1.0000000000000000E+00     1.2499999999977310E-01     0.0000000000000000E+00 
    1.0000000000000000E+00     1.8749999999959341E-01     0.0000000000000000E+00 
    1.0000000000000000E+00     2.4999999999941089E-01     0.0000000000000000E+00 
    1.0000000000000000E+00     3.1249999999922851E-01     0.0000000000000000E+00 
    1.0000000000000000E+00     3.7499999999904610E-01     0.0000000000000000E+00 
    1.0000000000000000E+00     4.3749999999886358E-01     0.0000000000000000E+00 
    1.0000000000000000E+00     4.9999999999869210E-01     0.0000000000000000E+00 
    1.0000000000000000E+00     5.6249999999884603E-01     0.0000000000000000E+00 
    1.0000000000000000E+00     6.2499999999901090E-01     0.0000000000000000E+00 
    1.0000000000000000E+00     6.8749999999917577E-01     0.0000000000000000E+00 
    1.0000000000000000E+00     7.4999999999934064E-01     0.0000000000000000E+00 
    1.0000000000000000E+00     8.1249999999950551E-01     0.0000000000000000E+00 
    1.0000000000000000E+00     8.7499999999967026E-01     0.0000000000000000E+00 
    1.0000000000000000E+00     9.3749999999983513E-01     0.0000000000000000E+00 
    9.3749999999973976E-01     1.0000000000000000E+00     0.0000000000000000E+00 
    8.7499999999950118E-01     1.0000000000000000E+00     0.0000000000000000E+00 
    8.1249999999991318E-01     1.0000000000000000E+00     0.0000000000000000E+00 
    7.5000000000034706E-01     1.0000000000000000E+00     0.0000000000000000E+00 
    6.8750000000078049E-01     1.0000000000000000E+00     0.0000000000000000E+00 
    6.2500000000121403E-01     1.0000000000000000E+00     0.0000000000000000E+00 
    5.6250000000164757E-01     1.0000000000000000E+00     0.0000000000000000E+00 
    5.0000000000205946E-01     1.0000000000000000E+00     0.0000000000000000E+00 
    4.3750000000182099E-01     1.0000000000000000E+00     0.0000000000000000E+00 
    3.7500000000156092E-01     1.0000000000000000E+00     0.0000000000000000E+00 
    3.1250000000130068E-01     1.0000000000000000E+00     0.0000000000000000E+00 
    2.5000000000104050E-01     1.0000000000000000E+00     0.0000000000000000E+00 
    1.8750000000078040E-01     1.0000000000000000E+00     0.0000000000000000E+00 
    1.2500000000052031E-01     1.0000000000000000E+00     0.0000000000000000E+00 
    6.2500000000260125E-02     1.0000000000000000E+00     0.0000000000000000E+00 
    0.0000000000000000E+00     9.3749999999973976E-01     0.0000000000000000E+00 
    0.0000000000000000E+00     8.7499999999950118E-01     0.0000000000000000E+00 
    0.0000000000000000E+00     8.1249999999991318E-01     0.0000000000000000E+00 
    0.0000000000000000E+00     7.5000000000034706E-01     0.0000000000000000E+00 
    0.0000000000000000E+00     6.8750000000078049E-01     0.0000000000000000E+00 
    0.0000000000000000E+00     6.2500000000121403E-01     0.0000000000000000E+00 
    0.0000000000000000E+00     5.6250000000164757E-01     0.0000000000000000E+00 
    0.0000000000000000E+00     5.0000000000205946E-01     0.0000000000000000E+00 
    0.0000000000000000E+00     4.3750000000182099E-01     0.0000000000000000E+00 
    0.0000000000000000E+00     3.7500000000156092E-01     0.0000000000000000E+00 
    0.0000000000000000E+00     3.1250000000130068E-01     0.0000000000000000E+00 
    0.0000000000000000E+00     2.5000000000104050E-01     0.0000000000000000E+00 
    0.0000000000000000E+00     1.8750000000078040E-01     0.0000000000000000E+00 
    0.0000000000000000E+00     1.2500000000052031E-01     0.0000000000000000E+00 
    0.0000000000000000E+00     6.2500000000260125E-02     0.0000000000000000E+00 
    6.2499999999897131E-02     6.2500000000235922E-02     0.0000000000000000E+00 
    6.2499999999921327E-02     1.2500000000047351E-01     0.0000000000000000E+00 
    6.2499999999945530E-02     1.8750000000070621E-01     0.0000000000000000E+00 
    6.2499999999969733E-02     2.5000000000093858E-01     0.0000000000000000E+00 
    6.2499999999993928E-02     3.1250000000117117E-01     0.0000000000000000E+00 
    6.2500000000018124E-02     3.7500000000140382E-01     0.0000000000000000E+00 
    6.2500000000042327E-02     4.3750000000163619E-01     0.0000000000000000E+00 
    6.2500000000066530E-02     5.0000000000184897E-01     0.0000000000000000E+00 
    6.2500000000090733E-02     5.6250000000147260E-01     0.0000000000000000E+00 
    6.2500000000114922E-02     6.2500000000107636E-01     0.0000000000000000E+00 
    6.2500000000139125E-02     6.8750000000068034E-01     0.0000000000000000E+00 
    6.2500000000163328E-02     7.5000000000028411E-01     0.0000000000000000E+00 
    6.2500000000187531E-02     8.1249999999988787E-01     0.0000000000000000E+00 
    6.2500000000211720E-02     8.7499999999951172E-01     0.0000000000000000E+00 
    6.2500000000235922E-02     9.3749999999974565E-01     0.0000000000000000E+00 
    1.2499999999981980E-01     6.2500000000211733E-02     0.0000000000000000E+00 
    1.2499999999986650E-01     1.2500000000042691E-01     0.0000000000000000E+00 
    1.2499999999991319E-01     1.8750000000063199E-01     0.0000000000000000E+00 
    1.2499999999995989E-01     2.5000000000083678E-01     0.0000000000000000E+00 
    1.2500000000000661E-01     3.1250000000104172E-01     0.0000000000000000E+00 
    1.2500000000005329E-01     3.7500000000124661E-01     0.0000000000000000E+00 
    1.2500000000010000E-01     4.3750000000145117E-01     0.0000000000000000E+00 
    1.2500000000014669E-01     5.0000000000163858E-01     0.0000000000000000E+00 
    1.2500000000019340E-01     5.6250000000129741E-01     0.0000000000000000E+00 
    1.2500000000024011E-01     6.2500000000093847E-01     0.0000000000000000E+00 
    1.2500000000028680E-01     6.8750000000057998E-01     0.0000000000000000E+00 
    1.2500000000033351E-01     7.5000000000022127E-01     0.0000000000000000E+00 
    1.2500000000038020E-01     8.1249999999986211E-01     0.0000000000000000E+00 
    1.2500000000042691E-01     8.7499999999952238E-01     0.0000000000000000E+00 
    1.2500000000047359E-01     9.3749999999975164E-01     0.0000000000000000E+00 
    1.8749999999966760E-01     6.2500000000187531E-02     0.0000000000000000E+00 
    1.8749999999974179E-01     1.2500000000038020E-01     0.0000000000000000E+00 
    1.8749999999981601E-01     1.8750000000055780E-01     0.0000000000000000E+00 
    1.8749999999989009E-01     2.5000000000073502E-01     0.0000000000000000E+00 
    1.8749999999996431E-01     3.1250000000091221E-01     0.0000000000000000E+00 
    1.8750000000003850E-01     3.7500000000108941E-01     0.0000000000000000E+00 
    1.8750000000011269E-01     4.3750000000126649E-01     0.0000000000000000E+00 
    1.8750000000018691E-01     5.0000000000142808E-01     0.0000000000000000E+00 
    1.8750000000026110E-01     5.6250000000112244E-01     0.0000000000000000E+00 
    1.8750000000033529E-01     6.2500000000080080E-01     0.0000000000000000E+00 
    1.8750000000040951E-01     6.8750000000047962E-01     0.0000000000000000E+00 
    1.8750000000048361E-01     7.5000000000015843E-01     0.0000000000000000E+00 
    1.8750000000055780E-01     8.1249999999983680E-01     0.0000000000000000E+00 
    1.8750000000063199E-01     8.7499999999953304E-01     0.0000000000000000E+00 
    1.8750000000070621E-01     9.3749999999975764E-01     0.0000000000000000E+00 
    2.4999999999951281E-01     6.2500000000163314E-02     0.0000000000000000E+00 
    2.4999999999961461E-01     1.2500000000033351E-01     0.0000000000000000E+00 
    2.4999999999971650E-01     1.8750000000048361E-01     0.0000000000000000E+00 
    2.4999999999981831E-01     2.5000000000063310E-01     0.0000000000000000E+00 
    2.4999999999992020E-01     3.1250000000078260E-01     0.0000000000000000E+00 
    2.5000000000002198E-01     3.7500000000093209E-01     0.0000000000000000E+00 
    2.5000000000012390E-01     4.3750000000108180E-01     0.0000000000000000E+00 
    2.5000000000022571E-01     5.0000000000121769E-01     0.0000000000000000E+00 
    2.5000000000032763E-01     5.6250000000094724E-01     0.0000000000000000E+00 
    2.5000000000042938E-01     6.2500000000066314E-01     0.0000000000000000E+00 
    2.5000000000053119E-01     6.8750000000037925E-01     0.0000000000000000E+00 
[...]
CELL_DATA 256 
SCALARS Pressure double 1 
LOOKUP_TABLE default 

    1.9174472671627625E+00 
    1.8114915909056424E+00 
    1.7423734432001350E+00 
    1.6904889008226296E+00 
    1.6478200088131969E+00 
    1.6108157673468451E+00 
    1.5777851304344355E+00 
    1.5479101471781971E+00 
    1.5208362044513906E+00 
    1.4964789233156870E+00 
    1.4749169827171014E+00 
    1.4563157975653902E+00 
    1.4408500051065372E+00 
    1.4286130262947423E+00 
    1.4195045105984090E+00 
    1.4141991899501398E+00 
    1.8114915909062053E+00 
    1.7673108796247909E+00 
    1.7200823000523309E+00 
    1.6770896291970501E+00 
    1.6385398224492722E+00 
    1.6036425707247921E+00 
    1.5717484844208831E+00 
    1.5424837278465959E+00 
    1.5157077534812311E+00 
    1.4914517086342300E+00 
    1.4698653722108890E+00 
    1.4511655053976367E+00 
    1.4355689927070252E+00 
    1.4232017517243067E+00 
    1.4139842492255223E+00 
    1.4086134563855979E+00 
    1.7423734432009292E+00 
    1.7200823000527137E+00 
    1.6886706178043689E+00 
    1.6550782961550266E+00 
    1.6219691539429775E+00 
    1.5902363143441267E+00 
    1.5601713029422069E+00 
    1.5319150283982861E+00 
    1.5056196431055062E+00 
    1.4814942513726830E+00 
    1.4598088823222870E+00 
    1.4408727539418658E+00 
    1.4249827159843287E+00 
    1.4123295420405197E+00 
    1.4028804032147186E+00 
    1.3973744242270216E+00 
    1.6904889008235868E+00 
    1.6770896291976916E+00 
    1.6550782961553281E+00 
    1.6287040635035488E+00 
    1.6005500197215436E+00 
    1.5720290214267447E+00 
    1.5439312994056209E+00 
    1.5167646282014238E+00 
    1.4909359141908864E+00 
    1.4668359304554597E+00 
    1.4448748708251165E+00 
    1.4254814375466758E+00 
    1.4090618380993778E+00 
    1.3959058713188952E+00 
    1.3860648554040180E+00 
    1.3803372337237254E+00 
    1.6478200088142825E+00 
    1.6385398224500967E+00 
    1.6219691539435066E+00 
    1.6005500197217897E+00 
    1.5762385072542207E+00 
    1.5504058568175823E+00 
    1.5239981199534551E+00 
    1.4977132020747437E+00 
    1.4721311393884142E+00 
    1.4477940413051062E+00 
    1.4252499428672822E+00 
    1.4050619358980578E+00 
    1.3877708796613351E+00 
    1.3738044604546016E+00 
    1.3633396461876803E+00 
    1.3572529320860232E+00 
    1.6108157673480421E+00 
    1.6036425707257571E+00 
    1.5902363143448299E+00 
    1.5720290214271895E+00 
    1.5504058568177916E+00 
    1.5265179323114073E+00 
    1.5012844884664380E+00 
    1.4754636761534743E+00 
    1.4497302570675674E+00 
    1.4247364842694732E+00 
    1.4011544158718883E+00 
    1.3796887377258478E+00 
    1.3610440194664812E+00 
    1.3458297447168674E+00 
    1.3343924979939776E+00 
    1.3277236743656216E+00 
    1.5777851304357300E+00 
    1.5717484844219607E+00 
    1.5601713029430482E+00 
    1.5439312994062273E+00 
    1.5239981199538428E+00 
    1.5012844884666250E+00 
    1.4766058141705365E+00 
    1.4507009482198892E+00 
    1.4242777535236772E+00 
    1.3980583090759047E+00 
    1.3728203301493025E+00 
    1.3494149440369896E+00 
    1.3287432296352686E+00 
    1.3116501235930977E+00 
    1.2987236438688967E+00 
    1.2911427975665841E+00 
    1.5479101471795615E+00 
    1.5424837278477554E+00 
    1.5319150283992307E+00 
    1.5167646282021587E+00 
    1.4977132020752821E+00 
    1.4754636761538285E+00 
    1.4507009482200668E+00 
    1.4240976367144484E+00 
    1.3963464615191177E+00 
    1.3682001201666831E+00 
    1.3405180512266348E+00 
    1.3142991557856771E+00 
    1.2906741235780474E+00 
    1.2707974698610469E+00 
    1.2556137638635920E+00 
    1.2466115385968339E+00 
    1.5208362044525716E+00 
    1.5157077534822494E+00 
    1.5056196431063642E+00 
    1.4909359141915945E+00 
    1.4721311393889831E+00 
    1.4497302570680066E+00 
    1.4242777535239886E+00 
    1.3963464615192922E+00 
    1.3665700477096943E+00 
    1.3356871862977739E+00 
    1.3046022048660990E+00 
    1.2744492473358324E+00 
    1.2466181847718429E+00 
    1.2226730365377321E+00 
    1.2040824511724662E+00 
    1.1928470670800249E+00 
    1.4964789233165332E+00 
    1.4914517086349721E+00 
    1.4814942513733331E+00 
    1.4668359304560341E+00 
    1.4477940413056194E+00 
    1.4247364842699350E+00 
    1.3980583090763197E+00 
    1.3682001201670422E+00 
    1.3356871862980044E+00 
    1.3011831157261231E+00 
    1.2655733485494913E+00 
    1.2300805626514173E+00 
    1.1963615874917266E+00 
    1.1665022839924057E+00 
    1.1427444973402812E+00 
    1.1279667997570670E+00 
    1.4749169827176538E+00 
    1.4698653722113859E+00 
    1.4598088823227502E+00 
    1.4448748708255712E+00 
    1.4252499428677494E+00 
    1.4011544158723852E+00 
    1.3728203301498412E+00 
    1.3405180512272141E+00 
    1.3046022048666146E+00 
    1.2655733485497895E+00 
    1.2241864175123627E+00 
    1.1816372168631037E+00 
    1.1397811150529871E+00 
    1.1013027737500349E+00 
    1.0695859173800537E+00 
    1.0490743464537000E+00 
    1.4563157975656973E+00 
    1.4511655053979289E+00 
    1.4408727539421746E+00 
    1.4254814375470350E+00 
    1.4050619358984997E+00 
    1.3796887377264022E+00 
    1.3494149440376810E+00 
    1.3142991557865220E+00 
    1.2744492473366982E+00 
    1.2300805626520921E+00 
    1.1816372168634950E+00 
    1.1300502038526845E+00 
    1.0771238394531366E+00 
    1.0260442657633677E+00 
    9.8174615180724334E-01 
    9.5150219733373442E-01 
    1.4408500051066502E+00 
    1.4355689927071569E+00 
    1.4249827159845192E+00 
    1.4090618380996733E+00 
    1.3877708796617798E+00 
    1.3610440194671198E+00 
    1.3287432296361470E+00 
    1.2906741235792056E+00 
    1.2466181847731264E+00 
    1.1963615874928593E+00 
    1.1397811150538675E+00 
    1.0771238394536482E+00 
    1.0095415255402724E+00 
    9.4008869550672203E-01 
    8.7525071213436612E-01 
    8.2721772129277138E-01 
    1.4286130262947176E+00 
    1.4232017517243267E+00 
    1.4123295420406332E+00 
    1.3959058713191628E+00 
    1.3738044604550814E+00 
    1.3458297447176206E+00 
    1.3116501235941940E+00 
    1.2707974698625588E+00 
    1.2226730365394871E+00 
    1.1665022839940600E+00 
    1.1013027737514849E+00 
    1.0260442657644961E+00 
    9.4008869550737340E-01 
    8.4445740154601112E-01 
    7.4509153813040241E-01 
    6.6081491531384651E-01 
    1.4195045105983650E+00 
    1.4139842492255355E+00 
    1.4028804032148465E+00 
    1.3860648554043353E+00 
    1.3633396461882590E+00 
    1.3343924979948980E+00 
    1.2987236438702534E+00 
    1.2556137638654890E+00 
    1.2040824511747110E+00 
    1.1427444973424530E+00 
    1.0695859173820383E+00 
    9.8174615180890845E-01 
    8.7525071213552363E-01 
    7.4509153813080053E-01 
    5.8778297808055524E-01 
    4.1785301178731676E-01 
    1.4141991899501116E+00 
    1.4086134563856338E+00 
    1.3973744242271910E+00 
    1.3803372337241138E+00 
    1.3572529320867173E+00 
    1.3277236743667191E+00 
    1.2911427975682033E+00 
    1.2466115385991099E+00 
    1.1928470670827416E+00 
    1.1279667997597298E+00 
    1.0490743464561791E+00 
    9.5150219733587060E-01 
    8.2721772129430904E-01 
    6.6081491531431935E-01 
    4.1785301178675222E-01 
    0.0000000000000000E+00 

SCALARS Saturarion double 1 
LOOKUP_TABLE default 

    1.0000000000000000E+00 
    9.5934143710385966E-01 
    9.2291112100867678E-01 
    8.8376053015310641E-01 
    8.4374135195354327E-01 
    8.0432370764438843E-01 
    7.6581457643688688E-01 
    7.2824809671965052E-01 
    6.9115180773456331E-01 
    6.5407952475927400E-01 
    6.1586720733275624E-01 
    5.7480144758502172E-01 
    5.2667523344560974E-01 
    4.6241004434466698E-01 
    3.5146986611960562E-01 
    1.2192218497269368E-01 
    9.5934143710406894E-01 
    9.3155837052311863E-01 
    8.9885543954824088E-01 
    8.6353406510271824E-01 
    8.2703145952725798E-01 
    7.9066331411390534E-01 
    7.5474049237906560E-01 
    7.1940343370977267E-01 
    6.8422705403147299E-01 
    6.4878182075507951E-01 
    6.1196251422487136E-01 
    5.7210765636854999E-01 
    5.2503792818321660E-01 
    4.6149582331690969E-01 
    3.5086995781425123E-01 
    1.2097349351501220E-01 
    9.2291112100922790E-01 
    8.9885543954848990E-01 
    8.6989794867776171E-01 
    8.3855193061148392E-01 
    8.0595102660745543E-01 
    7.7311616716162590E-01 
    7.4036187224865546E-01 
    7.0787490020012012E-01 
    6.7527388433588242E-01 
    6.4201882829886947E-01 
    6.0710631151891026E-01 
    5.6890272885227910E-01 
    5.2334847591150746E-01 
    4.6079433093007072E-01 
    3.5082802319759215E-01 
    1.2107908299024328E-01 
    8.8376053015392009E-01 
    8.6353406510327468E-01 
    8.3855193061172784E-01 
    8.1120217788138027E-01 
    7.8259071148091541E-01 
    7.5353949292530298E-01 
    7.2431290597840692E-01 
    6.9496654074539510E-01 
    6.6522387513057402E-01 
    6.3450500173692548E-01 
    6.0188240304488150E-01 
    5.6556415894456868E-01 
    5.2189040659476382E-01 
    4.6037640825419168E-01 
    3.5154114249657981E-01 
    1.2260733451693753E-01 
    8.4374135195453848E-01 
    8.2703145952803281E-01 
    8.0595102660795515E-01 
    7.8259071148115289E-01 
    7.5794457967237472E-01 
    7.3267193758385951E-01 
    7.0700289639157132E-01 
    6.8105080419645603E-01 
    6.5443957971422817E-01 
    6.2670383437879340E-01 
    5.9675005484258326E-01 
    5.6294993814794581E-01 
    5.2112927499637474E-01 
    4.6213207381168170E-01 
    3.5518792305176261E-01 
    1.3004969365704525E-01 
    8.0432370764562056E-01 
    7.9066331411487878E-01 
    7.7311616716233311E-01 
    7.5353949292573996E-01 
    7.3267193758407712E-01 
    7.1116960222477599E-01 
    6.8907202955330626E-01 
    6.6654755031061674E-01 
    6.4314159085177980E-01 
    6.1848765080819879E-01 
    5.9142655143818479E-01 
    5.6030903607005367E-01 
    5.2096659505650511E-01 
    4.6432846316317616E-01 
    3.6013359499469633E-01 
    1.3988177414022529E-01 
    7.6581457643834838E-01 
    7.5474049238021590E-01 
    7.4036187224952865E-01 
    7.2431290597901454E-01 
    7.0700289639194491E-01 
    6.8907202955348124E-01 
    6.7049361037829236E-01 
    6.5143616977598240E-01 
    6.3139920524246418E-01 
    6.0994510921576617E-01 
    5.8597807663827273E-01 
    5.5781886250400636E-01 
    5.2145730056594541E-01 
    4.6756767675729699E-01 
    3.6692116630565735E-01 
    1.5304279050498729E-01 
    7.2824809672129509E-01 
    7.1940343371112758E-01 
    7.0787490020119237E-01 
    6.9496654074617936E-01 
    6.8105080419698183E-01 
    6.6654755031093349E-01 
    6.5143616977612684E-01 
    6.3579365413375222E-01 
    6.1919709803184753E-01 
    6.0111154460639582E-01 
    5.8047959550896577E-01 
    5.5552875640328570E-01 
    5.2262221361539485E-01 
    4.7194945100367175E-01 
    3.7585540474794854E-01 
    1.7024711390821853E-01 
    6.9115180773585527E-01 
    6.8422705403258810E-01 
    6.7527388433676105E-01 
    6.6522387513122339E-01 
    6.5443957971468147E-01 
    6.4314159085207645E-01 
    6.3139920524260817E-01 
    6.1919709803190159E-01 
    6.0617026238629035E-01 
    5.9168991320584319E-01 
    5.7472754120552039E-01 
    5.5356066760855005E-01 
    5.2444290391269521E-01 
    4.7852033807165878E-01 
    3.8839849127360809E-01 
    1.9354186972351187E-01 
    6.5407952476029108E-01 
    6.4878182075592639E-01 
    6.4201882829957302E-01 
    6.3450500173746816E-01 
    6.2670383437918198E-01 
    6.1848765080846535E-01 
    6.0994510921591327E-01 
    6.0111154460646266E-01 
    5.9168991320585418E-01 
    5.8100169005570013E-01 
    5.6801540963849217E-01 
    5.5105349568627549E-01 
    5.2651672855774090E-01 
    4.8595393918493546E-01 
    4.0342418828327820E-01 
    2.2084943730156625E-01 
    6.1586720733351830E-01 
    6.1196251422550285E-01 
    6.0710631151942751E-01 
    6.0188240304527296E-01 
    5.9675005484286292E-01 
    5.9142655143836043E-01 
    5.8597807663836809E-01 
    5.8047959550900319E-01 
    5.7472754120551217E-01 
    5.6801540963846220E-01 
    5.5936707487778647E-01 
    5.4717242856488535E-01 
    5.2804850988213969E-01 
    4.9399481149805141E-01 
    4.2099114846368785E-01 
    2.5219971001161212E-01 
    5.7480144758551077E-01 
    5.7210765636896332E-01 
    5.6890272885259996E-01 
    5.6556415894480494E-01 
    5.6294993814809280E-01 
    5.6030903607011640E-01 
    5.5781886250400503E-01 
    5.5552875640323673E-01 
    5.5356066760845513E-01 
    5.5105349568616391E-01 
    5.4717242856481185E-01 
    5.4041067609383198E-01 
    5.2762756852342241E-01 
    5.0150801936338840E-01 
    4.4025875448222418E-01 
    2.8707433343951094E-01 
    5.2667523344577560E-01 
    5.2503792818332939E-01 
    5.2334847591158262E-01 
    5.2189040659478525E-01 
    5.2112927499633699E-01 
    5.2096659505640130E-01 
    5.2145730056577611E-01 
    5.2262221361517791E-01 
    5.2444290391244597E-01 
    5.2651672855749243E-01 
    5.2804850988193353E-01 
    5.2762756852330339E-01 
    5.2247232776220254E-01 
    5.0617204383771752E-01 
    4.5971537238794191E-01 
    3.2633509553740497E-01 
    4.6241004434437838E-01 
    4.6149582331661798E-01 
    4.6079433092976940E-01 
    4.6037640825387249E-01 
    4.6213207381133797E-01 
    4.6432846316279008E-01 
    4.6756767675686639E-01 
    4.7194945100318653E-01 
    4.7852033807116212E-01 
    4.8595393918446567E-01 
    4.9399481149766095E-01 
    5.0150801936311007E-01 
    5.0617204383758452E-01 
    5.0239394987159103E-01 
    4.7443430339651210E-01 
    3.6766674595999771E-01 
    3.5146986611945069E-01 
    3.5086995781409175E-01 
    3.5082802319742701E-01 
    3.5154114249638885E-01 
    3.5518792305152458E-01 
    3.6013359499438269E-01 
    3.6692116630523891E-01 
    3.7585540474738560E-01 
    3.8839849127300197E-01 
    4.0342418828267396E-01 
    4.2099114846313823E-01 
    4.4025875448177992E-01 
    4.5971537238765675E-01 
    4.7443430339639286E-01 
    4.7188013067099976E-01 
    4.0445144499075797E-01 
    1.2192218497267925E-01 
    1.2097349351498256E-01 
    1.2107908299020591E-01 
    1.2260733451685529E-01 
    1.3004969365687355E-01 
    1.3988177413987915E-01 
    1.5304279050440625E-01 
    1.7024711390734915E-01 
    1.9354186972262877E-01 
    2.2084943730074871E-01 
    2.5219971001093111E-01 
    2.8707433343901589E-01 
    3.2633509553715567E-01 
    3.6766674596001736E-01 
    4.0445144499076252E-01 
    4.0358308125727588E-01 
