# vtk DataFile Version 2.0
Pressure Field Data 
ASCII 
DATASET UNSTRUCTURED_GRID 

POINTS 289 double 

    0.0000000000000000E+00     0.0000000000000000E+00     0.0000000000000000E+00 
    1.0000000000000000E+00     0.0000000000000000E+00     0.0000000000000000E+00 
    1.0000000000000000E+00     1.0000000000000000E+00     0.0000000000000000E+00 
    0.0000000000000000E+00     1.0000000000000000E+00     0.0000000000000000E+00 
    6.2499999999872928E-02     0.0000000000000000E+00     0.0000000000000000E+00 
    1.2499999999977310E-01     0.0000000000000000E+00     0.0000000000000000E+00 
    1.8749999999959341E-01     0.0000000000000000E+00     0.0000000000000000E+00 
    2.4999999999941089E-01     0.0000000000000000E+00     0.0000000000000000E+00 
    3.1249999999922851E-01     0.0000000000000000E+00     0.0000000000000000E+00 
    3.7499999999904610E-01     0.0000000000000000E+00     0.0000000000000000E+00 
    4.3749999999886358E-01     0.0000000000000000E+00     0.0000000000000000E+00 
    4.9999999999869210E-01     0.0000000000000000E+00     0.0000000000000000E+00 
    5.6249999999884603E-01     0.0000000000000000E+00     0.0000000000000000E+00 
    6.2499999999901090E-01     0.0000000000000000E+00     0.0000000000000000E+00 
    6.8749999999917577E-01     0.0000000000000000E+00     0.0000000000000000E+00 
    7.4999999999934064E-01     0.0000000000000000E+00     0.0000000000000000E+00 
    8.1249999999950551E-01     0.0000000000000000E+00     0.0000000000000000E+00 
    8.7499999999967026E-01     0.0000000000000000E+00     0.0000000000000000E+00 
    9.3749999999983513E-01     0.0000000000000000E+00     0.0000000000000000E+00 
    1.0000000000000000E+00     6.2499999999872928E-02     0.0000000000000000E+00 
    1.0000000000000000E+00     1.2499999999977310E-01     0.0000000000000000E+00 
    1.0000000000000000E+00     1.8749999999959341E-01     0.0000000000000000E+00 
    1.0000000000000000E+00     2.4999999999941089E-01     0.0000000000000000E+00 
    1.0000000000000000E+00     3.1249999999922851E-01     0.0000000000000000E+00 
    1.0000000000000000E+00     3.7499999999904610E-01     0.0000000000000000E+00 
    1.0000000000000000E+00     4.3749999999886358E-01     0.0000000000000000E+00 
    1.0000000000000000E+00     4.9999999999869210E-01     0.0000000000000000E+00 
    1.0000000000000000E+00     5.6249999999884603E-01     0.0000000000000000E+00 
    1.0000000000000000E+00     6.2499999999901090E-01     0.0000000000000000E+00 
    1.0000000000000000E+00     6.8749999999917577E-01     0.0000000000000000E+00 
    1.0000000000000000E+00     7.4999999999934064E-01     0.0000000000000000E+00 
    1.0000000000000000E+00     8.1249999999950551E-01     0.0000000000000000E+00 
    1.0000000000000000E+00     8.7499999999967026E-01     0.0000000000000000E+00 
    1.0000000000000000E+00     9.3749999999983513E-01     0.0000000000000000E+00 
    9.3749999999973976E-01     1.0000000000000000E+00     0.0000000000000000E+00 
    8.7499999999950118E-01     1.0000000000000000E+00     0.0000000000000000E+00 
    8.1249999999991318E-01     1.0000000000000000E+00     0.0000000000000000E+00 
    7.5000000000034706E-01     1.0000000000000000E+00     0.0000000000000000E+00 
    6.8750000000078049E-01     1.0000000000000000E+00     0.0000000000000000E+00 
    6.2500000000121403E-01     1.0000000000000000E+00     0.0000000000000000E+00 
    5.6250000000164757E-01     1.0000000000000000E+00     0.0000000000000000E+00 
    5.0000000000205946E-01     1.0000000000000000E+00     0.0000000000000000E+00 
    4.3750000000182099E-01     1.0000000000000000E+00     0.0000000000000000E+00 
    3.7500000000156092E-01     1.0000000000000000E+00     0.0000000000000000E+00 
    3.1250000000130068E-01     1.0000000000000000E+00     0.0000000000000000E+00 
    2.5000000000104050E-01     1.0000000000000000E+00     0.0000000000000000E+00 
    1.8750000000078040E-01     1.0000000000000000E+00     0.0000000000000000E+00 
    1.2500000000052031E-01     1.0000000000000000E+00     0.0000000000000000E+00 
    6.2500000000260125E-02     1.0000000000000000E+00     0.0000000000000000E+00 
    0.0000000000000000E+00     9.3749999999973976E-01     0.0000000000000000E+00 
    0.0000000000000000E+00     8.7499999999950118E-01     0.0000000000000000E+00 
    0.0000000000000000E+00     8.1249999999991318E-01     0.0000000000000000E+00 
    0.0000000000000000E+00     7.5000000000034706E-01     0.0000000000000000E+00 
    0.0000000000000000E+00     6.8750000000078049E-01     0.0000000000000000E+00 
    0.0000000000000000E+00     6.2500000000121403E-01     0.0000000000000000E+00 
    0.0000000000000000E+00     5.6250000000164757E-01     0.0000000000000000E+00 
    0.0000000000000000E+00     5.0000000000205946E-01     0.0000000000000000E+00 
    0.0000000000000000E+00     4.3750000000182099E-01     0.0000000000000000E+00 
    0.0000000000000000E+00     3.7500000000156092E-01     0.0000000000000000E+00 
    0.0000000000000000E+00     3.1250000000130068E-01     0.0000000000000000E+00 
    0.0000000000000000E+00     2.5000000000104050E-01     0.0000000000000000E+00 
    0.0000000000000000E+00     1.8750000000078040E-01     0.0000000000000000E+00 
    0.0000000000000000E+00     1.2500000000052031E-01     0.0000000000000000E+00 
    0.0000000000000000E+00     6.2500000000260125E-02     0.0000000000000000E+00 
    6.2499999999897131E-02     6.2500000000235922E-02     0.0000000000000000E+00 
    6.2499999999921327E-02     1.2500000000047351E-01     0.0000000000000000E+00 
    6.2499999999945530E-02     1.8750000000070621E-01     0.0000000000000000E+00 
    6.2499999999969733E-02     2.5000000000093858E-01     0.0000000000000000E+00 
    6.2499999999993928E-02     3.1250000000117117E-01     0.0000000000000000E+00 
    6.2500000000018124E-02     3.7500000000140382E-01     0.0000000000000000E+00 
    6.2500000000042327E-02     4.3750000000163619E-01     0.0000000000000000E+00 
    6.2500000000066530E-02     5.0000000000184897E-01     0.0000000000000000E+00 
    6.2500000000090733E-02     5.6250000000147260E-01     0.0000000000000000E+00 
    6.2500000000114922E-02     6.2500000000107636E-01     0.0000000000000000E+00 
    6.2500000000139125E-02     6.8750000000068034E-01     0.0000000000000000E+00 
    6.2500000000163328E-02     7.5000000000028411E-01     0.0000000000000000E+00 
    6.2500000000187531E-02     8.1249999999988787E-01     0.0000000000000000E+00 
    6.2500000000211720E-02     8.7499999999951172E-01     0.0000000000000000E+00 
    6.2500000000235922E-02     9.3749999999974565E-01     0.0000000000000000E+00 
    1.2499999999981980E-01     6.2500000000211733E-02     0.0000000000000000E+00 
    1.2499999999986650E-01     1.2500000000042691E-01     0.0000000000000000E+00 
    1.2499999999991319E-01     1.8750000000063199E-01     0.0000000000000000E+00 
    1.2499999999995989E-01     2.5000000000083678E-01     0.0000000000000000E+00 
    1.2500000000000661E-01     3.1250000000104172E-01     0.0000000000000000E+00 
    1.2500000000005329E-01     3.7500000000124661E-01     0.0000000000000000E+00 
    1.2500000000010000E-01     4.3750000000145117E-01     0.0000000000000000E+00 
    1.2500000000014669E-01     5.0000000000163858E-01     0.0000000000000000E+00 
    1.2500000000019340E-01     5.6250000000129741E-01     0.0000000000000000E+00 
    1.2500000000024011E-01     6.2500000000093847E-01     0.0000000000000000E+00 
    1.2500000000028680E-01     6.8750000000057998E-01     0.0000000000000000E+00 
    1.2500000000033351E-01     7.5000000000022127E-01     0.0000000000000000E+00 
    1.2500000000038020E-01     8.1249999999986211E-01     0.0000000000000000E+00 
    1.2500000000042691E-01     8.7499999999952238E-01     0.0000000000000000E+00 
    1.2500000000047359E-01     9.3749999999975164E-01     0.0000000000000000E+00 
    1.8749999999966760E-01     6.2500000000187531E-02     0.0000000000000000E+00 
    1.8749999999974179E-01     1.2500000000038020E-01     0.0000000000000000E+00 
    1.8749999999981601E-01     1.8750000000055780E-01     0.0000000000000000E+00 
    1.8749999999989009E-01     2.5000000000073502E-01     0.0000000000000000E+00 
    1.8749999999996431E-01     3.1250000000091221E-01     0.0000000000000000E+00 
    1.8750000000003850E-01     3.7500000000108941E-01     0.0000000000000000E+00 
    1.8750000000011269E-01     4.3750000000126649E-01     0.0000000000000000E+00 
    1.8750000000018691E-01     5.0000000000142808E-01     0.0000000000000000E+00 
    1.8750000000026110E-01     5.6250000000112244E-01     0.0000000000000000E+00 
    1.8750000000033529E-01     6.2500000000080080E-01     0.0000000000000000E+00 
    1.8750000000040951E-01     6.8750000000047962E-01     0.0000000000000000E+00 
    1.8750000000048361E-01     7.5000000000015843E-01     0.0000000000000000E+00 
    1.8750000000055780E-01     8.1249999999983680E-01     0.0000000000000000E+00 
    1.8750000000063199E-01     8.7499999999953304E-01     0.0000000000000000E+00 
    1.8750000000070621E-01     9.3749999999975764E-01     0.0000000000000000E+00 
    2.4999999999951281E-01     6.2500000000163314E-02     0.0000000000000000E+00 
    2.4999999999961461E-01     1.2500000000033351E-01     0.0000000000000000E+00 
    2.4999999999971650E-01     1.8750000000048361E-01     0.0000000000000000E+00 
    2.4999999999981831E-01     2.5000000000063310E-01     0.0000000000000000E+00 
    2.4999999999992020E-01     3.1250000000078260E-01     0.0000000000000000E+00 
    2.5000000000002198E-01     3.7500000000093209E-01     0.0000000000000000E+00 
    2.5000000000012390E-01     4.3750000000108180E-01     0.0000000000000000E+00 
    2.5000000000022571E-01     5.0000000000121769E-01     0.0000000000000000E+00 
    2.5000000000032763E-01     5.6250000000094724E-01     0.0000000000000000E+00 
    2.5000000000042938E-01     6.2500000000066314E-01     0.0000000000000000E+00 
    2.5000000000053119E-01     6.8750000000037925E-01     0.0000000000000000E+00 
[...]
CELL_DATA 256 
SCALARS Pressure double 1 
LOOKUP_TABLE default 

    2.4446643756329522E+00 
    2.3364167144590100E+00 
    2.2639237416549731E+00 
    2.2082084615754725E+00 
    2.1613971843211939E+00 
    2.1200370142735450E+00 
    2.0825213182397166E+00 
    2.0481071037840972E+00 
    2.0165099622569684E+00 
    1.9877078480172241E+00 
    1.9618187990644371E+00 
    1.9389780806294625E+00 
    1.9191363386932920E+00 
    1.9018393787465624E+00 
    1.8879544986201511E+00 
    1.8808729322040019E+00 
    2.3364167144595944E+00 
    2.2904453572020786E+00 
    2.2402539026103674E+00 
    2.1936645002087167E+00 
    2.1511078235522607E+00 
    2.1119318097086870E+00 
    2.0755909507982806E+00 
    2.0417975087780111E+00 
    2.0104888944354498E+00 
    1.9817643478618039E+00 
    1.9558177450399856E+00 
    1.9328390331094709E+00 
    1.9128164998757353E+00 
    1.8952972893787046E+00 
    1.8812286126345488E+00 
    1.8740636835866191E+00 
    2.2639237416558178E+00 
    2.2402539026107782E+00 
    2.2063352409755361E+00 
    2.1694721112968263E+00 
    2.1325706035439107E+00 
    2.0966879887972261E+00 
    2.0622393771705423E+00 
    2.0294668068663766E+00 
    1.9986125171168867E+00 
    1.9699640039130621E+00 
    1.9438449118791508E+00 
    1.9205446324048436E+00 
    1.9001268529344251E+00 
    1.8821574557570857E+00 
    1.8677183393059233E+00 
    1.8603765770391967E+00 
    2.2082084615765125E+00 
    2.1936645002094197E+00 
    2.1694721112971611E+00 
    2.1401140203097055E+00 
    2.1083771773427094E+00 
    2.0758350901788867E+00 
    2.0434082810770553E+00 
    2.0117158108010034E+00 
    1.9812657872991690E+00 
    1.9525397042727384E+00 
    1.9260151312907166E+00 
    1.9021137708769660E+00 
    1.8810070145594453E+00 
    1.8623188313716632E+00 
    1.8472902759623397E+00 
    1.8396480408034404E+00 
    2.1613971843224000E+00 
    2.1511078235531813E+00 
    2.1325706035445053E+00 
    2.1083771773429891E+00 
    2.0806413395564314E+00 
    2.0508762216434904E+00 
    2.0201532425942847E+00 
    1.9892847312905109E+00 
    1.9589599592916469E+00 
    1.9298245914993337E+00 
    1.9025114405567785E+00 
    1.8775964486563184E+00 
    1.8553883277555305E+00 
    1.8356168070392160E+00 
    1.8196835365761543E+00 
    1.8115603311618063E+00 
    2.1200370142748994E+00 
    2.1119318097097817E+00 
    2.0966879887980276E+00 
    2.0758350901793978E+00 
    2.0508762216437337E+00 
    2.0230804489204264E+00 
    1.9934804195411697E+00 
    1.9629458132973945E+00 
    1.9322653508471199E+00 
    1.9022072778054986E+00 
    1.8735493719121383E+00 
    1.8470359731139565E+00 
    1.8231539058604549E+00 
    1.8017780099340652E+00 
    1.7844768439843304E+00 
    1.7756164018590934E+00 
    2.0825213182411995E+00 
    2.0755909507995169E+00 
    2.0622393771715131E+00 
    2.0434082810777610E+00 
    2.0201532425947391E+00 
    1.9934804195413898E+00 
    1.9643022098791809E+00 
    1.9334603494735298E+00 
    1.9017769029282654E+00 
    1.8701004481815855E+00 
    1.8393382218158705E+00 
    1.8104172969109040E+00 
    1.7840580960117527E+00 
    1.7603442264832037E+00 
    1.7410468068405818E+00 
    1.7311004111877197E+00 
    2.0481071037856813E+00 
    2.0417975087793603E+00 
    2.0294668068674810E+00 
    2.0117158108018680E+00 
    1.9892847312911468E+00 
    1.9629458132978146E+00 
    1.9334603494737415E+00 
    1.9015887320727431E+00 
    1.8681311646724421E+00 
    1.8339720549520144E+00 
    1.8001234817247302E+00 
    1.7677078950192042E+00 
    1.7377406091039707E+00 
    1.7106348907398885E+00 
    1.6884396037674321E+00 
    1.6769078001884106E+00 
    2.0165099622583571E+00 
    2.0104888944366501E+00 
    1.9986125171179030E+00 
    1.9812657873000110E+00 
    1.9589599592923255E+00 
    1.9322653508476455E+00 
    1.9017769029286395E+00 
    1.8681311646726524E+00 
    1.8320518397214181E+00 
    1.7944035757849501E+00 
    1.7562581259071508E+00 
    1.7189261430792460E+00 
    1.6837753224925269E+00 
    1.6517145487071694E+00 
    1.6252144489177855E+00 
    1.6113071042150287E+00 
    1.9877078480182355E+00 
    1.9817643478626923E+00 
    1.9699640039138440E+00 
    1.9525397042734312E+00 
    1.9298245914999523E+00 
    1.9022072778060573E+00 
    1.8701004481820869E+00 
    1.8339720549524483E+00 
    1.7944035757852301E+00 
    1.7521582919427243E+00 
    1.7082813393853689E+00 
    1.6642124707410795E+00 
    1.6217010478165335E+00 
    1.5823291002458710E+00 
    1.5492882864705848E+00 
    1.5316721896581609E+00 
    1.9618187990651115E+00 
    1.9558177450405940E+00 
    1.9438449118797176E+00 
    1.9260151312912710E+00 
    1.9025114405573456E+00 
    1.8735493719127403E+00 
    1.8393382218165220E+00 
    1.8001234817254330E+00 
    1.7562581259077790E+00 
    1.7082813393857348E+00 
    1.6570522596471009E+00 
    1.6039773796197319E+00 
    1.5511082541399785E+00 
    1.5008458978039307E+00 
    1.4576349285607948E+00 
    1.4338260305671902E+00 
    1.9389780806298487E+00 
    1.9328390331098375E+00 
    1.9205446324052262E+00 
    1.9021137708774061E+00 
    1.8775964486568546E+00 
    1.8470359731146260E+00 
    1.8104172969117380E+00 
    1.7677078950202285E+00 
    1.7189261430803024E+00 
    1.6642124707419099E+00 
    1.6039773796202177E+00 
    1.5392438568326992E+00 
    1.4720072460787812E+00 
    1.4053825344873014E+00 
    1.3456362833888142E+00 
    1.3103064353154468E+00 
    1.9191363386934397E+00 
    1.9128164998759034E+00 
    1.9001268529346598E+00 
    1.8810070145598019E+00 
    1.8553883277560639E+00 
    1.8231539058612207E+00 
    1.7840580960128085E+00 
    1.7377406091053738E+00 
    1.6837753224940954E+00 
    1.6217010478179326E+00 
    1.5511082541410814E+00 
    1.4720072460794327E+00 
    1.3854338566451978E+00 
    1.2943041379160278E+00 
    1.2065021494209407E+00 
    1.1475059555013278E+00 
    1.9018393787465238E+00 
    1.8952972893787188E+00 
    1.8821574557572109E+00 
    1.8623188313719701E+00 
    1.8356168070397769E+00 
    1.8017780099349576E+00 
    1.7603442264845157E+00 
    1.7106348907417166E+00 
    1.6517145487093126E+00 
    1.5823291002479172E+00 
    1.5008458978057566E+00 
    1.4053825344887538E+00 
    1.2943041379168880E+00 
    1.1675901580652117E+00 
    1.0315944253514093E+00 
    9.2124563434904783E-01 
    1.8879544986200789E+00 
    1.8812286126345450E+00 
    1.8677183393060575E+00 
    1.8472902759627008E+00 
    1.8196835365768309E+00 
    1.7844768439854235E+00 
    1.7410468068422096E+00 
    1.6884396037697311E+00 
    1.6252144489205276E+00 
    1.5492882864732707E+00 
    1.4576349285632924E+00 
    1.3456362833909614E+00 
    1.2065021494224759E+00 
    1.0315944253519380E+00 
    8.1400029575885979E-01 
    5.8192188101000752E-01 
    1.8808729322039497E+00 
    1.8740636835866440E+00 
    1.8603765770393814E+00 
    1.8396480408038896E+00 
    1.8115603311626260E+00 
    1.7756164018604048E+00 
    1.7311004111896675E+00 
    1.6769078001911646E+00 
    1.6113071042183287E+00 
    1.5316721896614256E+00 
    1.4338260305702824E+00 
    1.3103064353181999E+00 
    1.1475059555034031E+00 
    9.2124563434970674E-01 
    5.8192188100922670E-01 
    0.0000000000000000E+00 

SCALARS Saturarion double 1 
LOOKUP_TABLE default 

    1.0000000000000000E+00 
    9.4393330853274360E-01 
    8.9668261690004458E-01 
    8.4828076461945912E-01 
    8.0066235860269563E-01 
    7.5517595309729146E-01 
    7.1171136059993323E-01 
    6.6996878281302996E-01 
    6.2909725688708029E-01 
    5.8827863726886109E-01 
    5.4557134606399982E-01 
    4.9737523080322416E-01 
    4.3319326253604362E-01 
    3.2551370953404324E-01 
    1.2207049683217820E-01 
    3.9020406004450494E-03 
    9.4393330853304036E-01 
    9.0759951307752396E-01 
    8.6652192066256861E-01 
    8.2382024689649302E-01 
    7.8103094674847451E-01 
    7.3947455498976500E-01 
    6.9917514420888860E-01 
    6.6004315438995242E-01 
    6.2133169473669891E-01 
    5.8226909021499829E-01 
    5.4099123899723933E-01 
    4.9392514973015866E-01 
    4.3035415669236482E-01 
    3.2158229128667387E-01 
    1.1593621642636014E-01 
    3.3269920591399607E-03 
    8.9668261690068207E-01 
    8.6652192066288258E-01 
    8.3125912246174227E-01 
    7.9422512651586885E-01 
    7.5662315762899168E-01 
    7.1949827228167451E-01 
    6.8298690137555229E-01 
    6.4712851305656116E-01 
    6.1127901312294497E-01 
    5.7455951440750452E-01 
    5.3524192162700446E-01 
    4.8975300974181007E-01 
    4.2731318710214217E-01 
    3.1739963328640430E-01 
    1.0958725445413210E-01 
    2.8033711142837767E-03 
    8.4828076462040569E-01 
    8.2382024689712652E-01 
    7.9422512651619803E-01 
    7.6255760844009490E-01 
    7.3003241796915275E-01 
    6.9749684310774807E-01 
    6.6510018752585820E-01 
    6.3277028228971766E-01 
    6.0003852928402013E-01 
    5.6600903824755344E-01 
    5.2906088445789623E-01 
    4.8534639135288510E-01 
    4.2451315837106457E-01 
    3.1295043486570462E-01 
    1.0338681718244012E-01 
    2.3647012134405134E-03 
    8.0066235860397583E-01 
    7.8103094674929885E-01 
    7.5662315762959009E-01 
    7.3003241796938190E-01 
    7.0235286339252145E-01 
    6.7425610543464931E-01 
    6.4589922358629515E-01 
    6.1732616469050727E-01 
    5.8797983600242698E-01 
    5.5714707725666146E-01 
    5.2303808846610000E-01 
    4.8206356710585324E-01 
    4.2272409724595361E-01 
    3.1385712517414449E-01 
    1.0691775067210428E-01 
    2.6814046542685244E-03 
    7.5517595309868590E-01 
    7.3947455499072434E-01 
    7.1949827228242236E-01 
    6.9749684310824844E-01 
    6.7425610543485526E-01 
    6.5046978194535743E-01 
    6.2608366864732157E-01 
    6.0124148085132123E-01 
    5.7531032391409809E-01 
    5.4773393392506786E-01 
    5.1666453613184837E-01 
    4.7853214574481273E-01 
    4.2164309171638753E-01 
    3.1481746075626921E-01 
    1.0869333403458326E-01 
    2.7853953538627338E-03 
    7.1171136060152085E-01 
    6.9917514421015747E-01 
    6.8298690137652118E-01 
    6.6510018752655087E-01 
    6.4589922358670904E-01 
    6.2608366864748421E-01 
    6.0553662803263375E-01 
    5.8442569643316988E-01 
    5.6207649434655027E-01 
    5.3786341764968315E-01 
    5.1004173029530309E-01 
    4.7504666238445742E-01 
    4.2142559432639837E-01 
    3.1714121369142784E-01 
    1.1296010378636921E-01 
    3.1657532707588037E-03 
    6.6996878281484018E-01 
    6.6004315439145678E-01 
    6.4712851305774832E-01 
    6.3277028229057364E-01 
    6.1732616469107304E-01 
    6.0124148085165463E-01 
    5.8442569643332920E-01 
    5.6694802249867615E-01 
    5.4825114623533699E-01 
    5.2760070724171482E-01 
    5.0332865022575168E-01 
    4.7175865318800553E-01 
    4.2227302607068673E-01 
    3.2133563746916477E-01 
    1.2185039753701943E-01 
    4.1122780477142479E-03 
    6.2909725688847951E-01 
    6.2133169473794536E-01 
    6.1127901312392974E-01 
    6.0003852928474677E-01 
    5.8797983600294790E-01 
    5.7531032391444759E-01 
    5.6207649434673335E-01 
    5.4825114623541604E-01 
    5.3337112420830990E-01 
    5.1659762280267196E-01 
    4.9636144183822478E-01 
    4.6917772549405978E-01 
    4.2446339580136500E-01 
    3.3150534721030372E-01 
    1.4493076340604857E-01 
    7.7556343622244049E-03 
    5.8827863727000207E-01 
    5.8226909021597306E-01 
    5.7455951440827391E-01 
    5.6600903824813587E-01 
    5.5714707725710855E-01 
    5.4773393392536229E-01 
    5.3786341764985668E-01 
    5.2760070724181263E-01 
    5.1659762280270627E-01 
    5.0395019678558028E-01 
    4.8815161585557260E-01 
    4.6596617941269391E-01 
    4.2753481776344415E-01 
    3.4419146812401163E-01 
    1.7337541112134394E-01 
    1.4597334232006636E-02 
    5.4557134606483182E-01 
    5.4099123899794332E-01 
    5.3524192162756379E-01 
    5.2906088445832311E-01 
    5.2303808846642685E-01 
    5.1666453613205987E-01 
    5.1004173029542932E-01 
    5.0332865022581597E-01 
    4.9636144183821485E-01 
    4.8815161585554095E-01 
    4.7732765154886009E-01 
    4.6098356300946597E-01 
    4.3035009250071915E-01 
    3.5931212596283657E-01 
    2.0762122730527249E-01 
    2.9325445405924133E-02 
    4.9737523080375812E-01 
    4.9392514973059237E-01 
    4.8975300974215319E-01 
    4.8534639135313024E-01 
    4.8206356710601994E-01 
    4.7853214574490083E-01 
    4.7504666238447557E-01 
    4.7175865318796451E-01 
    4.6917772549395997E-01 
    4.6596617941256585E-01 
    4.6098356300937282E-01 
    4.5168563537097189E-01 
    4.3052738352132963E-01 
    3.7480802277770248E-01 
    2.4574755382621136E-01 
    5.9382510416692444E-02 
    4.3319326253621449E-01 
    4.3035415669248284E-01 
    4.2731318710219940E-01 
    4.2451315837107056E-01 
    4.2272409724589433E-01 
    4.2164309171626174E-01 
    4.2142559432620830E-01 
    4.2227302607042227E-01 
    4.2446339580103010E-01 
    4.2753481776309260E-01 
    4.3035009250041484E-01 
    4.3052738352114361E-01 
    4.2183980789693709E-01 
    3.8574986236173714E-01 
    2.8504786905299723E-01 
    1.1192889206130222E-01 
    3.2551370953368941E-01 
    3.2158229128631843E-01 
    3.1739963328603626E-01 
    3.1295043486531376E-01 
    3.1385712517371400E-01 
    3.1481746075576944E-01 
    3.1714121369082832E-01 
    3.2133563746843047E-01 
    3.3150534720948244E-01 
    3.4419146812318119E-01 
    3.5931212596209722E-01 
    3.7480802277714587E-01 
    3.8574986236145314E-01 
    3.7704654934685267E-01 
    3.1447669835161762E-01 
    1.7389815291792865E-01 
    1.2207049683223928E-01 
    1.1593621642638026E-01 
    1.0958725445411703E-01 
    1.0338681718235149E-01 
    1.0691775067189195E-01 
    1.0869333403419333E-01 
    1.1296010378570985E-01 
    1.2185039753600346E-01 
    1.4493076340468644E-01 
    1.7337541111978411E-01 
    2.0762122730377117E-01 
    2.4574755382495653E-01 
    2.8504786905212492E-01 
    3.1447669835116138E-01 
    3.0686127979055650E-01 
    2.2165623645112778E-01 
    3.9020406004607422E-03 
    3.3269920591494514E-03 
    2.8033711142887003E-03 
    2.3647012134386646E-03 
    2.6814046542559980E-03 
    2.7853953538344535E-03 
    3.1657532707020748E-03 
    4.1122780476032603E-03 
    7.7556343619530309E-03 
    1.4597334231484098E-02 
    2.9325445405020217E-02 
    5.9382510415382415E-02 
    1.1192889206003200E-01 
    1.7389815291723235E-01 
    2.2165623645072421E-01 
    2.1653897902711403E-01 
