# vtk DataFile Version 2.0
Pressure Field Data 
ASCII 
DATASET UNSTRUCTURED_GRID 

POINTS 289 double 

    0.0000000000000000E+00     0.0000000000000000E+00     0.0000000000000000E+00 
    1.0000000000000000E+00     0.0000000000000000E+00     0.0000000000000000E+00 
    1.0000000000000000E+00     1.0000000000000000E+00     0.0000000000000000E+00 
    0.0000000000000000E+00     1.0000000000000000E+00     0.0000000000000000E+00 
    6.2499999999872928E-02     0.0000000000000000E+00     0.0000000000000000E+00 
    1.2499999999977310E-01     0.0000000000000000E+00     0.0000000000000000E+00 
    1.8749999999959341E-01     0.0000000000000000E+00     0.0000000000000000E+00 
    2.4999999999941089E-01     0.0000000000000000E+00     0.0000000000000000E+00 
    3.1249999999922851E-01     0.0000000000000000E+00     0.0000000000000000E+00 
    3.7499999999904610E-01     0.0000000000000000E+00     0.0000000000000000E+00 
    4.3749999999886358E-01     0.0000000000000000E+00     0.0000000000000000E+00 
    4.9999999999869210E-01     0.0000000000000000E+00     0.0000000000000000E+00 
    5.6249999999884603E-01     0.0000000000000000E+00     0.0000000000000000E+00 
    6.2499999999901090E-01     0.0000000000000000E+00     0.0000000000000000E+00 
    6.8749999999917577E-01     0.0000000000000000E+00     0.0000000000000000E+00 
    7.4999999999934064E-01     0.0000000000000000E+00     0.0000000000000000E+00 
    8.1249999999950551E-01     0.0000000000000000E+00     0.0000000000000000E+00 
    8.7499999999967026E-01     0.0000000000000000E+00     0.0000000000000000E+00 
    9.3749999999983513E-01     0.0000000000000000E+00     0.0000000000000000E+00 
    1.0000000000000000E+00     6.2499999999872928E-02     0.0000000000000000E+00 
    1.0000000000000000E+00     1.2499999999977310E-01     0.0000000000000000E+00 
    1.0000000000000000E+00     1.8749999999959341E-01     0.0000000000000000E+00 
    1.0000000000000000E+00     2.4999999999941089E-01     0.0000000000000000E+00 
    1.0000000000000000E+00     3.1249999999922851E-01     0.0000000000000000E+00 
    1.0000000000000000E+00     3.7499999999904610E-01     0.0000000000000000E+00 
    1.0000000000000000E+00     4.3749999999886358E-01     0.0000000000000000E+00 
    1.0000000000000000E+00     4.9999999999869210E-01     0.0000000000000000E+00 
    1.0000000000000000E+00     5.6249999999884603E-01     0.0000000000000000E+00 
    1.0000000000000000E+00     6.2499999999901090E-01     0.0000000000000000E+00 
    1.0000000000000000E+00     6.8749999999917577E-01     0.0000000000000000E+00 
    1.0000000000000000E+00     7.4999999999934064E-01     0.0000000000000000E+00 
    1.0000000000000000E+00     8.1249999999950551E-01     0.0000000000000000E+00 
    1.0000000000000000E+00     8.7499999999967026E-01     0.0000000000000000E+00 
    1.0000000000000000E+00     9.3749999999983513E-01     0.0000000000000000E+00 
    9.3749999999973976E-01     1.0000000000000000E+00     0.0000000000000000E+00 
    8.7499999999950118E-01     1.0000000000000000E+00     0.0000000000000000E+00 
    8.1249999999991318E-01     1.0000000000000000E+00     0.0000000000000000E+00 
    7.5000000000034706E-01     1.0000000000000000E+00     0.0000000000000000E+00 
    6.8750000000078049E-01     1.0000000000000000E+00     0.0000000000000000E+00 
    6.2500000000121403E-01     1.0000000000000000E+00     0.0000000000000000E+00 
    5.6250000000164757E-01     1.0000000000000000E+00     0.0000000000000000E+00 
    5.0000000000205946E-01     1.0000000000000000E+00     0.0000000000000000E+00 
    4.3750000000182099E-01     1.0000000000000000E+00     0.0000000000000000E+00 
    3.7500000000156092E-01     1.0000000000000000E+00     0.0000000000000000E+00 
    3.1250000000130068E-01     1.0000000000000000E+00     0.0000000000000000E+00 
    2.5000000000104050E-01     1.0000000000000000E+00     0.0000000000000000E+00 
    1.8750000000078040E-01     1.0000000000000000E+00     0.0000000000000000E+00 
    1.2500000000052031E-01     1.0000000000000000E+00     0.0000000000000000E+00 
    6.2500000000260125E-02     1.0000000000000000E+00     0.0000000000000000E+00 
    0.0000000000000000E+00     9.3749999999973976E-01     0.0000000000000000E+00 
    0.0000000000000000E+00     8.7499999999950118E-01     0.0000000000000000E+00 
    0.0000000000000000E+00     8.1249999999991318E-01     0.0000000000000000E+00 
    0.0000000000000000E+00     7.5000000000034706E-01     0.0000000000000000E+00 
    0.0000000000000000E+00     6.8750000000078049E-01     0.0000000000000000E+00 
    0.0000000000000000E+00     6.2500000000121403E-01     0.0000000000000000E+00 
    0.0000000000000000E+00     5.6250000000164757E-01     0.0000000000000000E+00 
    0.0000000000000000E+00     5.0000000000205946E-01     0.0000000000000000E+00 
    0.0000000000000000E+00     4.3750000000182099E-01     0.0000000000000000E+00 
    0.0000000000000000E+00     3.7500000000156092E-01     0.0000000000000000E+00 
    0.0000000000000000E+00     3.1250000000130068E-01     0.0000000000000000E+00 
    0.0000000000000000E+00     2.5000000000104050E-01     0.0000000000000000E+00 
    0.0000000000000000E+00     1.8750000000078040E-01     0.0000000000000000E+00 
    0.0000000000000000E+00     1.2500000000052031E-01     0.0000000000000000E+00 
    0.0000000000000000E+00     6.2500000000260125E-02     0.0000000000000000E+00 
    6.2499999999897131E-02     6.2500000000235922E-02     0.0000000000000000E+00 
    6.2499999999921327E-02     1.2500000000047351E-01     0.0000000000000000E+00 
    6.2499999999945530E-02     1.8750000000070621E-01     0.0000000000000000E+00 
    6.2499999999969733E-02     2.5000000000093858E-01     0.0000000000000000E+00 
    6.2499999999993928E-02     3.1250000000117117E-01     0.0000000000000000E+00 
    6.2500000000018124E-02     3.7500000000140382E-01     0.0000000000000000E+00 
    6.2500000000042327E-02     4.3750000000163619E-01     0.0000000000000000E+00 
    6.2500000000066530E-02     5.0000000000184897E-01     0.0000000000000000E+00 
    6.2500000000090733E-02     5.6250000000147260E-01     0.0000000000000000E+00 
    6.2500000000114922E-02     6.2500000000107636E-01     0.0000000000000000E+00 
    6.2500000000139125E-02     6.8750000000068034E-01     0.0000000000000000E+00 
    6.2500000000163328E-02     7.5000000000028411E-01     0.0000000000000000E+00 
    6.2500000000187531E-02     8.1249999999988787E-01     0.0000000000000000E+00 
    6.2500000000211720E-02     8.7499999999951172E-01     0.0000000000000000E+00 
    6.2500000000235922E-02     9.3749999999974565E-01     0.0000000000000000E+00 
    1.2499999999981980E-01     6.2500000000211733E-02     0.0000000000000000E+00 
    1.2499999999986650E-01     1.2500000000042691E-01     0.0000000000000000E+00 
    1.2499999999991319E-01     1.8750000000063199E-01     0.0000000000000000E+00 
    1.2499999999995989E-01     2.5000000000083678E-01     0.0000000000000000E+00 
    1.2500000000000661E-01     3.1250000000104172E-01     0.0000000000000000E+00 
    1.2500000000005329E-01     3.7500000000124661E-01     0.0000000000000000E+00 
    1.2500000000010000E-01     4.3750000000145117E-01     0.0000000000000000E+00 
    1.2500000000014669E-01     5.0000000000163858E-01     0.0000000000000000E+00 
    1.2500000000019340E-01     5.6250000000129741E-01     0.0000000000000000E+00 
    1.2500000000024011E-01     6.2500000000093847E-01     0.0000000000000000E+00 
    1.2500000000028680E-01     6.8750000000057998E-01     0.0000000000000000E+00 
    1.2500000000033351E-01     7.5000000000022127E-01     0.0000000000000000E+00 
    1.2500000000038020E-01     8.1249999999986211E-01     0.0000000000000000E+00 
    1.2500000000042691E-01     8.7499999999952238E-01     0.0000000000000000E+00 
    1.2500000000047359E-01     9.3749999999975164E-01     0.0000000000000000E+00 
    1.8749999999966760E-01     6.2500000000187531E-02     0.0000000000000000E+00 
    1.8749999999974179E-01     1.2500000000038020E-01     0.0000000000000000E+00 
    1.8749999999981601E-01     1.8750000000055780E-01     0.0000000000000000E+00 
    1.8749999999989009E-01     2.5000000000073502E-01     0.0000000000000000E+00 
    1.8749999999996431E-01     3.1250000000091221E-01     0.0000000000000000E+00 
    1.8750000000003850E-01     3.7500000000108941E-01     0.0000000000000000E+00 
    1.8750000000011269E-01     4.3750000000126649E-01     0.0000000000000000E+00 
    1.8750000000018691E-01     5.0000000000142808E-01     0.0000000000000000E+00 
    1.8750000000026110E-01     5.6250000000112244E-01     0.0000000000000000E+00 
    1.8750000000033529E-01     6.2500000000080080E-01     0.0000000000000000E+00 
    1.8750000000040951E-01     6.8750000000047962E-01     0.0000000000000000E+00 
    1.8750000000048361E-01     7.5000000000015843E-01     0.0000000000000000E+00 
    1.8750000000055780E-01     8.1249999999983680E-01     0.0000000000000000E+00 
    1.8750000000063199E-01     8.7499999999953304E-01     0.0000000000000000E+00 
    1.8750000000070621E-01     9.3749999999975764E-01     0.0000000000000000E+00 
    2.4999999999951281E-01     6.2500000000163314E-02     0.0000000000000000E+00 
    2.4999999999961461E-01     1.2500000000033351E-01     0.0000000000000000E+00 
    2.4999999999971650E-01     1.8750000000048361E-01     0.0000000000000000E+00 
    2.4999999999981831E-01     2.5000000000063310E-01     0.0000000000000000E+00 
    2.4999999999992020E-01     3.1250000000078260E-01     0.0000000000000000E+00 
    2.5000000000002198E-01     3.7500000000093209E-01     0.0000000000000000E+00 
    2.5000000000012390E-01     4.3750000000108180E-01     0.0000000000000000E+00 
    2.5000000000022571E-01     5.0000000000121769E-01     0.0000000000000000E+00 
    2.5000000000032763E-01     5.6250000000094724E-01     0.0000000000000000E+00 
    2.5000000000042938E-01     6.2500000000066314E-01     0.0000000000000000E+00 
    2.5000000000053119E-01     6.8750000000037925E-01     0.0000000000000000E+00 
[...]
CELL_DATA 256 
SCALARS Pressure double 1 
LOOKUP_TABLE default 

    1.8898970348058182E+00 
    1.7840764812958174E+00 
    1.7151557428547619E+00 
    1.6634955840536023E+00 
    1.6210693065833901E+00 
    1.5843195122731022E+00 
    1.5515493640322942E+00 
    1.5219354743894775E+00 
    1.4951178396259812E+00 
    1.4710067437730880E+00 
    1.4496759874881811E+00 
    1.4312878472494230E+00 
    1.4160188947883798E+00 
    1.4039751742666444E+00 
    1.3950783859914566E+00 
    1.3898801768433149E+00 
    1.7840764812963796E+00 
    1.7400009425733665E+00 
    1.6929458787135421E+00 
    1.6501642478878773E+00 
    1.6118495578511483E+00 
    1.5772027392536696E+00 
    1.5455674615712116E+00 
    1.5165637866765365E+00 
    1.4900452973977509E+00 
    1.4660374191016794E+00 
    1.4446846777964413E+00 
    1.4262002688642419E+00 
    1.4108025788662122E+00 
    1.3986301199230049E+00 
    1.3896262549261336E+00 
    1.3843631534912531E+00 
    1.7151557428555537E+00 
    1.6929458787139233E+00 
    1.6616818359892902E+00 
    1.6282823139631706E+00 
    1.5953966398440906E+00 
    1.5639076965865277E+00 
    1.5340989225445745E+00 
    1.5061042262090190E+00 
    1.4800691300503253E+00 
    1.4561963170342966E+00 
    1.4347498175169300E+00 
    1.4160344291390061E+00 
    1.4003475696113976E+00 
    1.3878922517558270E+00 
    1.3786593847835893E+00 
    1.3732608001080662E+00 
    1.6634955840545551E+00 
    1.6501642478885157E+00 
    1.6282823139634712E+00 
    1.6020851688613345E+00 
    1.5741436117028393E+00 
    1.5458604710841797E+00 
    1.5180174945710014E+00 
    1.4911148328295496E+00 
    1.4655520374265567E+00 
    1.4417126017124198E+00 
    1.4199996593639772E+00 
    1.4008361820203221E+00 
    1.3846274871187860E+00 
    1.3716744604407223E+00 
    1.3620516804142653E+00 
    1.3564283323736253E+00 
    1.6210693065844701E+00 
    1.6118495578519678E+00 
    1.5953966398446167E+00 
    1.5741436117030847E+00 
    1.5500369367448437E+00 
    1.5244389235212590E+00 
    1.4982874186532547E+00 
    1.4722724868086383E+00 
    1.4469662617483572E+00 
    1.4229026797350888E+00 
    1.4006214233107812E+00 
    1.3806780937475120E+00 
    1.3636106012069740E+00 
    1.3498554899703730E+00 
    1.3396110874039693E+00 
    1.3336236710573333E+00 
    1.5843195122742924E+00 
    1.5772027392546280E+00 
    1.5639076965872272E+00 
    1.5458604710846227E+00 
    1.5244389235214675E+00 
    1.5007866424060963E+00 
    1.4758153613186449E+00 
    1.4502755369603515E+00 
    1.4248336985992016E+00 
    1.4001330984109150E+00 
    1.3768360059446445E+00 
    1.3556374659949531E+00 
    1.3372361967791586E+00 
    1.3222472316649374E+00 
    1.3110360257748339E+00 
    1.3044626606334677E+00 
    1.5515493640335802E+00 
    1.5455674615722821E+00 
    1.5340989225454116E+00 
    1.5180174945716058E+00 
    1.4982874186536417E+00 
    1.4758153613188316E+00 
    1.4514102010433749E+00 
    1.4258035923621060E+00 
    1.3996951283863945E+00 
    1.3737972372329195E+00 
    1.3488763799146792E+00 
    1.3257715395267120E+00 
    1.3053740896267290E+00 
    1.2885299226817797E+00 
    1.2758418976927144E+00 
    1.2683547784565792E+00 
    1.5219354743908340E+00 
    1.5165637866776891E+00 
    1.5061042262099591E+00 
    1.4911148328302823E+00 
    1.4722724868091754E+00 
    1.4502755369607050E+00 
    1.4258035923622832E+00 
    1.3995229613176743E+00 
    1.3721184818509777E+00 
    1.3443329106758211E+00 
    1.3170131646157490E+00 
    1.2911432849646480E+00 
    1.2678396403125980E+00 
    1.2482515230890319E+00 
    1.2333320787263784E+00 
    1.2244293604363197E+00 
    1.4951178396271565E+00 
    1.4900452973987650E+00 
    1.4800691300511806E+00 
    1.4655520374272633E+00 
    1.4469662617489252E+00 
    1.4248336985996395E+00 
    1.3996951283867052E+00 
    1.3721184818511523E+00 
    1.3427305512461754E+00 
    1.3122604192442717E+00 
    1.2815991970454654E+00 
    1.2518636392700984E+00 
    1.2244242220736383E+00 
    1.2008319140791963E+00 
    1.1825562432143313E+00 
    1.1714460915630549E+00 
    1.4710067437739325E+00 
    1.4660374191024208E+00 
    1.4561963170349470E+00 
    1.4417126017129951E+00 
    1.4229026797356030E+00 
    1.4001330984113773E+00 
    1.3737972372333340E+00 
    1.3443329106761783E+00 
    1.3122604192445000E+00 
    1.2782352054869590E+00 
    1.2431299627618624E+00 
    1.2081483817641456E+00 
    1.1749228715110784E+00 
    1.1455170471725487E+00 
    1.1221647462569453E+00 
    1.1075736230286271E+00 
    1.4496759874887353E+00 
    1.4446846777969413E+00 
    1.4347498175173958E+00 
    1.4199996593644344E+00 
    1.4006214233112502E+00 
    1.3768360059451430E+00 
    1.3488763799152172E+00 
    1.3170131646163248E+00 
    1.2815991970459764E+00 
    1.2431299627621579E+00 
    1.2023502155941246E+00 
    1.1604373527741547E+00 
    1.1192187439702856E+00 
    1.0813469573274284E+00 
    1.0501852396058358E+00 
    1.0299749520967159E+00 
    1.4312878472497348E+00 
    1.4262002688645394E+00 
    1.4160344291393188E+00 
    1.4008361820206854E+00 
    1.3806780937479575E+00 
    1.3556374659955079E+00 
    1.3257715395274008E+00 
    1.2911432849654860E+00 
    1.2518636392709550E+00 
    1.2081483817648131E+00 
    1.1604373527745411E+00 
    1.1096479896746172E+00 
    1.0575575582700898E+00 
    1.0073123416875747E+00 
    9.6380933525196855E-01 
    9.3406896260003291E-01 
    1.4160188947885004E+00 
    1.4108025788663512E+00 
    1.4003475696115937E+00 
    1.3846274871190865E+00 
    1.3636106012074221E+00 
    1.3372361967797968E+00 
    1.3053740896276016E+00 
    1.2678396403137451E+00 
    1.2244242220749058E+00 
    1.1749228715121967E+00 
    1.1192187439711538E+00 
    1.0575575582705934E+00 
    9.9107526895092946E-01 
    9.2278946041765408E-01 
    8.5913221198822631E-01 
    8.1196741590638277E-01 
    1.4039751742666287E+00 
    1.3986301199230338E+00 
    1.3878922517559482E+00 
    1.3716744604409949E+00 
    1.3498554899708541E+00 
    1.3222472316656881E+00 
    1.2885299226828675E+00 
    1.2482515230905278E+00 
    1.2008319140809289E+00 
    1.1455170471741800E+00 
    1.0813469573288566E+00 
    1.0073123416886844E+00 
    9.2278946041829446E-01 
    8.2879708256631623E-01 
    7.3124333163689226E-01 
    6.4854703814041825E-01 
    1.3950783859914213E+00 
    1.3896262549261542E+00 
    1.3786593847837241E+00 
    1.3620516804145859E+00 
    1.3396110874045477E+00 
    1.3110360257757483E+00 
    1.2758418976940575E+00 
    1.2333320787282533E+00 
    1.1825562432165466E+00 
    1.1221647462590860E+00 
    1.0501852396077900E+00 
    9.6380933525360668E-01 
    8.5913221198936462E-01 
    7.3124333163728394E-01 
    5.7679049776107227E-01 
    4.1004350363588365E-01 
    1.3898801768432942E+00 
    1.3843631534912957E+00 
    1.3732608001082400E+00 
    1.3564283323740149E+00 
    1.3336236710580243E+00 
    1.3044626606345566E+00 
    1.2683547784581819E+00 
    1.2244293604385685E+00 
    1.1714460915657354E+00 
    1.1075736230312507E+00 
    1.0299749520991559E+00 
    9.3406896260213368E-01 
    8.1196741590789456E-01 
    6.4854703814088355E-01 
    4.1004350363533060E-01 
    0.0000000000000000E+00 

SCALARS Saturarion double 1 
LOOKUP_TABLE default 

    1.0000000000000000E+00 
    9.6025598012933788E-01 
    9.2450622375382885E-01 
    8.8596473866858227E-01 
    8.4646438591459572E-01 
    8.0747257300493880E-01 
    7.6931619972684451E-01 
    7.3204676703255056E-01 
    6.9521238625490978E-01 
    6.5838377770121759E-01 
    6.2042818556953483E-01 
    5.7969227792168765E-01 
    5.3215658566216095E-01 
    4.6925108212477096E-01 
    3.6207126536316758E-01 
    1.3509577461293767E-01 
    9.6025598012952917E-01 
    9.3300778024327979E-01 
    9.0084884288705991E-01 
    8.6602445182001209E-01 
    8.2995715508601786E-01 
    7.9395562334483361E-01 
    7.5834443025164633E-01 
    7.2327564150947465E-01 
    6.8834149095207853E-01 
    6.5312741822519726E-01 
    6.1655751727164432E-01 
    5.7702908364374417E-01 
    5.3055201638073801E-01 
    4.6838924341766230E-01 
    3.6159356099302464E-01 
    1.3431907677115190E-01 
    9.2450622375436864E-01 
    9.0084884288730671E-01 
    8.7231359581701073E-01 
    8.4135900060021274E-01 
    8.0910882861418443E-01 
    7.7657823095115286E-01 
    7.4409007576594222E-01 
    7.1183827774023867E-01 
    6.7945543546847709E-01 
    6.4641628369174564E-01 
    6.1174373197385046E-01 
    5.7386158074451421E-01 
    5.2889748234053791E-01 
    4.6774128557285871E-01 
    3.6166679469605573E-01 
    1.3464569159672407E-01 
    8.8596473866938275E-01 
    8.6602445182055343E-01 
    8.4135900060046986E-01 
    8.1431091592652438E-01 
    7.8597558071439000E-01 
    7.5717057376712926E-01 
    7.2816564062559630E-01 
    6.9902280529366001E-01 
    6.6947522068949183E-01 
    6.3895655777174931E-01 
    6.0656288287409932E-01 
    5.7056190286592989E-01 
    5.2747049136952429E-01 
    4.6737790965669784E-01 
    3.6248027069385613E-01 
    1.3645106504077820E-01 
    8.4646438591561035E-01 
    8.2995715508677659E-01 
    8.0910882861468292E-01 
    7.8597558071461726E-01 
    7.6154254888381123E-01 
    7.3646639166058214E-01 
    7.1098050589636275E-01 
    6.8520142079485291E-01 
    6.5876223537323986E-01 
    6.3120737866607890E-01 
    6.0146759456085008E-01 
    5.6796886465923546E-01 
    5.2672497509209615E-01 
    4.6911008842736690E-01 
    3.6606935303984328E-01 
    1.4390676587614756E-01 
    8.0747257300616282E-01 
    7.9395562334580161E-01 
    7.7657823095185896E-01 
    7.5717057376756025E-01 
    7.3646639166079797E-01 
    7.1511820643402546E-01 
    6.9317041637876076E-01 
    6.7079205167422340E-01 
    6.4753742178419638E-01 
    6.2304668348817982E-01 
    5.9618413587375441E-01 
    5.6535210343475972E-01 
    5.2656693706873703E-01 
    4.7127856215160802E-01 
    3.7089777667429447E-01 
    1.5386883898866299E-01 
    7.6931619972828424E-01 
    7.5834443025278298E-01 
    7.4409007576681030E-01 
    7.2816564062620037E-01 
    7.1098050589673256E-01 
    6.9317041637892651E-01 
    6.7471340792195666E-01 
    6.5577763959634205E-01 
    6.3587115258109683E-01 
    6.1456292448095040E-01 
    5.9077800522191048E-01 
    5.6288576303927629E-01 
    5.2705042045436523E-01 
    4.7446481476243374E-01 
    3.7749918377741187E-01 
    1.6705993301328159E-01 
    7.3204676703418725E-01 
    7.2327564151082890E-01 
    7.1183827774129604E-01 
    6.9902280529443728E-01 
    6.8520142079537705E-01 
    6.7079205167453859E-01 
    6.5577763959647284E-01 
    6.4023539051578715E-01 
    6.2374890410751149E-01 
    6.0579056335319814E-01 
    5.8532174534211245E-01 
    5.6061696209143286E-01 
    5.2819427557990106E-01 
    4.7876448909966429E-01 
    3.8617248608848892E-01 
    1.8401882558204360E-01 
    6.9521238625619886E-01 
    6.8834149095318498E-01 
    6.7945543546935605E-01 
    6.6947522069013543E-01 
    6.5876223537368628E-01 
    6.4753742178449303E-01 
    6.3587115258123983E-01 
    6.2374890410756290E-01 
    6.1081051613593862E-01 
    5.9643546248751667E-01 
    5.7961193458821347E-01 
    5.5865925166655106E-01 
    5.2997660105011823E-01 
    4.8517522350961467E-01 
    3.9830489363979571E-01 
    2.0657381655692481E-01 
    6.5838377770222356E-01 
    6.5312741822604470E-01 
    6.4641628369243986E-01 
    6.3895655777227922E-01 
    6.3120737866646348E-01 
    6.2304668348845682E-01 
    6.1456292448109728E-01 
    6.0579056335326165E-01 
    5.9643546248752466E-01 
    5.8582795731429915E-01 
    5.7295190953985919E-01 
    5.5616634416449806E-01 
    5.3199926035063938E-01 
    4.9241963616828333E-01 
    4.1282678522315136E-01 
    2.3293189609926479E-01 
    6.2042818557028756E-01 
    6.1655751727227415E-01 
    6.1174373197436871E-01 
    6.0656288287448867E-01 
    6.0146759456112620E-01 
    5.9618413587393626E-01 
    5.9077800522200563E-01 
    5.8532174534214676E-01 
    5.7961193458820159E-01 
    5.7295190953982955E-01 
    5.6437881306819049E-01 
    5.5231367362701789E-01 
    5.3347954930104169E-01 
    5.0024222570898325E-01 
    4.2979195190770048E-01 
    2.6325750095518080E-01 
    5.7969227792217537E-01 
    5.7702908364415528E-01 
    5.7386158074483573E-01 
    5.7056190286616815E-01 
    5.6796886465938323E-01 
    5.6535210343482156E-01 
    5.6288576303927784E-01 
    5.6061696209138390E-01 
    5.5865925166645725E-01 
    5.5616634416439314E-01 
    5.5231367362694206E-01 
    5.4562057423733179E-01 
    5.3303221628295394E-01 
    5.0753459362423814E-01 
    4.4839387355501925E-01 
    2.9713517030057146E-01 
    5.3215658566233126E-01 
    5.3055201638085370E-01 
    5.2889748234061151E-01 
    5.2747049136954993E-01 
    5.2672497509206206E-01 
    5.2656693706863367E-01 
    5.2705042045420292E-01 
    5.2819427557969389E-01 
    5.2997660104987387E-01 
    5.3199926035039335E-01 
    5.3347954930083696E-01 
    5.3303221628283648E-01 
    5.2794339352519093E-01 
    5.1203266153012650E-01 
    4.6716071888105937E-01 
    3.3543569488306002E-01 
    4.6925108212449368E-01 
    4.6838924341738164E-01 
    4.6774128557256889E-01 
    4.6737790965638859E-01 
    4.6911008842703172E-01 
    4.7127856215123054E-01 
    4.7446481476201391E-01 
    4.7876448909918767E-01 
    4.8517522350913189E-01 
    4.9241963616782319E-01 
    5.0024222570859778E-01 
    5.0753459362396625E-01 
    5.1203266152999338E-01 
    5.0832439533067331E-01 
    4.8133249390701727E-01 
    3.7593326347591027E-01 
    3.6207126536301315E-01 
    3.6159356099286544E-01 
    3.6166679469589053E-01 
    3.6248027069366745E-01 
    3.6606935303960852E-01 
    3.7089777667398788E-01 
    3.7749918377700248E-01 
    3.8617248608794491E-01 
    3.9830489363920996E-01 
    4.1282678522256716E-01 
    4.2979195190716912E-01 
    4.4839387355458665E-01 
    4.6716071888078198E-01 
    4.8133249390690036E-01 
    4.7884312206705143E-01 
    4.1217546554274959E-01 
    1.3509577461291267E-01 
    1.3431907677111718E-01 
    1.3464569159668363E-01 
    1.3645106504069443E-01 
    1.4390676587597581E-01 
    1.5386883898832471E-01 
    1.6705993301272079E-01 
    1.8401882558121063E-01 
    2.0657381655608700E-01 
    2.3293189609848844E-01 
    2.6325750095453287E-01 
    2.9713517030009978E-01 
    3.3543569488282460E-01 
    3.7593326347593670E-01 
    4.1217546554275836E-01 
    4.1132496556059789E-01 
