# vtk DataFile Version 2.0
Pressure Field Data 
ASCII 
DATASET UNSTRUCTURED_GRID 

POINTS 289 double 

    0.0000000000000000E+00     0.0000000000000000E+00     0.0000000000000000E+00 
    1.0000000000000000E+00     0.0000000000000000E+00     0.0000000000000000E+00 
    1.0000000000000000E+00     1.0000000000000000E+00     0.0000000000000000E+00 
    0.0000000000000000E+00     1.0000000000000000E+00     0.0000000000000000E+00 
    6.2499999999872928E-02     0.0000000000000000E+00     0.0000000000000000E+00 
    1.2499999999977310E-01     0.0000000000000000E+00     0.0000000000000000E+00 
    1.8749999999959341E-01     0.0000000000000000E+00     0.0000000000000000E+00 
    2.4999999999941089E-01     0.0000000000000000E+00     0.0000000000000000E+00 
    3.1249999999922851E-01     0.0000000000000000E+00     0.0000000000000000E+00 
    3.7499999999904610E-01     0.0000000000000000E+00     0.0000000000000000E+00 
    4.3749999999886358E-01     0.0000000000000000E+00     0.0000000000000000E+00 
    4.9999999999869210E-01     0.0000000000000000E+00     0.0000000000000000E+00 
    5.6249999999884603E-01     0.0000000000000000E+00     0.0000000000000000E+00 
    6.2499999999901090E-01     0.0000000000000000E+00     0.0000000000000000E+00 
    6.8749999999917577E-01     0.0000000000000000E+00     0.0000000000000000E+00 
    7.4999999999934064E-01     0.0000000000000000E+00     0.0000000000000000E+00 
    8.1249999999950551E-01     0.0000000000000000E+00     0.0000000000000000E+00 
    8.7499999999967026E-01     0.0000000000000000E+00     0.0000000000000000E+00 
    9.3749999999983513E-01     0.0000000000000000E+00     0.0000000000000000E+00 
    1.0000000000000000E+00     6.2499999999872928E-02     0.0000000000000000E+00 
    1.0000000000000000E+00     1.2499999999977310E-01     0.0000000000000000E+00 
    1.0000000000000000E+00     1.8749999999959341E-01     0.0000000000000000E+00 
    1.0000000000000000E+00     2.4999999999941089E-01     0.0000000000000000E+00 
    1.0000000000000000E+00     3.1249999999922851E-01     0.0000000000000000E+00 
    1.0000000000000000E+00     3.7499999999904610E-01     0.0000000000000000E+00 
    1.0000000000000000E+00     4.3749999999886358E-01     0.0000000000000000E+00 
    1.0000000000000000E+00     4.9999999999869210E-01     0.0000000000000000E+00 
    1.0000000000000000E+00     5.6249999999884603E-01     0.0000000000000000E+00 
    1.0000000000000000E+00     6.2499999999901090E-01     0.0000000000000000E+00 
    1.0000000000000000E+00     6.8749999999917577E-01     0.0000000000000000E+00 
    1.0000000000000000E+00     7.4999999999934064E-01     0.0000000000000000E+00 
    1.0000000000000000E+00     8.1249999999950551E-01     0.0000000000000000E+00 
    1.0000000000000000E+00     8.7499999999967026E-01     0.0000000000000000E+00 
    1.0000000000000000E+00     9.3749999999983513E-01     0.0000000000000000E+00 
    9.3749999999973976E-01     1.0000000000000000E+00     0.0000000000000000E+00 
    8.7499999999950118E-01     1.0000000000000000E+00     0.0000000000000000E+00 
    8.1249999999991318E-01     1.0000000000000000E+00     0.0000000000000000E+00 
    7.5000000000034706E-01     1.0000000000000000E+00     0.0000000000000000E+00 
    6.8750000000078049E-01     1.0000000000000000E+00     0.0000000000000000E+00 
    6.2500000000121403E-01     1.0000000000000000E+00     0.0000000000000000E+00 
    5.6250000000164757E-01     1.0000000000000000E+00     0.0000000000000000E+00 
    5.0000000000205946E-01     1.0000000000000000E+00     0.0000000000000000E+00 
    4.3750000000182099E-01     1.0000000000000000E+00     0.0000000000000000E+00 
    3.7500000000156092E-01     1.0000000000000000E+00     0.0000000000000000E+00 
    3.1250000000130068E-01     1.0000000000000000E+00     0.0000000000000000E+00 
    2.5000000000104050E-01     1.0000000000000000E+00     0.0000000000000000E+00 
    1.8750000000078040E-01     1.0000000000000000E+00     0.0000000000000000E+00 
    1.2500000000052031E-01     1.0000000000000000E+00     0.0000000000000000E+00 
    6.2500000000260125E-02     1.0000000000000000E+00     0.0000000000000000E+00 
    0.0000000000000000E+00     9.3749999999973976E-01     0.0000000000000000E+00 
    0.0000000000000000E+00     8.7499999999950118E-01     0.0000000000000000E+00 
    0.0000000000000000E+00     8.1249999999991318E-01     0.0000000000000000E+00 
    0.0000000000000000E+00     7.5000000000034706E-01     0.0000000000000000E+00 
    0.0000000000000000E+00     6.8750000000078049E-01     0.0000000000000000E+00 
    0.0000000000000000E+00     6.2500000000121403E-01     0.0000000000000000E+00 
    0.0000000000000000E+00     5.6250000000164757E-01     0.0000000000000000E+00 
    0.0000000000000000E+00     5.0000000000205946E-01     0.0000000000000000E+00 
    0.0000000000000000E+00     4.3750000000182099E-01     0.0000000000000000E+00 
    0.0000000000000000E+00     3.7500000000156092E-01     0.0000000000000000E+00 
    0.0000000000000000E+00     3.1250000000130068E-01     0.0000000000000000E+00 
    0.0000000000000000E+00     2.5000000000104050E-01     0.0000000000000000E+00 
    0.0000000000000000E+00     1.8750000000078040E-01     0.0000000000000000E+00 
    0.0000000000000000E+00     1.2500000000052031E-01     0.0000000000000000E+00 
    0.0000000000000000E+00     6.2500000000260125E-02     0.0000000000000000E+00 
    6.2499999999897131E-02     6.2500000000235922E-02     0.0000000000000000E+00 
    6.2499999999921327E-02     1.2500000000047351E-01     0.0000000000000000E+00 
    6.2499999999945530E-02     1.8750000000070621E-01     0.0000000000000000E+00 
    6.2499999999969733E-02     2.5000000000093858E-01     0.0000000000000000E+00 
    6.2499999999993928E-02     3.1250000000117117E-01     0.0000000000000000E+00 
    6.2500000000018124E-02     3.7500000000140382E-01     0.0000000000000000E+00 
    6.2500000000042327E-02     4.3750000000163619E-01     0.0000000000000000E+00 
    6.2500000000066530E-02     5.0000000000184897E-01     0.0000000000000000E+00 
    6.2500000000090733E-02     5.6250000000147260E-01     0.0000000000000000E+00 
    6.2500000000114922E-02     6.2500000000107636E-01     0.0000000000000000E+00 
    6.2500000000139125E-02     6.8750000000068034E-01     0.0000000000000000E+00 
    6.2500000000163328E-02     7.5000000000028411E-01     0.0000000000000000E+00 
    6.2500000000187531E-02     8.1249999999988787E-01     0.0000000000000000E+00 
    6.2500000000211720E-02     8.7499999999951172E-01     0.0000000000000000E+00 
    6.2500000000235922E-02     9.3749999999974565E-01     0.0000000000000000E+00 
    1.2499999999981980E-01     6.2500000000211733E-02     0.0000000000000000E+00 
    1.2499999999986650E-01     1.2500000000042691E-01     0.0000000000000000E+00 
    1.2499999999991319E-01     1.8750000000063199E-01     0.0000000000000000E+00 
    1.2499999999995989E-01     2.5000000000083678E-01     0.0000000000000000E+00 
    1.2500000000000661E-01     3.1250000000104172E-01     0.0000000000000000E+00 
    1.2500000000005329E-01     3.7500000000124661E-01     0.0000000000000000E+00 
    1.2500000000010000E-01     4.3750000000145117E-01     0.0000000000000000E+00 
    1.2500000000014669E-01     5.0000000000163858E-01     0.0000000000000000E+00 
    1.2500000000019340E-01     5.6250000000129741E-01     0.0000000000000000E+00 
    1.2500000000024011E-01     6.2500000000093847E-01     0.0000000000000000E+00 
    1.2500000000028680E-01     6.8750000000057998E-01     0.0000000000000000E+00 
    1.2500000000033351E-01     7.5000000000022127E-01     0.0000000000000000E+00 
    1.2500000000038020E-01     8.1249999999986211E-01     0.0000000000000000E+00 
    1.2500000000042691E-01     8.7499999999952238E-01     0.0000000000000000E+00 
    1.2500000000047359E-01     9.3749999999975164E-01     0.0000000000000000E+00 
    1.8749999999966760E-01     6.2500000000187531E-02     0.0000000000000000E+00 
    1.8749999999974179E-01     1.2500000000038020E-01     0.0000000000000000E+00 
    1.8749999999981601E-01     1.8750000000055780E-01     0.0000000000000000E+00 
    1.8749999999989009E-01     2.5000000000073502E-01     0.0000000000000000E+00 
    1.8749999999996431E-01     3.1250000000091221E-01     0.0000000000000000E+00 
    1.8750000000003850E-01     3.7500000000108941E-01     0.0000000000000000E+00 
    1.8750000000011269E-01     4.3750000000126649E-01     0.0000000000000000E+00 
    1.8750000000018691E-01     5.0000000000142808E-01     0.0000000000000000E+00 
    1.8750000000026110E-01     5.6250000000112244E-01     0.0000000000000000E+00 
    1.8750000000033529E-01     6.2500000000080080E-01     0.0000000000000000E+00 
    1.8750000000040951E-01     6.8750000000047962E-01     0.0000000000000000E+00 
    1.8750000000048361E-01     7.5000000000015843E-01     0.0000000000000000E+00 
    1.8750000000055780E-01     8.1249999999983680E-01     0.0000000000000000E+00 
    1.8750000000063199E-01     8.7499999999953304E-01     0.0000000000000000E+00 
    1.8750000000070621E-01     9.3749999999975764E-01     0.0000000000000000E+00 
    2.4999999999951281E-01     6.2500000000163314E-02     0.0000000000000000E+00 
    2.4999999999961461E-01     1.2500000000033351E-01     0.0000000000000000E+00 
    2.4999999999971650E-01     1.8750000000048361E-01     0.0000000000000000E+00 
    2.4999999999981831E-01     2.5000000000063310E-01     0.0000000000000000E+00 
    2.4999999999992020E-01     3.1250000000078260E-01     0.0000000000000000E+00 
    2.5000000000002198E-01     3.7500000000093209E-01     0.0000000000000000E+00 
    2.5000000000012390E-01     4.3750000000108180E-01     0.0000000000000000E+00 
    2.5000000000022571E-01     5.0000000000121769E-01     0.0000000000000000E+00 
    2.5000000000032763E-01     5.6250000000094724E-01     0.0000000000000000E+00 
    2.5000000000042938E-01     6.2500000000066314E-01     0.0000000000000000E+00 
    2.5000000000053119E-01     6.8750000000037925E-01     0.0000000000000000E+00 
[...]
CELL_DATA 256 
SCALARS Pressure double 1 
LOOKUP_TABLE default 

    1.6509714094105332E+00 
    1.5463642886691669E+00 
    1.4792104896811642E+00 
    1.4295626712174916E+00 
    1.3893150311585740E+00 
    1.3548502966328446E+00 
    1.3244164142790562E+00 
    1.2971372523150311E+00 
    1.2725997379915350E+00 
    1.2506602339762767E+00 
    1.2313399864577732E+00 
    1.2147577906538189E+00 
    1.2010755643691171E+00 
    1.1904482866007249E+00 
    1.1829365996493890E+00 
    1.1785318686336317E+00 
    1.5463642886697184E+00 
    1.5032318704095036E+00 
    1.4577315069993548E+00 
    1.4168447118591960E+00 
    1.3806436040710111E+00 
    1.3482481099614887E+00 
    1.3189364468916227E+00 
    1.2922700811794419E+00 
    1.2680453938322813E+00 
    1.2462306423713556E+00 
    1.2269146570406892E+00 
    1.2102634624434108E+00 
    1.1964765681649971E+00 
    1.1857388323405351E+00 
    1.1781342330784084E+00 
    1.1736697670758269E+00 
    1.4792104896819278E+00 
    1.4577315069997183E+00 
    1.4277949739140015E+00 
    1.3961312005310107E+00 
    1.3652589310347316E+00 
    1.3359670333144829E+00 
    1.3084634357064975E+00 
    1.2828156524111332E+00 
    1.2591054950691776E+00 
    1.2374726124712261E+00 
    1.2181191315303812E+00 
    1.2012954006137890E+00 
    1.1872713556793135E+00 
    1.1762900437642445E+00 
    1.1684826769710805E+00 
    1.1638885435202821E+00 
    1.4295626712183958E+00 
    1.4168447118597982E+00 
    1.3961312005312927E+00 
    1.3715341284502112E+00 
    1.3455130525264714E+00 
    1.3193787267789976E+00 
    1.2938339958485436E+00 
    1.2693072934327658E+00 
    1.2461283529042879E+00 
    1.2246105296092709E+00 
    1.2050863585589966E+00 
    1.1879135515680610E+00 
    1.1734573073687040E+00 
    1.1620464366595342E+00 
    1.1538876011987032E+00 
    1.1490708525671145E+00 
    1.3893150311595870E+00 
    1.3806436040717773E+00 
    1.3652589310352203E+00 
    1.3455130525266967E+00 
    1.3232646571925757E+00 
    1.2997936993410131E+00 
    1.2759616644911613E+00 
    1.2523851782045599E+00 
    1.2295620878473603E+00 
    1.2079489634325076E+00 
    1.1880045375282908E+00 
    1.1702051206630499E+00 
    1.1550315509196771E+00 
    1.1429286579670817E+00 
    1.1342103202875899E+00 
    1.1290388717124784E+00 
    1.3548502966339491E+00 
    1.3482481099623760E+00 
    1.3359670333151268E+00 
    1.3193787267794019E+00 
    1.2997936993412020E+00 
    1.2782855962716357E+00 
    1.2556959683128424E+00 
    1.2327032712254555E+00 
    1.2098972320432722E+00 
    1.1878372616509036E+00 
    1.1670934884100812E+00 
    1.1482650142325090E+00 
    1.1319706517936290E+00 
    1.1188063359257254E+00 
    1.1092318764996565E+00 
    1.1035147535354199E+00 
    1.3244164142802386E+00 
    1.3189364468926053E+00 
    1.3084634357072620E+00 
    1.2938339958490910E+00 
    1.2759616644915093E+00 
    1.2556959683130089E+00 
    1.2337840864661138E+00 
    1.2108900412227850E+00 
    1.1876365829688147E+00 
    1.1646474248700636E+00 
    1.1425857412940517E+00 
    1.1221755995610883E+00 
    1.1041991987808444E+00 
    1.0894474648208523E+00 
    1.0785869814945941E+00 
    1.0720472556803857E+00 
    1.2971372523162679E+00 
    1.2922700811804915E+00 
    1.2828156524119854E+00 
    1.2693072934334253E+00 
    1.2523851782050393E+00 
    1.2327032712257682E+00 
    1.2108900412229409E+00 
    1.1875516259383228E+00 
    1.1632993968971026E+00 
    1.1387854446028405E+00 
    1.1147439559733006E+00 
    1.0920236628635833E+00 
    1.0715970983805156E+00 
    1.0545115814949559E+00 
    1.0417374827939796E+00 
    1.0339620593685250E+00 
    1.2725997379925980E+00 
    1.2680453938331970E+00 
    1.2591054950699467E+00 
    1.2461283529049192E+00 
    1.2295620878478639E+00 
    1.2098972320436587E+00 
    1.1876365829690867E+00 
    1.1632993968972540E+00 
    1.1374472036624548E+00 
    1.1107214666637333E+00 
    1.0838955973358255E+00 
    1.0579319977796191E+00 
    1.0340186326215401E+00 
    1.0135431849253860E+00 
    9.9792730135810681E-01 
    9.8828145463355266E-01 
    1.2506602339770343E+00 
    1.2462306423720182E+00 
    1.2374726124718050E+00 
    1.2246105296097802E+00 
    1.2079489634329592E+00 
    1.1878372616513082E+00 
    1.1646474248704242E+00 
    1.1387854446031502E+00 
    1.1107214666639311E+00 
    1.0810347402171190E+00 
    1.0504843729726976E+00 
    1.0201077253946120E+00 
    9.9131541441422999E-01 
    9.6593181732770461E-01 
    9.4605234140575023E-01 
    9.3351753859378184E-01 
    1.2313399864582639E+00 
    1.2269146570411298E+00 
    1.2181191315307907E+00 
    1.2050863585593958E+00 
    1.1880045375286981E+00 
    1.1670934884105126E+00 
    1.1425857412945164E+00 
    1.1147439559737977E+00 
    1.0838955973362667E+00 
    1.0504843729729516E+00 
    1.0151621889171896E+00 
    9.7894553134645101E-01 
    9.4341176833268892E-01 
    9.1088998853324388E-01 
    8.8447052111347713E-01 
    8.6731092211624394E-01 
    1.2147577906540881E+00 
    1.2102634624436666E+00 
    1.2012954006140588E+00 
    1.1879135515683736E+00 
    1.1702051206634325E+00 
    1.1482650142329871E+00 
    1.1221755995616831E+00 
    1.0920236628643072E+00 
    1.0579319977803581E+00 
    1.0201077253951856E+00 
    9.7894553134678208E-01 
    9.3524269399220061E-01 
    8.9053603184625429E-01 
    8.4758112257959373E-01 
    8.1081828944843892E-01 
    7.8582184035949887E-01 
    1.2010755643692130E+00 
    1.1964765681651104E+00 
    1.1872713556794772E+00 
    1.1734573073689589E+00 
    1.1550315509200599E+00 
    1.1319706517941779E+00 
    1.1041991987815973E+00 
    1.0715970983815057E+00 
    1.0340186326226322E+00 
    9.9131541441518978E-01 
    9.4341176833343210E-01 
    8.9053603184668406E-01 
    8.3368143986249965E-01 
    7.7550098444869631E-01 
    7.2179737937376542E-01 
    6.8241181959413422E-01 
    1.1904482866007013E+00 
    1.1857388323405511E+00 
    1.1762900437643415E+00 
    1.1620464366597643E+00 
    1.1429286579674942E+00 
    1.1188063359263725E+00 
    1.0894474648217913E+00 
    1.0545115814962462E+00 
    1.0135431849268761E+00 
    9.6593181732910338E-01 
    9.1088998853446490E-01 
    8.4758112258053953E-01 
    7.7550098444924043E-01 
    6.9560437215293991E-01 
    6.1331180854105682E-01 
    5.4436483881971054E-01 
    1.1829365996493488E+00 
    1.1781342330784179E+00 
    1.1684826769711902E+00 
    1.1538876011989760E+00 
    1.1342103202880882E+00 
    1.1092318765004470E+00 
    1.0785869814957536E+00 
    1.0417374827955947E+00 
    9.9792730136000940E-01 
    9.4605234140758276E-01 
    8.8447052111514535E-01 
    8.1081828944983303E-01 
    7.2179737937473221E-01 
    6.1331180854138889E-01 
    4.8295121139915903E-01 
    3.4351665313001478E-01 
    1.1785318686336046E+00 
    1.1736697670758560E+00 
    1.1638885435204260E+00 
    1.1490708525674487E+00 
    1.1290388717130762E+00 
    1.1035147535363627E+00 
    1.0720472556817700E+00 
    1.0339620593704610E+00 
    9.8828145463585249E-01 
    9.3351753859602393E-01 
    8.6731092211832150E-01 
    7.8582184036128200E-01 
    6.8241181959541497E-01 
    5.4436483882010567E-01 
    3.4351665312955604E-01 
    0.0000000000000000E+00 

SCALARS Saturarion double 1 
LOOKUP_TABLE default 

    1.0000000000000000E+00 
    9.6849100497523866E-01 
    9.3909217623306862E-01 
    9.0640920304478956E-01 
    8.7202983310073634E-01 
    8.3733374917966974E-01 
    8.0279138991777155E-01 
    7.6859263272060374E-01 
    7.3446366342467606E-01 
    7.0011386474616710E-01 
    6.6465988479768723E-01 
    6.2686558112319357E-01 
    5.8395492709361385E-01 
    5.3065475580399335E-01 
    4.4910583955033634E-01 
    2.6856422515032619E-01 
    9.6849100497539342E-01 
    9.4621357109868098E-01 
    9.1923714332651030E-01 
    8.8926732532523489E-01 
    8.5754304285526395E-01 
    8.2526528164755064E-01 
    7.9285688953852029E-01 
    7.6056072237456962E-01 
    7.2811965461276695E-01 
    6.9524108682721275E-01 
    6.6107927591010984E-01 
    6.2443390835396861E-01 
    5.8255697720554234E-01 
    5.3006656748276593E-01 
    4.4917326829162507E-01 
    2.6913045629696092E-01 
    9.3909217623350727E-01 
    9.1923714332671536E-01 
    8.9480848605661834E-01 
    8.6773892838732269E-01 
    8.3902687476734683E-01 
    8.0960570569536139E-01 
    7.7985670186492451E-01 
    7.5002842977859263E-01 
    7.1987585070418258E-01 
    6.8899535277811297E-01 
    6.5661114706007795E-01 
    6.2153479116060406E-01 
    5.8110806462803999E-01 
    5.2967871160245084E-01 
    4.4972012256957977E-01 
    2.7069235138179487E-01 
    9.0640920304548345E-01 
    8.8926732532569963E-01 
    8.6773892838756084E-01 
    8.4372460824860551E-01 
    8.1819785714178650E-01 
    7.9191656857518866E-01 
    7.6518833919449758E-01 
    7.3812770361890911E-01 
    7.1055186982457330E-01 
    6.8200780517554493E-01 
    6.5176607505439987E-01 
    6.1849771763240158E-01 
    5.7984196720207637E-01 
    5.2955882580698377E-01 
    4.5088516853518934E-01 
    2.7348823592215399E-01 
    8.7202983310164195E-01 
    8.5754304285596905E-01 
    8.3902687476779536E-01 
    8.1819785714201521E-01 
    7.9594028101322722E-01 
    7.7287326306200632E-01 
    7.4925338399900876E-01 
    7.2522232659257790E-01 
    7.0049500476170234E-01 
    6.7469578689222343E-01 
    6.4694017711698981E-01 
    6.1601307222141488E-01 
    5.7912896449329498E-01 
    5.3099959016966292E-01 
    4.5394159480545648E-01 
    2.7900731569141746E-01 
    8.3733374918076597E-01 
    8.2526528164843449E-01 
    8.0960570569600410E-01 
    7.9191656857559400E-01 
    7.7287326306220050E-01 
    7.5308627493477420E-01 
    7.3264103643866718E-01 
    7.1171061217226184E-01 
    6.8992913980455117E-01 
    6.6698969975682854E-01 
    6.4193608812412062E-01 
    6.1351234068898619E-01 
    5.7890464995925339E-01 
    5.3282570141880969E-01 
    4.5789500873153177E-01 
    2.8629551978937767E-01 
    8.0279138991910026E-01 
    7.9285688953962741E-01 
    7.7985670186574518E-01 
    7.6518833919506302E-01 
    7.4925338399937114E-01 
    7.3264103643882261E-01 
    7.1537099214212996E-01 
    6.9760752234499279E-01 
    6.7893564820545671E-01 
    6.5897801893411645E-01 
    6.3681700271487118E-01 
    6.1114557580875939E-01 
    5.7922011281691621E-01 
    5.3547435540852228E-01 
    4.6313064988059027E-01 
    2.9573641730341954E-01 
    7.6859263272212752E-01 
    7.6056072237582273E-01 
    7.5002842977956674E-01 
    7.3812770361963520E-01 
    7.2522232659306740E-01 
    7.1171061217256582E-01 
    6.9760752234512857E-01 
    6.8299323665848044E-01 
    6.6751055337389376E-01 
    6.5069317727833920E-01 
    6.3164310770053800E-01 
    6.0895054156184902E-01 
    5.8008995763708626E-01 
    5.3902227758504295E-01 
    4.6987307978886800E-01 
    3.0754697543689546E-01 
    7.3446366342586100E-01 
    7.2811965461377415E-01 
    7.1987585070502003E-01 
    7.1055186982520624E-01 
    7.0049500476213644E-01 
    6.8992913980483739E-01 
    6.7893564820561458E-01 
    6.6751055337394416E-01 
    6.5533914728665887E-01 
    6.4187147970811742E-01 
    6.2622195704393802E-01 
    6.0699093270615889E-01 
    5.8148267373403761E-01 
    5.4417328889748806E-01 
    4.7905262649332558E-01 
    3.2286681521240213E-01 
    7.0011386474710802E-01 
    6.9524108682801844E-01 
    6.8899535277877699E-01 
    6.8200780517602533E-01 
    6.7469578689257648E-01 
    6.6698969975710931E-01 
    6.5897801893420749E-01 
    6.5069317727839482E-01 
    6.4187147970812719E-01 
    6.3192007238313319E-01 
    6.1994115939176608E-01 
    6.0454325497672179E-01 
    5.8304672735306828E-01 
    5.4999395762818859E-01 
    4.8999982072111886E-01 
    3.4116739820639447E-01 
    6.6465988479838833E-01 
    6.6107927591069815E-01 
    6.5661114706054535E-01 
    6.5176607505475315E-01 
    6.4694017711724783E-01 
    6.4193608812428848E-01 
    6.3681700271494956E-01 
    6.3164310770058651E-01 
    6.2622195704392902E-01 
    6.1994115939173366E-01 
    6.1194336475848221E-01 
    6.0086672841589106E-01 
    5.8410053603080592E-01 
    5.5624797307284801E-01 
    5.0276660058192058E-01 
    3.6302719371187320E-01 
    6.2686558112366098E-01 
    6.2443390835436785E-01 
    6.2153479116089871E-01 
    6.1849771763262884E-01 
    6.1601307222155188E-01 
    6.1351234068906457E-01 
    6.1114557580876971E-01 
    6.0895054156182071E-01 
    6.0699093270606730E-01 
    6.0454325497662453E-01 
    6.0086672841582167E-01 
    5.9466798602677207E-01 
    5.8344173912492647E-01 
    5.6201413935655709E-01 
    5.1679340653832317E-01 
    3.8854015032102412E-01 
    5.8395492709379138E-01 
    5.8255697720567601E-01 
    5.8110806462812581E-01 
    5.7984196720211389E-01 
    5.7912896449328577E-01 
    5.7890464995918556E-01 
    5.7922011281680075E-01 
    5.8008995763691718E-01 
    5.8148267373383145E-01 
    5.8304672735285679E-01 
    5.8410053603062839E-01 
    5.8344173912482145E-01 
    5.7879714995407527E-01 
    5.6540324028825317E-01 
    5.3089782116216377E-01 
    4.1852423941779254E-01 
    5.3065475580379506E-01 
    5.3006656748257075E-01 
    5.2967871160224866E-01 
    5.2955882580675706E-01 
    5.3099959016940423E-01 
    5.3282570141851782E-01 
    5.3547435540819466E-01 
    5.3902227758466226E-01 
    5.4417328889710059E-01 
    5.4999395762781644E-01 
    5.5624797307252505E-01 
    5.6201413935632138E-01 
    5.6540324028814337E-01 
    5.6212469182943758E-01 
    5.4140681445367300E-01 
    4.5141917300821360E-01 
    4.4910583955019712E-01 
    4.4917326829147808E-01 
    4.4972012256943328E-01 
    4.5088516853502636E-01 
    4.5394159480525570E-01 
    4.5789500873127886E-01 
    4.6313064988026181E-01 
    4.6987307978844756E-01 
    4.7905262649287250E-01 
    4.8999982072066661E-01 
    5.0276660058150147E-01 
    5.1679340653797967E-01 
    5.3089782116193773E-01 
    5.4140681445357619E-01 
    5.3932534392154940E-01 
    4.8197496573182469E-01 
    2.6856422515029499E-01 
    2.6913045629692278E-01 
    2.7069235138175418E-01 
    2.7348823592208826E-01 
    2.7900731569129528E-01 
    2.8629551978915985E-01 
    2.9573641730307626E-01 
    3.0754697543639109E-01 
    3.2286681521190108E-01 
    3.4116739820590924E-01 
    3.6302719371145103E-01 
    3.8854015032070827E-01 
    4.1852423941764072E-01 
    4.5141917300826467E-01 
    4.8197496573185139E-01 
    4.8122258273319818E-01 
