# vtk DataFile Version 2.0
Pressure Field Data 
ASCII 
DATASET UNSTRUCTURED_GRID 

POINTS 289 double 

    0.0000000000000000E+00     0.0000000000000000E+00     0.0000000000000000E+00 
    1.0000000000000000E+00     0.0000000000000000E+00     0.0000000000000000E+00 
    1.0000000000000000E+00     1.0000000000000000E+00     0.0000000000000000E+00 
    0.0000000000000000E+00     1.0000000000000000E+00     0.0000000000000000E+00 
    6.2499999999872928E-02     0.0000000000000000E+00     0.0000000000000000E+00 
    1.2499999999977310E-01     0.0000000000000000E+00     0.0000000000000000E+00 
    1.8749999999959341E-01     0.0000000000000000E+00     0.0000000000000000E+00 
    2.4999999999941089E-01     0.0000000000000000E+00     0.0000000000000000E+00 
    3.1249999999922851E-01     0.0000000000000000E+00     0.0000000000000000E+00 
    3.7499999999904610E-01     0.0000000000000000E+00     0.0000000000000000E+00 
    4.3749999999886358E-01     0.0000000000000000E+00     0.0000000000000000E+00 
    4.9999999999869210E-01     0.0000000000000000E+00     0.0000000000000000E+00 
    5.6249999999884603E-01     0.0000000000000000E+00     0.0000000000000000E+00 
    6.2499999999901090E-01     0.0000000000000000E+00     0.0000000000000000E+00 
    6.8749999999917577E-01     0.0000000000000000E+00     0.0000000000000000E+00 
    7.4999999999934064E-01     0.0000000000000000E+00     0.0000000000000000E+00 
    8.1249999999950551E-01     0.0000000000000000E+00     0.0000000000000000E+00 
    8.7499999999967026E-01     0.0000000000000000E+00     0.0000000000000000E+00 
    9.3749999999983513E-01     0.0000000000000000E+00     0.0000000000000000E+00 
    1.0000000000000000E+00     6.2499999999872928E-02     0.0000000000000000E+00 
    1.0000000000000000E+00     1.2499999999977310E-01     0.0000000000000000E+00 
    1.0000000000000000E+00     1.8749999999959341E-01     0.0000000000000000E+00 
    1.0000000000000000E+00     2.4999999999941089E-01     0.0000000000000000E+00 
    1.0000000000000000E+00     3.1249999999922851E-01     0.0000000000000000E+00 
    1.0000000000000000E+00     3.7499999999904610E-01     0.0000000000000000E+00 
    1.0000000000000000E+00     4.3749999999886358E-01     0.0000000000000000E+00 
    1.0000000000000000E+00     4.9999999999869210E-01     0.0000000000000000E+00 
    1.0000000000000000E+00     5.6249999999884603E-01     0.0000000000000000E+00 
    1.0000000000000000E+00     6.2499999999901090E-01     0.0000000000000000E+00 
    1.0000000000000000E+00     6.8749999999917577E-01     0.0000000000000000E+00 
    1.0000000000000000E+00     7.4999999999934064E-01     0.0000000000000000E+00 
    1.0000000000000000E+00     8.1249999999950551E-01     0.0000000000000000E+00 
    1.0000000000000000E+00     8.7499999999967026E-01     0.0000000000000000E+00 
    1.0000000000000000E+00     9.3749999999983513E-01     0.0000000000000000E+00 
    9.3749999999973976E-01     1.0000000000000000E+00     0.0000000000000000E+00 
    8.7499999999950118E-01     1.0000000000000000E+00     0.0000000000000000E+00 
    8.1249999999991318E-01     1.0000000000000000E+00     0.0000000000000000E+00 
    7.5000000000034706E-01     1.0000000000000000E+00     0.0000000000000000E+00 
    6.8750000000078049E-01     1.0000000000000000E+00     0.0000000000000000E+00 
    6.2500000000121403E-01     1.0000000000000000E+00     0.0000000000000000E+00 
    5.6250000000164757E-01     1.0000000000000000E+00     0.0000000000000000E+00 
    5.0000000000205946E-01     1.0000000000000000E+00     0.0000000000000000E+00 
    4.3750000000182099E-01     1.0000000000000000E+00     0.0000000000000000E+00 
    3.7500000000156092E-01     1.0000000000000000E+00     0.0000000000000000E+00 
    3.1250000000130068E-01     1.0000000000000000E+00     0.0000000000000000E+00 
    2.5000000000104050E-01     1.0000000000000000E+00     0.0000000000000000E+00 
    1.8750000000078040E-01     1.0000000000000000E+00     0.0000000000000000E+00 
    1.2500000000052031E-01     1.0000000000000000E+00     0.0000000000000000E+00 
    6.2500000000260125E-02     1.0000000000000000E+00     0.0000000000000000E+00 
    0.0000000000000000E+00     9.3749999999973976E-01     0.0000000000000000E+00 
    0.0000000000000000E+00     8.7499999999950118E-01     0.0000000000000000E+00 
    0.0000000000000000E+00     8.1249999999991318E-01     0.0000000000000000E+00 
    0.0000000000000000E+00     7.5000000000034706E-01     0.0000000000000000E+00 
    0.0000000000000000E+00     6.8750000000078049E-01     0.0000000000000000E+00 
    0.0000000000000000E+00     6.2500000000121403E-01     0.0000000000000000E+00 
    0.0000000000000000E+00     5.6250000000164757E-01     0.0000000000000000E+00 
    0.0000000000000000E+00     5.0000000000205946E-01     0.0000000000000000E+00 
    0.0000000000000000E+00     4.3750000000182099E-01     0.0000000000000000E+00 
    0.0000000000000000E+00     3.7500000000156092E-01     0.0000000000000000E+00 
    0.0000000000000000E+00     3.1250000000130068E-01     0.0000000000000000E+00 
    0.0000000000000000E+00     2.5000000000104050E-01     0.0000000000000000E+00 
    0.0000000000000000E+00     1.8750000000078040E-01     0.0000000000000000E+00 
    0.0000000000000000E+00     1.2500000000052031E-01     0.0000000000000000E+00 
    0.0000000000000000E+00     6.2500000000260125E-02     0.0000000000000000E+00 
    6.2499999999897131E-02     6.2500000000235922E-02     0.0000000000000000E+00 
    6.2499999999921327E-02     1.2500000000047351E-01     0.0000000000000000E+00 
    6.2499999999945530E-02     1.8750000000070621E-01     0.0000000000000000E+00 
    6.2499999999969733E-02     2.5000000000093858E-01     0.0000000000000000E+00 
    6.2499999999993928E-02     3.1250000000117117E-01     0.0000000000000000E+00 
    6.2500000000018124E-02     3.7500000000140382E-01     0.0000000000000000E+00 
    6.2500000000042327E-02     4.3750000000163619E-01     0.0000000000000000E+00 
    6.2500000000066530E-02     5.0000000000184897E-01     0.0000000000000000E+00 
    6.2500000000090733E-02     5.6250000000147260E-01     0.0000000000000000E+00 
    6.2500000000114922E-02     6.2500000000107636E-01     0.0000000000000000E+00 
    6.2500000000139125E-02     6.8750000000068034E-01     0.0000000000000000E+00 
    6.2500000000163328E-02     7.5000000000028411E-01     0.0000000000000000E+00 
    6.2500000000187531E-02     8.1249999999988787E-01     0.0000000000000000E+00 
    6.2500000000211720E-02     8.7499999999951172E-01     0.0000000000000000E+00 
    6.2500000000235922E-02     9.3749999999974565E-01     0.0000000000000000E+00 
    1.2499999999981980E-01     6.2500000000211733E-02     0.0000000000000000E+00 
    1.2499999999986650E-01     1.2500000000042691E-01     0.0000000000000000E+00 
    1.2499999999991319E-01     1.8750000000063199E-01     0.0000000000000000E+00 
    1.2499999999995989E-01     2.5000000000083678E-01     0.0000000000000000E+00 
    1.2500000000000661E-01     3.1250000000104172E-01     0.0000000000000000E+00 
    1.2500000000005329E-01     3.7500000000124661E-01     0.0000000000000000E+00 
    1.2500000000010000E-01     4.3750000000145117E-01     0.0000000000000000E+00 
    1.2500000000014669E-01     5.0000000000163858E-01     0.0000000000000000E+00 
    1.2500000000019340E-01     5.6250000000129741E-01     0.0000000000000000E+00 
    1.2500000000024011E-01     6.2500000000093847E-01     0.0000000000000000E+00 
    1.2500000000028680E-01     6.8750000000057998E-01     0.0000000000000000E+00 
    1.2500000000033351E-01     7.5000000000022127E-01     0.0000000000000000E+00 
    1.2500000000038020E-01     8.1249999999986211E-01     0.0000000000000000E+00 
    1.2500000000042691E-01     8.7499999999952238E-01     0.0000000000000000E+00 
    1.2500000000047359E-01     9.3749999999975164E-01     0.0000000000000000E+00 
    1.8749999999966760E-01     6.2500000000187531E-02     0.0000000000000000E+00 
    1.8749999999974179E-01     1.2500000000038020E-01     0.0000000000000000E+00 
    1.8749999999981601E-01     1.8750000000055780E-01     0.0000000000000000E+00 
    1.8749999999989009E-01     2.5000000000073502E-01     0.0000000000000000E+00 
    1.8749999999996431E-01     3.1250000000091221E-01     0.0000000000000000E+00 
    1.8750000000003850E-01     3.7500000000108941E-01     0.0000000000000000E+00 
    1.8750000000011269E-01     4.3750000000126649E-01     0.0000000000000000E+00 
    1.8750000000018691E-01     5.0000000000142808E-01     0.0000000000000000E+00 
    1.8750000000026110E-01     5.6250000000112244E-01     0.0000000000000000E+00 
    1.8750000000033529E-01     6.2500000000080080E-01     0.0000000000000000E+00 
    1.8750000000040951E-01     6.8750000000047962E-01     0.0000000000000000E+00 
    1.8750000000048361E-01     7.5000000000015843E-01     0.0000000000000000E+00 
    1.8750000000055780E-01     8.1249999999983680E-01     0.0000000000000000E+00 
    1.8750000000063199E-01     8.7499999999953304E-01     0.0000000000000000E+00 
    1.8750000000070621E-01     9.3749999999975764E-01     0.0000000000000000E+00 
    2.4999999999951281E-01     6.2500000000163314E-02     0.0000000000000000E+00 
    2.4999999999961461E-01     1.2500000000033351E-01     0.0000000000000000E+00 
    2.4999999999971650E-01     1.8750000000048361E-01     0.0000000000000000E+00 
    2.4999999999981831E-01     2.5000000000063310E-01     0.0000000000000000E+00 
    2.4999999999992020E-01     3.1250000000078260E-01     0.0000000000000000E+00 
    2.5000000000002198E-01     3.7500000000093209E-01     0.0000000000000000E+00 
    2.5000000000012390E-01     4.3750000000108180E-01     0.0000000000000000E+00 
    2.5000000000022571E-01     5.0000000000121769E-01     0.0000000000000000E+00 
    2.5000000000032763E-01     5.6250000000094724E-01     0.0000000000000000E+00 
    2.5000000000042938E-01     6.2500000000066314E-01     0.0000000000000000E+00 
    2.5000000000053119E-01     6.8750000000037925E-01     0.0000000000000000E+00 
[...]
CELL_DATA 256 
SCALARS Pressure double 1 
LOOKUP_TABLE default 

    1.7086596649079835E+00 
    1.6037535938418870E+00 
    1.5361653451239212E+00 
    1.4860219240166035E+00 
    1.4452370696652044E+00 
    1.4102086173657480E+00 
    1.3791985963920912E+00 
    1.3513444491551800E+00 
    1.3262468505749370E+00 
    1.3037762966591588E+00 
    1.2839682015305904E+00 
    1.2669541826852000E+00 
    1.2529041557992635E+00 
    1.2419699419028827E+00 
    1.2341889901147169E+00 
    1.2296146141394801E+00 
    1.6037535938424410E+00 
    1.5603890162072853E+00 
    1.5145060861551232E+00 
    1.4731522515670594E+00 
    1.4364295944638472E+00 
    1.4034783402827784E+00 
    1.3735932942520674E+00 
    1.3463509142236241E+00 
    1.3215623144248974E+00 
    1.2992106427221177E+00 
    1.2793996191646491E+00 
    1.2623089443396267E+00 
    1.2481471523995138E+00 
    1.2370967951337626E+00 
    1.2292189816370747E+00 
    1.2245828750056982E+00 
    1.5361653451246911E+00 
    1.5145060861554909E+00 
    1.4842420891252797E+00 
    1.4521497008302997E+00 
    1.4207798680689336E+00 
    1.3909449171161596E+00 
    1.3628718007722584E+00 
    1.3366448977649772E+00 
    1.3123622959861549E+00 
    1.2901798974615986E+00 
    1.2703161405527099E+00 
    1.2530367203875050E+00 
    1.2386226279741606E+00 
    1.2273163765880506E+00 
    1.2192272612078674E+00 
    1.2144572476754953E+00 
    1.4860219240175188E+00 
    1.4731522515676712E+00 
    1.4521497008305861E+00 
    1.4271565819393135E+00 
    1.4006599696708195E+00 
    1.3739935949520259E+00 
    1.3478801346175626E+00 
    1.3227661477120840E+00 
    1.2989990737964441E+00 
    1.2769101571558525E+00 
    1.2568502196167071E+00 
    1.2391947613240966E+00 
    1.2243229192767151E+00 
    1.2125658927718042E+00 
    1.2041106935592452E+00 
    1.1991109125320782E+00 
    1.4452370696662338E+00 
    1.4364295944646266E+00 
    1.4207798680694317E+00 
    1.4006599696710498E+00 
    1.3779504102004048E+00 
    1.3539517508193344E+00 
    1.3295446765621561E+00 
    1.3053643231789758E+00 
    1.2819272663830288E+00 
    1.2597096076105734E+00 
    1.2391906940163870E+00 
    1.2208677466231177E+00 
    1.2052393204801513E+00 
    1.1927570560233669E+00 
    1.1837187931292803E+00 
    1.1783516830953311E+00 
    1.4102086173668735E+00 
    1.4034783402836839E+00 
    1.3909449171168182E+00 
    1.3739935949524409E+00 
    1.3539517508195289E+00 
    1.3319106238610250E+00 
    1.3087294591085421E+00 
    1.2851048485059993E+00 
    1.2616457955653044E+00 
    1.2389326878522631E+00 
    1.2175587598269020E+00 
    1.1981477014172499E+00 
    1.1813410837564513E+00 
    1.1677477681079014E+00 
    1.1578162571236204E+00 
    1.1518813629712938E+00 
    1.3791985963933004E+00 
    1.3735932942530724E+00 
    1.3628718007730423E+00 
    1.3478801346181262E+00 
    1.3295446765625147E+00 
    1.3087294591087140E+00 
    1.2861973145336205E+00 
    1.2626293416637882E+00 
    1.2386675345900386E+00 
    1.2149576478886308E+00 
    1.1921884294897682E+00 
    1.1711127283062159E+00 
    1.1525419639062873E+00 
    1.1372880173006445E+00 
    1.1260131588132332E+00 
    1.1192195878155868E+00 
    1.3513444491564481E+00 
    1.3463509142246997E+00 
    1.3366448977658525E+00 
    1.3227661477127637E+00 
    1.3053643231794720E+00 
    1.2851048485063246E+00 
    1.2626293416639502E+00 
    1.2385592543811119E+00 
    1.2135243871758794E+00 
    1.1881992694526518E+00 
    1.1633457468111803E+00 
    1.1398458713313953E+00 
    1.1187091252982797E+00 
    1.1010144213850241E+00 
    1.0877387766843469E+00 
    1.0796518758180877E+00 
    1.3262468505760294E+00 
    1.3215623144258388E+00 
    1.3123622959869474E+00 
    1.2989990737970973E+00 
    1.2819272663835526E+00 
    1.2616457955657077E+00 
    1.2386675345903229E+00 
    1.2135243871760379E+00 
    1.1867944045495236E+00 
    1.1591407526097370E+00 
    1.1313655814829557E+00 
    1.1044688902592299E+00 
    1.0796843609759614E+00 
    1.0584454639538270E+00 
    1.0421968886680546E+00 
    1.0321474024145356E+00 
    1.3037762966599400E+00 
    1.2992106427228021E+00 
    1.2901798974621976E+00 
    1.2769101571563812E+00 
    1.2597096076110443E+00 
    1.2389326878526863E+00 
    1.2149576478890090E+00 
    1.1881992694529768E+00 
    1.1591407526099442E+00 
    1.1283803982131815E+00 
    1.0967050559706510E+00 
    1.0651923752619610E+00 
    1.0353077214576192E+00 
    1.0089392591889090E+00 
    9.8822956608441492E-01 
    9.7514368248321948E-01 
    1.2839682015310991E+00 
    1.2793996191651067E+00 
    1.2703161405531360E+00 
    1.2568502196171236E+00 
    1.2391906940168134E+00 
    1.2175587598273534E+00 
    1.1921884294902552E+00 
    1.1633457468117008E+00 
    1.1313655814834158E+00 
    1.0967050559709166E+00 
    1.0600389656604652E+00 
    1.0224227279796958E+00 
    9.8549495661394260E-01 
    9.5166874397897094E-01 
    9.2411754741346130E-01 
    9.0616880593642724E-01 
    1.2669541826854831E+00 
    1.2623089443398963E+00 
    1.2530367203877883E+00 
    1.2391947613244256E+00 
    1.2208677466235198E+00 
    1.1981477014177502E+00 
    1.1711127283068365E+00 
    1.1398458713321495E+00 
    1.1044688902599995E+00 
    1.0651923752625587E+00 
    1.0224227279800409E+00 
    9.7698643395714091E-01 
    9.3047907983251932E-01 
    8.8575641634233104E-01 
    8.4739046367970838E-01 
    8.2120489991390289E-01 
    1.2529041557993690E+00 
    1.2481471523996364E+00 
    1.2386226279743358E+00 
    1.2243229192769853E+00 
    1.2052393204805543E+00 
    1.1813410837570257E+00 
    1.1525419639070724E+00 
    1.1187091252993109E+00 
    1.0796843609770987E+00 
    1.0353077214586193E+00 
    9.8549495661471676E-01 
    9.3047907983296740E-01 
    8.7128844633447600E-01 
    8.1066977919406635E-01 
    7.5460351711527718E-01 
    7.1331298500420226E-01 
    1.2419699419028654E+00 
    1.2370967951337859E+00 
    1.2273163765881583E+00 
    1.2125658927720495E+00 
    1.1927570560238010E+00 
    1.1677477681085784E+00 
    1.1372880173016242E+00 
    1.1010144213863677E+00 
    1.0584454639553789E+00 
    1.0089392591903661E+00 
    9.5166874398024282E-01 
    8.8575641634331725E-01 
    8.1066977919463390E-01 
    7.2738453441456619E-01 
    6.4146866277220793E-01 
    5.6920340396878921E-01 
    1.2341889901146832E+00 
    1.2292189816370924E+00 
    1.2192272612079886E+00 
    1.2041106935595356E+00 
    1.1837187931298037E+00 
    1.1578162571244468E+00 
    1.1260131588144435E+00 
    1.0877387766860300E+00 
    1.0421968886700359E+00 
    9.8822956608632406E-01 
    9.2411754741519936E-01 
    8.4739046368116211E-01 
    7.5460351711628570E-01 
    6.4146866277255488E-01 
    5.0538008928948908E-01 
    3.5939955365095955E-01 
    1.2296146141394602E+00 
    1.2245828750057361E+00 
    1.2144572476756523E+00 
    1.1991109125324317E+00 
    1.1783516830959577E+00 
    1.1518813629722786E+00 
    1.1192195878170312E+00 
    1.0796518758201048E+00 
    1.0321474024169315E+00 
    9.7514368248555583E-01 
    9.0616880593859317E-01 
    8.2120489991576318E-01 
    7.1331298500553875E-01 
    5.6920340396920177E-01 
    3.5939955365047860E-01 
    0.0000000000000000E+00 

SCALARS Saturarion double 1 
LOOKUP_TABLE default 

    1.0000000000000000E+00 
    9.6645862061905441E-01 
    9.3545345446090322E-01 
    9.0125784447594781E-01 
    8.6553283064951081E-01 
    8.2969105844056790E-01 
    7.9417431708530961E-01 
    7.5914182017310272E-01 
    7.2427709086534031E-01 
    6.8925721657375949E-01 
    6.5314124855992206E-01 
    6.1460632293692052E-01 
    5.7062947260376606E-01 
    5.1529696899758326E-01 
    4.2852708843022125E-01 
    2.3430984087262646E-01 
    9.6645862061921606E-01 
    9.4292764685621799E-01 
    9.1462189371167901E-01 
    8.8338547637116893E-01 
    8.5051160681456828E-01 
    8.1723591301940457E-01 
    7.8396181164486001E-01 
    7.5091244786801059E-01 
    7.1779441561003288E-01 
    6.8428675471137312E-01 
    6.4949106415227387E-01 
    6.1212429434883708E-01 
    5.6919373753619174E-01 
    5.1466810970492538E-01 
    4.2852697760575104E-01 
    2.3465595402620096E-01 
    9.3545345446135331E-01 
    9.1462189371190417E-01 
    8.8912501922769205E-01 
    8.6103073697554522E-01 
    8.3137492035733296E-01 
    8.0111661381707155E-01 
    7.7062592924638229E-01 
    7.4013983934317362E-01 
    7.0938361414544227E-01 
    6.7792495334289105E-01 
    6.4494282998597097E-01 
    6.0916990504918145E-01 
    5.6771128529501236E-01 
    5.1424749776316026E-01 
    4.2902770960534231E-01 
    2.3609953416429449E-01 
    9.0125784447668311E-01 
    8.8338547637167131E-01 
    8.6103073697577392E-01 
    8.3620883945732183E-01 
    8.0992831696292311E-01 
    7.8296558525593674E-01 
    7.5562093718559087E-01 
    7.2799698185104611E-01 
    6.9989058500994461E-01 
    6.7082172485596592E-01 
    6.4002266796706409E-01 
    6.0608216729343400E-01 
    5.6642497076735032E-01 
    5.1410338049689419E-01 
    4.3017959456363142E-01 
    2.3892978333656348E-01 
    8.6553283065044329E-01 
    8.5051160681528859E-01 
    8.3137492035779614E-01 
    8.0992831696314593E-01 
    7.8708476316420550E-01 
    7.6347525691339246E-01 
    7.3935190473170020E-01 
    7.1485083609835276E-01 
    6.8966673727554684E-01 
    6.6340519522082830E-01 
    6.3514022237537227E-01 
    6.0358500216536337E-01 
    5.6572257191975606E-01 
    5.1563184079704083E-01 
    4.3339038320421858E-01 
    2.4505391479366320E-01 
    8.2969105844167401E-01 
    8.1723591302031962E-01 
    8.0111661381773613E-01 
    7.8296558525635052E-01 
    7.6347525691357010E-01 
    7.4326839980171211E-01 
    7.2242083562883241E-01 
    7.0110504399420370E-01 
    6.7893524682159134E-01 
    6.5559223325827354E-01 
    6.3007934646486896E-01 
    6.0107215113843759E-01 
    5.6553301036484527E-01 
    5.1755896546595836E-01 
    4.3756225212242283E-01 
    2.5325235622626763E-01 
    7.9417431708666619E-01 
    7.8396181164599987E-01 
    7.7062592924721840E-01 
    7.5562093718617473E-01 
    7.3935190473206291E-01 
    7.2242083562899040E-01 
    7.0483728212572749E-01 
    6.8676659378925964E-01 
    6.6777450646718672E-01 
    6.4747094746316280E-01 
    6.2490312146410487E-01 
    5.9869874495723763E-01 
    5.6590696427942200E-01 
    5.2035110996882572E-01 
    4.4311441225041392E-01 
    2.6388196689097609E-01 
    7.5914182017463649E-01 
    7.5091244786928135E-01 
    7.4013983934417227E-01 
    7.2799698185179662E-01 
    7.1485083609887579E-01 
    7.0110504399450924E-01 
    6.8676659378939731E-01 
    6.7191475135354528E-01 
    6.5617736131452087E-01 
    6.3907335675630628E-01 
    6.1967340274064808E-01 
    5.9650332678167339E-01 
    5.6685823500918697E-01 
    5.2408685040606962E-01 
    4.5028685195821661E-01 
    2.7711526062367170E-01 
    7.2427709086660985E-01 
    7.1779441561108415E-01 
    7.0938361414628925E-01 
    6.9989058501057899E-01 
    6.8966673727599437E-01 
    6.7893524682187767E-01 
    6.6777450646733516E-01 
    6.5617736131456605E-01 
    6.4381740679759536E-01 
    6.3012747566745142E-01 
    6.1419362398815258E-01 
    5.9455866871341001E-01 
    5.6835517711309125E-01 
    5.2952517767760110E-01 
    4.6009645743305350E-01 
    2.9417179711372587E-01 
    6.8925721657470806E-01 
    6.8428675471216438E-01 
    6.7792495334354264E-01 
    6.7082172485644986E-01 
    6.6340519522118402E-01 
    6.5559223325848315E-01 
    6.4747094746328493E-01 
    6.3907335675636934E-01 
    6.3012747566746841E-01 
    6.2002156397743191E-01 
    6.0783083881522215E-01 
    5.9211199861402397E-01 
    5.7003418029595498E-01 
    5.3566076160227238E-01 
    4.7179228238507886E-01 
    3.1433158498946923E-01 
    6.5314124856062372E-01 
    6.4949106415287639E-01 
    6.4494282998644981E-01 
    6.4002266796742791E-01 
    6.3514022237563539E-01 
    6.3007934646504582E-01 
    6.2490312146421612E-01 
    6.1967340274069227E-01 
    6.1419362398813648E-01 
    6.0783083881518907E-01 
    5.9970316660165723E-01 
    5.8840275876816550E-01 
    5.7119015524427763E-01 
    5.4225120266716809E-01 
    4.8542441832365490E-01 
    3.3814337630901875E-01 
    6.1460632293738837E-01 
    6.1212429434923055E-01 
    6.0916990504948421E-01 
    6.0608216729365583E-01 
    6.0358500216550726E-01 
    6.0107215113851131E-01 
    5.9869874495725184E-01 
    5.9650332678163287E-01 
    5.9455866871331930E-01 
    5.9211199861391828E-01 
    5.8840275876808745E-01 
    5.8209702630754234E-01 
    5.7058110959107500E-01 
    5.4833604739372632E-01 
    5.0038240056699124E-01 
    3.6562060079161102E-01 
    5.7062947260394181E-01 
    5.6919373753632296E-01 
    5.6771128529510562E-01 
    5.6642497076738418E-01 
    5.6572257191973818E-01 
    5.6553301036477543E-01 
    5.6590696427929454E-01 
    5.6685823500901300E-01 
    5.6835517711287731E-01 
    5.7003418029573472E-01 
    5.7119015524408812E-01 
    5.7058110959096608E-01 
    5.6584539573097281E-01 
    5.5195087050844538E-01 
    5.1542258366229443E-01 
    3.9760782502544578E-01 
    5.1529696899736843E-01 
    5.1466810970470978E-01 
    5.1424749776293310E-01 
    5.1410338049664950E-01 
    5.1563184079676716E-01 
    5.1755896546565361E-01 
    5.2035110996847811E-01 
    5.2408685040566982E-01 
    5.2952517767719021E-01 
    5.3566076160187970E-01 
    5.4225120266682847E-01 
    5.4833604739348696E-01 
    5.5195087050833025E-01 
    5.4859001437943411E-01 
    5.2665784329436116E-01 
    4.3239761481089323E-01 
    4.2852708843007736E-01 
    4.2852697760559771E-01 
    4.2902770960518694E-01 
    4.3017959456345456E-01 
    4.3339038320400752E-01 
    4.3756225212215710E-01 
    4.4311441225006987E-01 
    4.5028685195776552E-01 
    4.6009645743257177E-01 
    4.7179228238459420E-01 
    4.8542441832321448E-01 
    5.0038240056663219E-01 
    5.1542258366205929E-01 
    5.2665784329426080E-01 
    5.2449831413781733E-01 
    4.6447799542814233E-01 
    2.3430984087259088E-01 
    2.3465595402615932E-01 
    2.3609953416425097E-01 
    2.3892978333649301E-01 
    2.4505391479351882E-01 
    2.5325235622601139E-01 
    2.6388196689057841E-01 
    2.7711526062309583E-01 
    2.9417179711315034E-01 
    3.1433158498892172E-01 
    3.3814337630854924E-01 
    3.6562060079126285E-01 
    3.9760782502527930E-01 
    4.3239761481094235E-01 
    4.6447799542816764E-01 
    4.6370763440088747E-01 
