# vtk DataFile Version 2.0
Pressure Field Data 
ASCII 
DATASET UNSTRUCTURED_GRID 

POINTS 289 double 

    0.0000000000000000E+00     0.0000000000000000E+00     0.0000000000000000E+00 
    1.0000000000000000E+00     0.0000000000000000E+00     0.0000000000000000E+00 
    1.0000000000000000E+00     1.0000000000000000E+00     0.0000000000000000E+00 
    0.0000000000000000E+00     1.0000000000000000E+00     0.0000000000000000E+00 
    6.2499999999872928E-02     0.0000000000000000E+00     0.0000000000000000E+00 
    1.2499999999977310E-01     0.0000000000000000E+00     0.0000000000000000E+00 
    1.8749999999959341E-01     0.0000000000000000E+00     0.0000000000000000E+00 
    2.4999999999941089E-01     0.0000000000000000E+00     0.0000000000000000E+00 
    3.1249999999922851E-01     0.0000000000000000E+00     0.0000000000000000E+00 
    3.7499999999904610E-01     0.0000000000000000E+00     0.0000000000000000E+00 
    4.3749999999886358E-01     0.0000000000000000E+00     0.0000000000000000E+00 
    4.9999999999869210E-01     0.0000000000000000E+00     0.0000000000000000E+00 
    5.6249999999884603E-01     0.0000000000000000E+00     0.0000000000000000E+00 
    6.2499999999901090E-01     0.0000000000000000E+00     0.0000000000000000E+00 
    6.8749999999917577E-01     0.0000000000000000E+00     0.0000000000000000E+00 
    7.4999999999934064E-01     0.0000000000000000E+00     0.0000000000000000E+00 
    8.1249999999950551E-01     0.0000000000000000E+00     0.0000000000000000E+00 
    8.7499999999967026E-01     0.0000000000000000E+00     0.0000000000000000E+00 
    9.3749999999983513E-01     0.0000000000000000E+00     0.0000000000000000E+00 
    1.0000000000000000E+00     6.2499999999872928E-02     0.0000000000000000E+00 
    1.0000000000000000E+00     1.2499999999977310E-01     0.0000000000000000E+00 
    1.0000000000000000E+00     1.8749999999959341E-01     0.0000000000000000E+00 
    1.0000000000000000E+00     2.4999999999941089E-01     0.0000000000000000E+00 
    1.0000000000000000E+00     3.1249999999922851E-01     0.0000000000000000E+00 
    1.0000000000000000E+00     3.7499999999904610E-01     0.0000000000000000E+00 
    1.0000000000000000E+00     4.3749999999886358E-01     0.0000000000000000E+00 
    1.0000000000000000E+00     4.9999999999869210E-01     0.0000000000000000E+00 
    1.0000000000000000E+00     5.6249999999884603E-01     0.0000000000000000E+00 
    1.0000000000000000E+00     6.2499999999901090E-01     0.0000000000000000E+00 
    1.0000000000000000E+00     6.8749999999917577E-01     0.0000000000000000E+00 
    1.0000000000000000E+00     7.4999999999934064E-01     0.0000000000000000E+00 
    1.0000000000000000E+00     8.1249999999950551E-01     0.0000000000000000E+00 
    1.0000000000000000E+00     8.7499999999967026E-01     0.0000000000000000E+00 
    1.0000000000000000E+00     9.3749999999983513E-01     0.0000000000000000E+00 
    9.3749999999973976E-01     1.0000000000000000E+00     0.0000000000000000E+00 
    8.7499999999950118E-01     1.0000000000000000E+00     0.0000000000000000E+00 
    8.1249999999991318E-01     1.0000000000000000E+00     0.0000000000000000E+00 
    7.5000000000034706E-01     1.0000000000000000E+00     0.0000000000000000E+00 
    6.8750000000078049E-01     1.0000000000000000E+00     0.0000000000000000E+00 
    6.2500000000121403E-01     1.0000000000000000E+00     0.0000000000000000E+00 
    5.6250000000164757E-01     1.0000000000000000E+00     0.0000000000000000E+00 
    5.0000000000205946E-01     1.0000000000000000E+00     0.0000000000000000E+00 
    4.3750000000182099E-01     1.0000000000000000E+00     0.0000000000000000E+00 
    3.7500000000156092E-01     1.0000000000000000E+00     0.0000000000000000E+00 
    3.1250000000130068E-01     1.0000000000000000E+00     0.0000000000000000E+00 
    2.5000000000104050E-01     1.0000000000000000E+00     0.0000000000000000E+00 
    1.8750000000078040E-01     1.0000000000000000E+00     0.0000000000000000E+00 
    1.2500000000052031E-01     1.0000000000000000E+00     0.0000000000000000E+00 
    6.2500000000260125E-02     1.0000000000000000E+00     0.0000000000000000E+00 
    0.0000000000000000E+00     9.3749999999973976E-01     0.0000000000000000E+00 
    0.0000000000000000E+00     8.7499999999950118E-01     0.0000000000000000E+00 
    0.0000000000000000E+00     8.1249999999991318E-01     0.0000000000000000E+00 
    0.0000000000000000E+00     7.5000000000034706E-01     0.0000000000000000E+00 
    0.0000000000000000E+00     6.8750000000078049E-01     0.0000000000000000E+00 
    0.0000000000000000E+00     6.2500000000121403E-01     0.0000000000000000E+00 
    0.0000000000000000E+00     5.6250000000164757E-01     0.0000000000000000E+00 
    0.0000000000000000E+00     5.0000000000205946E-01     0.0000000000000000E+00 
    0.0000000000000000E+00     4.3750000000182099E-01     0.0000000000000000E+00 
    0.0000000000000000E+00     3.7500000000156092E-01     0.0000000000000000E+00 
    0.0000000000000000E+00     3.1250000000130068E-01     0.0000000000000000E+00 
    0.0000000000000000E+00     2.5000000000104050E-01     0.0000000000000000E+00 
    0.0000000000000000E+00     1.8750000000078040E-01     0.0000000000000000E+00 
    0.0000000000000000E+00     1.2500000000052031E-01     0.0000000000000000E+00 
    0.0000000000000000E+00     6.2500000000260125E-02     0.0000000000000000E+00 
    6.2499999999897131E-02     6.2500000000235922E-02     0.0000000000000000E+00 
    6.2499999999921327E-02     1.2500000000047351E-01     0.0000000000000000E+00 
    6.2499999999945530E-02     1.8750000000070621E-01     0.0000000000000000E+00 
    6.2499999999969733E-02     2.5000000000093858E-01     0.0000000000000000E+00 
    6.2499999999993928E-02     3.1250000000117117E-01     0.0000000000000000E+00 
    6.2500000000018124E-02     3.7500000000140382E-01     0.0000000000000000E+00 
    6.2500000000042327E-02     4.3750000000163619E-01     0.0000000000000000E+00 
    6.2500000000066530E-02     5.0000000000184897E-01     0.0000000000000000E+00 
    6.2500000000090733E-02     5.6250000000147260E-01     0.0000000000000000E+00 
    6.2500000000114922E-02     6.2500000000107636E-01     0.0000000000000000E+00 
    6.2500000000139125E-02     6.8750000000068034E-01     0.0000000000000000E+00 
    6.2500000000163328E-02     7.5000000000028411E-01     0.0000000000000000E+00 
    6.2500000000187531E-02     8.1249999999988787E-01     0.0000000000000000E+00 
    6.2500000000211720E-02     8.7499999999951172E-01     0.0000000000000000E+00 
    6.2500000000235922E-02     9.3749999999974565E-01     0.0000000000000000E+00 
    1.2499999999981980E-01     6.2500000000211733E-02     0.0000000000000000E+00 
    1.2499999999986650E-01     1.2500000000042691E-01     0.0000000000000000E+00 
    1.2499999999991319E-01     1.8750000000063199E-01     0.0000000000000000E+00 
    1.2499999999995989E-01     2.5000000000083678E-01     0.0000000000000000E+00 
    1.2500000000000661E-01     3.1250000000104172E-01     0.0000000000000000E+00 
    1.2500000000005329E-01     3.7500000000124661E-01     0.0000000000000000E+00 
    1.2500000000010000E-01     4.3750000000145117E-01     0.0000000000000000E+00 
    1.2500000000014669E-01     5.0000000000163858E-01     0.0000000000000000E+00 
    1.2500000000019340E-01     5.6250000000129741E-01     0.0000000000000000E+00 
    1.2500000000024011E-01     6.2500000000093847E-01     0.0000000000000000E+00 
    1.2500000000028680E-01     6.8750000000057998E-01     0.0000000000000000E+00 
    1.2500000000033351E-01     7.5000000000022127E-01     0.0000000000000000E+00 
    1.2500000000038020E-01     8.1249999999986211E-01     0.0000000000000000E+00 
    1.2500000000042691E-01     8.7499999999952238E-01     0.0000000000000000E+00 
    1.2500000000047359E-01     9.3749999999975164E-01     0.0000000000000000E+00 
    1.8749999999966760E-01     6.2500000000187531E-02     0.0000000000000000E+00 
    1.8749999999974179E-01     1.2500000000038020E-01     0.0000000000000000E+00 
    1.8749999999981601E-01     1.8750000000055780E-01     0.0000000000000000E+00 
    1.8749999999989009E-01     2.5000000000073502E-01     0.0000000000000000E+00 
    1.8749999999996431E-01     3.1250000000091221E-01     0.0000000000000000E+00 
    1.8750000000003850E-01     3.7500000000108941E-01     0.0000000000000000E+00 
    1.8750000000011269E-01     4.3750000000126649E-01     0.0000000000000000E+00 
    1.8750000000018691E-01     5.0000000000142808E-01     0.0000000000000000E+00 
    1.8750000000026110E-01     5.6250000000112244E-01     0.0000000000000000E+00 
    1.8750000000033529E-01     6.2500000000080080E-01     0.0000000000000000E+00 
    1.8750000000040951E-01     6.8750000000047962E-01     0.0000000000000000E+00 
    1.8750000000048361E-01     7.5000000000015843E-01     0.0000000000000000E+00 
    1.8750000000055780E-01     8.1249999999983680E-01     0.0000000000000000E+00 
    1.8750000000063199E-01     8.7499999999953304E-01     0.0000000000000000E+00 
    1.8750000000070621E-01     9.3749999999975764E-01     0.0000000000000000E+00 
    2.4999999999951281E-01     6.2500000000163314E-02     0.0000000000000000E+00 
    2.4999999999961461E-01     1.2500000000033351E-01     0.0000000000000000E+00 
    2.4999999999971650E-01     1.8750000000048361E-01     0.0000000000000000E+00 
    2.4999999999981831E-01     2.5000000000063310E-01     0.0000000000000000E+00 
    2.4999999999992020E-01     3.1250000000078260E-01     0.0000000000000000E+00 
    2.5000000000002198E-01     3.7500000000093209E-01     0.0000000000000000E+00 
    2.5000000000012390E-01     4.3750000000108180E-01     0.0000000000000000E+00 
    2.5000000000022571E-01     5.0000000000121769E-01     0.0000000000000000E+00 
    2.5000000000032763E-01     5.6250000000094724E-01     0.0000000000000000E+00 
    2.5000000000042938E-01     6.2500000000066314E-01     0.0000000000000000E+00 
    2.5000000000053119E-01     6.8750000000037925E-01     0.0000000000000000E+00 
[...]
CELL_DATA 256 
SCALARS Pressure double 1 
LOOKUP_TABLE default 

    1.6196945089746340E+00 
    1.5152508504548186E+00 
    1.4483344070793533E+00 
    1.3989576427254891E+00 
    1.3590040771291581E+00 
    1.3248480996439009E+00 
    1.2947298505824365E+00 
    1.2677656502456283E+00 
    1.2435347710552671E+00 
    1.2218856835869969E+00 
    1.2028316595544166E+00 
    1.1864840901902869E+00 
    1.1729996815392578E+00 
    1.1625333736236947E+00 
    1.1551558395424142E+00 
    1.1508388615193650E+00 
    1.5152508504553683E+00 
    1.4722453314578499E+00 
    1.4269540718143896E+00 
    1.3863228167865596E+00 
    1.3504073084952277E+00 
    1.3183163012177914E+00 
    1.2893188404524765E+00 
    1.2629680758138979E+00 
    1.2390522026875290E+00 
    1.2175311831964732E+00 
    1.1984854920507249E+00 
    1.1820733004817470E+00 
    1.1684883616953430E+00 
    1.1579150179678253E+00 
    1.1504470117890697E+00 
    1.1460717013440158E+00 
    1.4483344070801132E+00 
    1.4269540718147518E+00 
    1.3971967525787203E+00 
    1.3657677110501547E+00 
    1.3351680947702123E+00 
    1.3061738839726966E+00 
    1.2789825134906254E+00 
    1.2536521689413602E+00 
    1.2302556473496629E+00 
    1.2089235766230590E+00 
    1.1898489774444834E+00 
    1.1732734656277577E+00 
    1.1594601494692029E+00 
    1.1486505928169295E+00 
    1.1409851515667024E+00 
    1.1364832684121233E+00 
    1.3989576427263886E+00 
    1.3863228167871602E+00 
    1.3657677110504358E+00 
    1.3413877761201982E+00 
    1.3156275086603171E+00 
    1.2897850376813125E+00 
    1.2645522791423369E+00 
    1.2403476608301094E+00 
    1.2174911368812948E+00 
    1.1962861733082253E+00 
    1.1770551568795409E+00 
    1.1601457849206049E+00 
    1.1459149159556801E+00 
    1.1346883258354932E+00 
    1.1266805488080147E+00 
    1.1219613429903381E+00 
    1.3590040771301666E+00 
    1.3504073084959909E+00 
    1.3351680947707001E+00 
    1.3156275086605429E+00 
    1.2936322663232429E+00 
    1.2704509845838874E+00 
    1.2469345665655247E+00 
    1.2236894299557430E+00 
    1.2012031008657602E+00 
    1.1799213911282491E+00 
    1.1602916589662955E+00 
    1.1427785638512844E+00 
    1.1278526259387023E+00 
    1.1159533183211341E+00 
    1.1074004390595673E+00 
    1.1023353047146378E+00 
    1.3248480996450018E+00 
    1.3183163012186763E+00 
    1.3061738839733390E+00 
    1.2897850376817164E+00 
    1.2704509845840757E+00 
    1.2492356667532523E+00 
    1.2269708701645070E+00 
    1.2043250505414527E+00 
    1.1818773281341435E+00 
    1.1601755948415402E+00 
    1.1397772939026229E+00 
    1.1212679473054434E+00 
    1.1052534081673304E+00 
    1.0923210351613264E+00 
    1.0829339625964152E+00 
    1.0773372953725482E+00 
    1.2947298505836156E+00 
    1.2893188404534566E+00 
    1.2789825134913881E+00 
    1.2645522791428836E+00 
    1.2469345665658711E+00 
    1.2269708701646727E+00 
    1.2053997081566239E+00 
    1.1828756775643825E+00 
    1.1600109473872531E+00 
    1.1374171544843232E+00 
    1.1157434894776925E+00 
    1.0956982331610965E+00 
    1.0780472272190702E+00 
    1.0635685708203075E+00 
    1.0529283102423550E+00 
    1.0465308384191259E+00 
    1.2677656502468617E+00 
    1.2629680758149449E+00 
    1.2536521689422104E+00 
    1.2403476608307673E+00 
    1.2236894299562211E+00 
    1.2043250505417649E+00 
    1.1828756775645377E+00 
    1.1599389711164727E+00 
    1.1361161625210550E+00 
    1.1120470626199386E+00 
    1.0884507758909863E+00 
    1.0661578493153181E+00 
    1.0461203715628216E+00 
    1.0293671688802017E+00 
    1.0168620142717584E+00 
    1.0092621840972822E+00 
    1.2435347710563296E+00 
    1.2390522026884447E+00 
    1.2302556473504316E+00 
    1.2174911368819261E+00 
    1.2012031008662643E+00 
    1.1818773281345292E+00 
    1.1600109473875242E+00 
    1.1361161625212053E+00 
    1.1107453846147082E+00 
    1.0845281965761639E+00 
    1.0582223602913097E+00 
    1.0327698246416102E+00 
    1.0093334459459877E+00 
    9.8927480939037049E-01 
    9.7399982046837075E-01 
    9.6458104000399969E-01 
    1.2218856835877576E+00 
    1.2175311831971403E+00 
    1.2089235766236415E+00 
    1.1962861733087373E+00 
    1.1799213911287028E+00 
    1.1601755948419452E+00 
    1.1374171544846827E+00 
    1.1120470626202452E+00 
    1.0845281965763589E+00 
    1.0554293456652886E+00 
    1.0254945086582303E+00 
    9.9573916514251648E-01 
    9.6754400348170211E-01 
    9.4269760824323490E-01 
    9.2326609867317022E-01 
    9.1103884655907152E-01 
    1.2028316595549151E+00 
    1.1984854920511734E+00 
    1.1898489774448997E+00 
    1.1770551568799454E+00 
    1.1602916589667063E+00 
    1.1397772939030548E+00 
    1.1157434894781539E+00 
    1.0884507758914772E+00 
    1.0582223602917433E+00 
    1.0254945086584799E+00 
    9.9090662545577268E-01 
    9.5545406097306074E-01 
    9.2068078970762746E-01 
    8.8886918968361295E-01 
    8.6306019040801041E-01 
    8.4633670308991193E-01 
    1.1864840901905676E+00 
    1.1820733004820141E+00 
    1.1732734656280359E+00 
    1.1601457849209245E+00 
    1.1427785638516708E+00 
    1.1212679473059211E+00 
    1.0956982331616854E+00 
    1.0661578493160304E+00 
    1.0327698246423354E+00 
    9.9573916514307870E-01 
    9.5545406097338537E-01 
    9.1269590793008382E-01 
    8.6896950602908429E-01 
    8.2697499063081126E-01 
    7.9107625801819070E-01 
    7.6673097600620466E-01 
    1.1729996815393677E+00 
    1.1684883616954684E+00 
    1.1594601494693768E+00 
    1.1459149159559419E+00 
    1.1278526259390882E+00 
    1.1052534081678775E+00 
    1.0780472272198141E+00 
    1.0461203715637946E+00 
    1.0093334459470589E+00 
    9.6754400348264236E-01 
    9.2068078970835532E-01 
    8.6896950602950529E-01 
    8.1338418963701853E-01 
    7.5652591523483792E-01 
    7.0409531872008824E-01 
    6.6574544877646769E-01 
    1.1625333736236880E+00 
    1.1579150179678561E+00 
    1.1486505928170385E+00 
    1.1346883258357308E+00 
    1.1159533183215491E+00 
    1.0923210351619697E+00 
    1.0635685708212343E+00 
    1.0293671688814696E+00 
    9.8927480939183177E-01 
    9.4269760824460469E-01 
    8.8886918968480810E-01 
    8.2697499063173685E-01 
    7.5652591523536983E-01 
    6.7846433517536331E-01 
    5.9812442437810587E-01 
    5.3097304610216800E-01 
    1.1551558395423915E+00 
    1.1504470117890953E+00 
    1.1409851515668248E+00 
    1.1266805488082952E+00 
    1.1074004390600669E+00 
    1.0829339625971992E+00 
    1.0529283102434985E+00 
    1.0168620142733447E+00 
    9.7399982047023514E-01 
    9.2326609867496412E-01 
    8.6306019040964210E-01 
    7.9107625801955439E-01 
    7.0409531872103348E-01 
    5.9812442437843061E-01 
    4.7085215637619648E-01 
    3.3495198145194793E-01 
    1.1508388615193552E+00 
    1.1460717013440600E+00 
    1.1364832684122790E+00 
    1.1219613429906785E+00 
    1.1023353047152351E+00 
    1.0773372953734814E+00 
    1.0465308384204888E+00 
    1.0092621840991816E+00 
    9.6458104000625233E-01 
    9.1103884656126533E-01 
    8.4633670309194275E-01 
    7.6673097600794726E-01 
    6.6574544877771902E-01 
    5.3097304610255425E-01 
    3.3495198145150112E-01 
    0.0000000000000000E+00 

SCALARS Saturarion double 1 
LOOKUP_TABLE default 

    1.0000000000000000E+00 
    9.6960319911054582E-01 
    9.4109487873771536E-01 
    9.0925991447587784E-01 
    8.7564237545815293E-01 
    8.4160049129031245E-01 
    8.0761816800598540E-01 
    7.7390086707056605E-01 
    7.4019767868529052E-01 
    7.0623518977885802E-01 
    6.7116088072332014E-01 
    6.3378288425327012E-01 
    5.9144796983382786E-01 
    5.3919675026184477E-01 
    4.6027893107216777E-01 
    2.8730667252682607E-01 
    9.6960319911067572E-01 
    9.4801952747513663E-01 
    9.2178561454655428E-01 
    8.9252998940980877E-01 
    8.6145927137792166E-01 
    8.2975300314583700E-01 
    7.9784306041273689E-01 
    7.6598215502170741E-01 
    7.3393271391880222E-01 
    7.0141726966586659E-01 
    6.6761817686726588E-01 
    6.3137716846296632E-01 
    5.9006748777409090E-01 
    5.3862491052068273E-01 
    4.6037071122892381E-01 
    2.8795159314924101E-01 
    9.4109487873814313E-01 
    9.2178561454676455E-01 
    8.9795825071418089E-01 
    8.7147008241119261E-01 
    8.4329703840580517E-01 
    8.1435672247516655E-01 
    7.8503542443342911E-01 
    7.5558739576171519E-01 
    7.2578368493881784E-01 
    6.9523614270705558E-01 
    6.6319295078893359E-01 
    6.2850558676311230E-01 
    5.8863250673883183E-01 
    5.3824767180562449E-01 
    4.6092852175005528E-01 
    2.8952947559662379E-01 
    9.0925991447656773E-01 
    8.9252998941030304E-01 
    8.7147008241141921E-01 
    8.4791647129912262E-01 
    8.2282192839515733E-01 
    7.9693298143612623E-01 
    7.7056051789296565E-01 
    7.4382523320289751E-01 
    7.1655536335519809E-01 
    6.8831252137219989E-01 
    6.5838737268970415E-01 
    6.2549268219063892E-01 
    5.8737230167623466E-01 
    5.3813257795342817E-01 
    4.6208524353722019E-01 
    2.9225425700699981E-01 
    8.7564237545910539E-01 
    8.6145927137860578E-01 
    8.4329703840623860E-01 
    8.2282192839536450E-01 
    8.0090133462786739E-01 
    7.7814699844129265E-01 
    7.5481751076056092E-01 
    7.3105735954420414E-01 
    7.0659257808160680E-01 
    6.8105768663395827E-01 
    6.5359021322876398E-01 
    6.2301103841943661E-01 
    5.8664829043964795E-01 
    5.3952042338231898E-01 
    4.6504875305390969E-01 
    2.9744975730455314E-01 
    8.4160049129140047E-01 
    8.2975300314670808E-01 
    8.1435672247579394E-01 
    7.9693298143652136E-01 
    7.7814699844148216E-01 
    7.5860187655824751E-01 
    7.3838811947693028E-01 
    7.1767896319502877E-01 
    6.9611957295270377E-01 
    6.7340965955150123E-01 
    6.4861454185004941E-01 
    6.2051268418741146E-01 
    5.8639982961463621E-01 
    5.4128640536177697E-01 
    4.6887715707230249E-01 
    3.0426770623110572E-01 
    8.0761816800729347E-01 
    7.9784306041381181E-01 
    7.8503542443424168E-01 
    7.7056051789352542E-01 
    7.5481751076090953E-01 
    7.3838811947708105E-01 
    7.2129754124005208E-01 
    7.0370939535721866E-01 
    6.8521942422776250E-01 
    6.6545721828371440E-01 
    6.4352380497961381E-01 
    6.1814511266737548E-01 
    5.8667859357786278E-01 
    5.4385321289323896E-01 
    4.7393933335696820E-01 
    3.1309573988106904E-01 
    7.7390086707206396E-01 
    7.6598215502294564E-01 
    7.5558739576267242E-01 
    7.4382523320360061E-01 
    7.3105735954469298E-01 
    7.1767896319533708E-01 
    7.0370939535735788E-01 
    6.8922937233735349E-01 
    6.7389004732368973E-01 
    6.5723324317978038E-01 
    6.3837758560521918E-01 
    6.1594600179045145E-01 
    5.8750001902645055E-01 
    5.4729718712750286E-01 
    4.8045307440164536E-01 
    3.2417220757582083E-01 
    7.4019767868650554E-01 
    7.3393271391979331E-01 
    7.2578368493961731E-01 
    7.1655536335581382E-01 
    7.0659257808203979E-01 
    6.9611957295298110E-01 
    6.8521942422791005E-01 
    6.7389004732373614E-01 
    6.6182332531300880E-01 
    6.4847881358088433E-01 
    6.3298602961570605E-01 
    6.1397468460969107E-01 
    5.8883309382031057E-01 
    5.5229495117960192E-01 
    4.8930649045835506E-01 
    3.3859781497261865E-01 
    7.0623518977980060E-01 
    7.0141726966664819E-01 
    6.9523614270771672E-01 
    6.8831252137267684E-01 
    6.8105768663430244E-01 
    6.7340965955174148E-01 
    6.6545721828383686E-01 
    6.5723324317983056E-01 
    6.4847881358089687E-01 
    6.3861152939076848E-01 
    6.2674807681553468E-01 
    6.1152362853869324E-01 
    5.9033298507586285E-01 
    5.5794985297170119E-01 
    4.9987104039239866E-01 
    3.5593363060478367E-01 
    6.7116088072401336E-01 
    6.6761817686784297E-01 
    6.6319295078940976E-01 
    6.5838737269004510E-01 
    6.5359021322901523E-01 
    6.4861454185022693E-01 
    6.4352380497969253E-01 
    6.3837758560525870E-01 
    6.3298602961569428E-01 
    6.2674807681551215E-01 
    6.1881964587833038E-01 
    6.0786280348129273E-01 
    5.9133074270209229E-01 
    5.6402894594552622E-01 
    5.1219970716491237E-01 
    3.7676877483069326E-01 
    6.3378288425373319E-01 
    6.3137716846334691E-01 
    6.2850558676340118E-01 
    6.2549268219085352E-01 
    6.2301103841958350E-01 
    6.2051268418749073E-01 
    6.1814511266738825E-01 
    6.1594600179042536E-01 
    6.1397468460960691E-01 
    6.1152362853859443E-01 
    6.0786280348122768E-01 
    6.0172013559628834E-01 
    5.9064480501026007E-01 
    5.6963117576265987E-01 
    5.2575835413650673E-01 
    4.0123642299985190E-01 
    5.9144796983400993E-01 
    5.9006748777423446E-01 
    5.8863250673892475E-01 
    5.8737230167627141E-01 
    5.8664829043964539E-01 
    5.8639982961457626E-01 
    5.8667859357774521E-01 
    5.8750001902629123E-01 
    5.8883309382010829E-01 
    5.9033298507566068E-01 
    5.9133074270191821E-01 
    5.9064480501015759E-01 
    5.8604688422235496E-01 
    5.7290545018972072E-01 
    5.3939568683651473E-01 
    4.3013955791063208E-01 
    5.3919675026165537E-01 
    5.3862491052049732E-01 
    5.3824767180543065E-01 
    5.3813257795321179E-01 
    5.3952042338207296E-01 
    5.4128640536150174E-01 
    5.4385321289292521E-01 
    5.4729718712713704E-01 
    5.5229495117922101E-01 
    5.5794985297133781E-01 
    5.6402894594521591E-01 
    5.6963117576243516E-01 
    5.7290545018961125E-01 
    5.6966776261167373E-01 
    5.4954506516926394E-01 
    4.6199551916128889E-01 
    4.6027893107203371E-01 
    4.6037071122877649E-01 
    4.6092852174991128E-01 
    4.6208524353706004E-01 
    4.6504875305371574E-01 
    4.6887715707206057E-01 
    4.7393933335665206E-01 
    4.8045307440123969E-01 
    4.8930649045792046E-01 
    4.9987104039196106E-01 
    5.1219970716450769E-01 
    5.2575835413617256E-01 
    5.3939568683629269E-01 
    5.4954506516916923E-01 
    5.4750184002150681E-01 
    4.9169141835825902E-01 
    2.8730667252679215E-01 
    2.8795159314920343E-01 
    2.8952947559658437E-01 
    2.9225425700693913E-01 
    2.9744975730442313E-01 
    3.0426770623090105E-01 
    3.1309573988074901E-01 
    3.2417220757535092E-01 
    3.3859781497213420E-01 
    3.5593363060432404E-01 
    3.7676877483029625E-01 
    4.0123642299955398E-01 
    4.3013955791049019E-01 
    4.6199551916133985E-01 
    4.9169141835828573E-01 
    4.9094817629690324E-01 
