# vtk DataFile Version 2.0
Pressure Field Data 
ASCII 
DATASET UNSTRUCTURED_GRID 

POINTS 289 double 

    0.0000000000000000E+00     0.0000000000000000E+00     0.0000000000000000E+00 
    1.0000000000000000E+00     0.0000000000000000E+00     0.0000000000000000E+00 
    1.0000000000000000E+00     1.0000000000000000E+00     0.0000000000000000E+00 
    0.0000000000000000E+00     1.0000000000000000E+00     0.0000000000000000E+00 
    6.2499999999872928E-02     0.0000000000000000E+00     0.0000000000000000E+00 
    1.2499999999977310E-01     0.0000000000000000E+00     0.0000000000000000E+00 
    1.8749999999959341E-01     0.0000000000000000E+00     0.0000000000000000E+00 
    2.4999999999941089E-01     0.0000000000000000E+00     0.0000000000000000E+00 
    3.1249999999922851E-01     0.0000000000000000E+00     0.0000000000000000E+00 
    3.7499999999904610E-01     0.0000000000000000E+00     0.0000000000000000E+00 
    4.3749999999886358E-01     0.0000000000000000E+00     0.0000000000000000E+00 
    4.9999999999869210E-01     0.0000000000000000E+00     0.0000000000000000E+00 
    5.6249999999884603E-01     0.0000000000000000E+00     0.0000000000000000E+00 
    6.2499999999901090E-01     0.0000000000000000E+00     0.0000000000000000E+00 
    6.8749999999917577E-01     0.0000000000000000E+00     0.0000000000000000E+00 
    7.4999999999934064E-01     0.0000000000000000E+00     0.0000000000000000E+00 
    8.1249999999950551E-01     0.0000000000000000E+00     0.0000000000000000E+00 
    8.7499999999967026E-01     0.0000000000000000E+00     0.0000000000000000E+00 
    9.3749999999983513E-01     0.0000000000000000E+00     0.0000000000000000E+00 
    1.0000000000000000E+00     6.2499999999872928E-02     0.0000000000000000E+00 
    1.0000000000000000E+00     1.2499999999977310E-01     0.0000000000000000E+00 
    1.0000000000000000E+00     1.8749999999959341E-01     0.0000000000000000E+00 
    1.0000000000000000E+00     2.4999999999941089E-01     0.0000000000000000E+00 
    1.0000000000000000E+00     3.1249999999922851E-01     0.0000000000000000E+00 
    1.0000000000000000E+00     3.7499999999904610E-01     0.0000000000000000E+00 
    1.0000000000000000E+00     4.3749999999886358E-01     0.0000000000000000E+00 
    1.0000000000000000E+00     4.9999999999869210E-01     0.0000000000000000E+00 
    1.0000000000000000E+00     5.6249999999884603E-01     0.0000000000000000E+00 
    1.0000000000000000E+00     6.2499999999901090E-01     0.0000000000000000E+00 
    1.0000000000000000E+00     6.8749999999917577E-01     0.0000000000000000E+00 
    1.0000000000000000E+00     7.4999999999934064E-01     0.0000000000000000E+00 
    1.0000000000000000E+00     8.1249999999950551E-01     0.0000000000000000E+00 
    1.0000000000000000E+00     8.7499999999967026E-01     0.0000000000000000E+00 
    1.0000000000000000E+00     9.3749999999983513E-01     0.0000000000000000E+00 
    9.3749999999973976E-01     1.0000000000000000E+00     0.0000000000000000E+00 
    8.7499999999950118E-01     1.0000000000000000E+00     0.0000000000000000E+00 
    8.1249999999991318E-01     1.0000000000000000E+00     0.0000000000000000E+00 
    7.5000000000034706E-01     1.0000000000000000E+00     0.0000000000000000E+00 
    6.8750000000078049E-01     1.0000000000000000E+00     0.0000000000000000E+00 
    6.2500000000121403E-01     1.0000000000000000E+00     0.0000000000000000E+00 
    5.6250000000164757E-01     1.0000000000000000E+00     0.0000000000000000E+00 
    5.0000000000205946E-01     1.0000000000000000E+00     0.0000000000000000E+00 
    4.3750000000182099E-01     1.0000000000000000E+00     0.0000000000000000E+00 
    3.7500000000156092E-01     1.0000000000000000E+00     0.0000000000000000E+00 
    3.1250000000130068E-01     1.0000000000000000E+00     0.0000000000000000E+00 
    2.5000000000104050E-01     1.0000000000000000E+00     0.0000000000000000E+00 
    1.8750000000078040E-01     1.0000000000000000E+00     0.0000000000000000E+00 
    1.2500000000052031E-01     1.0000000000000000E+00     0.0000000000000000E+00 
    6.2500000000260125E-02     1.0000000000000000E+00     0.0000000000000000E+00 
    0.0000000000000000E+00     9.3749999999973976E-01     0.0000000000000000E+00 
    0.0000000000000000E+00     8.7499999999950118E-01     0.0000000000000000E+00 
    0.0000000000000000E+00     8.1249999999991318E-01     0.0000000000000000E+00 
    0.0000000000000000E+00     7.5000000000034706E-01     0.0000000000000000E+00 
    0.0000000000000000E+00     6.8750000000078049E-01     0.0000000000000000E+00 
    0.0000000000000000E+00     6.2500000000121403E-01     0.0000000000000000E+00 
    0.0000000000000000E+00     5.6250000000164757E-01     0.0000000000000000E+00 
    0.0000000000000000E+00     5.0000000000205946E-01     0.0000000000000000E+00 
    0.0000000000000000E+00     4.3750000000182099E-01     0.0000000000000000E+00 
    0.0000000000000000E+00     3.7500000000156092E-01     0.0000000000000000E+00 
    0.0000000000000000E+00     3.1250000000130068E-01     0.0000000000000000E+00 
    0.0000000000000000E+00     2.5000000000104050E-01     0.0000000000000000E+00 
    0.0000000000000000E+00     1.8750000000078040E-01     0.0000000000000000E+00 
    0.0000000000000000E+00     1.2500000000052031E-01     0.0000000000000000E+00 
    0.0000000000000000E+00     6.2500000000260125E-02     0.0000000000000000E+00 
    6.2499999999897131E-02     6.2500000000235922E-02     0.0000000000000000E+00 
    6.2499999999921327E-02     1.2500000000047351E-01     0.0000000000000000E+00 
    6.2499999999945530E-02     1.8750000000070621E-01     0.0000000000000000E+00 
    6.2499999999969733E-02     2.5000000000093858E-01     0.0000000000000000E+00 
    6.2499999999993928E-02     3.1250000000117117E-01     0.0000000000000000E+00 
    6.2500000000018124E-02     3.7500000000140382E-01     0.0000000000000000E+00 
    6.2500000000042327E-02     4.3750000000163619E-01     0.0000000000000000E+00 
    6.2500000000066530E-02     5.0000000000184897E-01     0.0000000000000000E+00 
    6.2500000000090733E-02     5.6250000000147260E-01     0.0000000000000000E+00 
    6.2500000000114922E-02     6.2500000000107636E-01     0.0000000000000000E+00 
    6.2500000000139125E-02     6.8750000000068034E-01     0.0000000000000000E+00 
    6.2500000000163328E-02     7.5000000000028411E-01     0.0000000000000000E+00 
    6.2500000000187531E-02     8.1249999999988787E-01     0.0000000000000000E+00 
    6.2500000000211720E-02     8.7499999999951172E-01     0.0000000000000000E+00 
    6.2500000000235922E-02     9.3749999999974565E-01     0.0000000000000000E+00 
    1.2499999999981980E-01     6.2500000000211733E-02     0.0000000000000000E+00 
    1.2499999999986650E-01     1.2500000000042691E-01     0.0000000000000000E+00 
    1.2499999999991319E-01     1.8750000000063199E-01     0.0000000000000000E+00 
    1.2499999999995989E-01     2.5000000000083678E-01     0.0000000000000000E+00 
    1.2500000000000661E-01     3.1250000000104172E-01     0.0000000000000000E+00 
    1.2500000000005329E-01     3.7500000000124661E-01     0.0000000000000000E+00 
    1.2500000000010000E-01     4.3750000000145117E-01     0.0000000000000000E+00 
    1.2500000000014669E-01     5.0000000000163858E-01     0.0000000000000000E+00 
    1.2500000000019340E-01     5.6250000000129741E-01     0.0000000000000000E+00 
    1.2500000000024011E-01     6.2500000000093847E-01     0.0000000000000000E+00 
    1.2500000000028680E-01     6.8750000000057998E-01     0.0000000000000000E+00 
    1.2500000000033351E-01     7.5000000000022127E-01     0.0000000000000000E+00 
    1.2500000000038020E-01     8.1249999999986211E-01     0.0000000000000000E+00 
    1.2500000000042691E-01     8.7499999999952238E-01     0.0000000000000000E+00 
    1.2500000000047359E-01     9.3749999999975164E-01     0.0000000000000000E+00 
    1.8749999999966760E-01     6.2500000000187531E-02     0.0000000000000000E+00 
    1.8749999999974179E-01     1.2500000000038020E-01     0.0000000000000000E+00 
    1.8749999999981601E-01     1.8750000000055780E-01     0.0000000000000000E+00 
    1.8749999999989009E-01     2.5000000000073502E-01     0.0000000000000000E+00 
    1.8749999999996431E-01     3.1250000000091221E-01     0.0000000000000000E+00 
    1.8750000000003850E-01     3.7500000000108941E-01     0.0000000000000000E+00 
    1.8750000000011269E-01     4.3750000000126649E-01     0.0000000000000000E+00 
    1.8750000000018691E-01     5.0000000000142808E-01     0.0000000000000000E+00 
    1.8750000000026110E-01     5.6250000000112244E-01     0.0000000000000000E+00 
    1.8750000000033529E-01     6.2500000000080080E-01     0.0000000000000000E+00 
    1.8750000000040951E-01     6.8750000000047962E-01     0.0000000000000000E+00 
    1.8750000000048361E-01     7.5000000000015843E-01     0.0000000000000000E+00 
    1.8750000000055780E-01     8.1249999999983680E-01     0.0000000000000000E+00 
    1.8750000000063199E-01     8.7499999999953304E-01     0.0000000000000000E+00 
    1.8750000000070621E-01     9.3749999999975764E-01     0.0000000000000000E+00 
    2.4999999999951281E-01     6.2500000000163314E-02     0.0000000000000000E+00 
    2.4999999999961461E-01     1.2500000000033351E-01     0.0000000000000000E+00 
    2.4999999999971650E-01     1.8750000000048361E-01     0.0000000000000000E+00 
    2.4999999999981831E-01     2.5000000000063310E-01     0.0000000000000000E+00 
    2.4999999999992020E-01     3.1250000000078260E-01     0.0000000000000000E+00 
    2.5000000000002198E-01     3.7500000000093209E-01     0.0000000000000000E+00 
    2.5000000000012390E-01     4.3750000000108180E-01     0.0000000000000000E+00 
    2.5000000000022571E-01     5.0000000000121769E-01     0.0000000000000000E+00 
    2.5000000000032763E-01     5.6250000000094724E-01     0.0000000000000000E+00 
    2.5000000000042938E-01     6.2500000000066314E-01     0.0000000000000000E+00 
    2.5000000000053119E-01     6.8750000000037925E-01     0.0000000000000000E+00 
[...]
CELL_DATA 256 
SCALARS Pressure double 1 
LOOKUP_TABLE default 

    2.3827660880237027E+00 
    2.2747526326467766E+00 
    2.2026071229738680E+00 
    2.1472862569995597E+00 
    2.1009021724708341E+00 
    2.0599931671625957E+00 
    2.0229456274475091E+00 
    1.9890110093557998E+00 
    1.9579003956720307E+00 
    1.9295889561314548E+00 
    1.9041962566806232E+00 
    1.8818714386849396E+00 
    1.8626129323375371E+00 
    1.8460538362136405E+00 
    1.8326516996925999E+00 
    1.8256925144452945E+00 
    2.2747526326473575E+00 
    2.2289648942814098E+00 
    2.1790782152730586E+00 
    2.1328585412192873E+00 
    2.0907142894779733E+00 
    2.0519804875554102E+00 
    2.0161026758255578E+00 
    1.9827864723556623E+00 
    1.9519640753168135E+00 
    1.9237315097795047E+00 
    1.8982839948886614E+00 
    1.8758257225695818E+00 
    1.8563954298185703E+00 
    1.8396352674570531E+00 
    1.8260564220759878E+00 
    1.8190124100177829E+00 
    2.2026071229747077E+00 
    2.1790782152734676E+00 
    2.1454161424496645E+00 
    2.1088877298183766E+00 
    2.0723748219204392E+00 
    2.0369190631262239E+00 
    2.0029245995988245E+00 
    1.9706253677691816E+00 
    1.9402573348463468E+00 
    1.9121040537505656E+00 
    1.8864901277495345E+00 
    1.8637198025535333E+00 
    1.8439113533732610E+00 
    1.8267376727006686E+00 
    1.8128033343665595E+00 
    1.8055836982529492E+00 
    2.1472862570005899E+00 
    2.1328585412199836E+00 
    2.1088877298187079E+00 
    2.0798327738573574E+00 
    2.0484603591393582E+00 
    2.0163287017869362E+00 
    1.9843466976046364E+00 
    1.9531243839042594E+00 
    1.9231627290476607E+00 
    1.8949385065968878E+00 
    1.8689296892198954E+00 
    1.8455732470761803E+00 
    1.8251000258268768E+00 
    1.8072534827979712E+00 
    1.7927557508004586E+00 
    1.7852460274804185E+00 
    2.1009021724720256E+00 
    2.0907142894788824E+00 
    2.0723748219210263E+00 
    2.0484603591396344E+00 
    2.0210691762332988E+00 
    1.9917010084234990E+00 
    1.9614161741357532E+00 
    1.9310177844744036E+00 
    1.9011874601123748E+00 
    1.8725654216215710E+00 
    1.8457841869876412E+00 
    1.8214351044662880E+00 
    1.7998922803319251E+00 
    1.7810197007524406E+00 
    1.7656626645824642E+00 
    1.7576926703845379E+00 
    2.0599931671639324E+00 
    2.0519804875564893E+00 
    2.0369190631270140E+00 
    2.0163287017874389E+00 
    1.9917010084237379E+00 
    1.9642940264036686E+00 
    1.9351304972978314E+00 
    1.9050712615549836E+00 
    1.8748971864155652E+00 
    1.8453704134523770E+00 
    1.8172675188829821E+00 
    1.7913483186713324E+00 
    1.7681716418708446E+00 
    1.7477692817475470E+00 
    1.7311162184551430E+00 
    1.7224419851999202E+00 
    2.0229456274489714E+00 
    2.0161026758267777E+00 
    2.0029245995997811E+00 
    1.9843466976053297E+00 
    1.9614161741362002E+00 
    1.9351304972980485E+00 
    1.9063937006900620E+00 
    1.8760395381404043E+00 
    1.8448823718474272E+00 
    1.8137641570807470E+00 
    1.7835897633438287E+00 
    1.7553012718919707E+00 
    1.7296964216134727E+00 
    1.7070435764302905E+00 
    1.6884967638463446E+00 
    1.6787988083079373E+00 
    1.9890110093573614E+00 
    1.9827864723569912E+00 
    1.9706253677702681E+00 
    1.9531243839051087E+00 
    1.9310177844750285E+00 
    1.9050712615553973E+00 
    1.8760395381406128E+00 
    1.8446763392749912E+00 
    1.8117747993624298E+00 
    1.7782125400162323E+00 
    1.7449980791930904E+00 
    1.7132671529950685E+00 
    1.6841150387534920E+00 
    1.6581641775471301E+00 
    1.6368694166067812E+00 
    1.6256994576311465E+00 
    1.9579003956733965E+00 
    1.9519640753179930E+00 
    1.9402573348473438E+00 
    1.9231627290484865E+00 
    1.9011874601130418E+00 
    1.8748971864160819E+00 
    1.8448823718477947E+00 
    1.8117747993626367E+00 
    1.7762923750245407E+00 
    1.7392934299380147E+00 
    1.7018454540590124E+00 
    1.6652697103255074E+00 
    1.6310142048134673E+00 
    1.6002175939556160E+00 
    1.5748453350323415E+00 
    1.5614570394852065E+00 
    1.9295889561324460E+00 
    1.9237315097803764E+00 
    1.9121040537513305E+00 
    1.8949385065975661E+00 
    1.8725654216221788E+00 
    1.8453704134529263E+00 
    1.8137641570812411E+00 
    1.7782125400166615E+00 
    1.7392934299382918E+00 
    1.6977653850520382E+00 
    1.6546699465121408E+00 
    1.6114550995524775E+00 
    1.5699479429115990E+00 
    1.5319800301147333E+00 
    1.5003756595665778E+00 
    1.4834184615196186E+00 
    1.9041962566812827E+00 
    1.8982839948892558E+00 
    1.8864901277500881E+00 
    1.8689296892204383E+00 
    1.8457841869881997E+00 
    1.8172675188835758E+00 
    1.7835897633444726E+00 
    1.7449980791937856E+00 
    1.7018454540596344E+00 
    1.6546699465125037E+00 
    1.6043309520542168E+00 
    1.5522433225196588E+00 
    1.5005292483191424E+00 
    1.4518417607574503E+00 
    1.4103822106611663E+00 
    1.3872092935100915E+00 
    1.8818714386853153E+00 
    1.8758257225699377E+00 
    1.8637198025539057E+00 
    1.8455732470766124E+00 
    1.8214351044668176E+00 
    1.7913483186719945E+00 
    1.7553012718927981E+00 
    1.7132671529960832E+00 
    1.6652697103265544E+00 
    1.6114550995533010E+00 
    1.5522433225201402E+00 
    1.4886751156673692E+00 
    1.4228155918936061E+00 
    1.3580067982026738E+00 
    1.3002743372270205E+00 
    1.2652193838225079E+00 
    1.8626129323376788E+00 
    1.8563954298187320E+00 
    1.8439113533734892E+00 
    1.8251000258272283E+00 
    1.7998922803324529E+00 
    1.7681716418716027E+00 
    1.7296964216145199E+00 
    1.6841150387548822E+00 
    1.6310142048150205E+00 
    1.5699479429129841E+00 
    1.5005292483202330E+00 
    1.4228155918942493E+00 
    1.3379585853094571E+00 
    1.2491135598881171E+00 
    1.1638774189891987E+00 
    1.1049680462253615E+00 
    1.8460538362136025E+00 
    1.8396352674570682E+00 
    1.8267376727007931E+00 
    1.8072534827982776E+00 
    1.7810197007529991E+00 
    1.7477692817484323E+00 
    1.7070435764315912E+00 
    1.6581641775489404E+00 
    1.6002175939577374E+00 
    1.5319800301167597E+00 
    1.4518417607592566E+00 
    1.3580067982041077E+00 
    1.2491135598889618E+00 
    1.1256130060000382E+00 
    9.9380088319483839E-01 
    8.8512179640005673E-01 
    1.8326516996925311E+00 
    1.8260564220759872E+00 
    1.8128033343666952E+00 
    1.7927557508008187E+00 
    1.7656626645831366E+00 
    1.7311162184562254E+00 
    1.6884967638479542E+00 
    1.6368694166090507E+00 
    1.5748453350350475E+00 
    1.5003756595692312E+00 
    1.4103822106636386E+00 
    1.3002743372291465E+00 
    1.1638774189907086E+00 
    9.9380088319535631E-01 
    7.8391238835384847E-01 
    5.5907782339348966E-01 
    1.8256925144452461E+00 
    1.8190124100178111E+00 
    1.8055836982531350E+00 
    1.7852460274808646E+00 
    1.7576926703853493E+00 
    1.7224419852012154E+00 
    1.6787988083098588E+00 
    1.6256994576338597E+00 
    1.5614570394884562E+00 
    1.4834184615228423E+00 
    1.3872092935131632E+00 
    1.2652193838252486E+00 
    1.1049680462273987E+00 
    8.8512179640068211E-01 
    5.5907782339272061E-01 
    0.0000000000000000E+00 

SCALARS Saturarion double 1 
LOOKUP_TABLE default 

    1.0000000000000000E+00 
    9.4549028876206342E-01 
    8.9928195243530573E-01 
    8.5173816089350274E-01 
    8.0480410129626556E-01 
    7.5985308842227983E-01 
    7.1682278637960462E-01 
    6.7545036898951549E-01 
    6.3492694485116308E-01 
    5.9448267371098773E-01 
    5.5228650772852239E-01 
    5.0504024653964552E-01 
    4.4329313115004870E-01 
    3.4274746603674955E-01 
    1.4778180663035723E-01 
    7.0305691192620000E-03 
    9.4549028876237395E-01 
    9.0998354038636919E-01 
    8.6969114153552907E-01 
    8.2766124374999717E-01 
    7.8543176751379229E-01 
    7.4433110393668656E-01 
    7.0441623593900937E-01 
    6.6562371656665487E-01 
    6.2724303347039401E-01 
    5.8854838946319987E-01 
    5.4778651099741882E-01 
    5.0169693864058862E-01 
    4.4067231949726243E-01 
    3.3948542150623895E-01 
    1.4221136754141195E-01 
    6.2117262112244987E-03 
    8.9928195243594888E-01 
    8.6969114153582738E-01 
    8.3500462794690999E-01 
    7.9847928778439248E-01 
    7.6131856095377737E-01 
    7.2457043373476038E-01 
    6.8839211647615617E-01 
    6.5284047293269165E-01 
    6.1730177693715338E-01 
    5.8094323430317174E-01 
    5.4214658578909070E-01 
    4.9766365979434157E-01 
    4.3788585139870173E-01 
    3.3612730594751333E-01 
    1.3661512771076770E-01 
    5.4737021080471134E-03 
    8.5173816089442855E-01 
    8.2766124375062344E-01 
    7.9847928778470878E-01 
    7.6719361963073440E-01 
    7.3501301474473490E-01 
    7.0278579261149454E-01 
    6.7067493911890597E-01 
    6.3862340467740686E-01 
    6.0618612527508031E-01 
    5.7251101333858012E-01 
    5.3608615506468926E-01 
    4.9341476862913947E-01 
    4.3535361271054135E-01 
    3.3268675914425810E-01 
    1.3137017880705920E-01 
    4.8692487382677677E-03 
    8.0480410129750501E-01 
    7.8543176751460642E-01 
    7.6131856095435446E-01 
    7.3501301474497238E-01 
    7.0760286564197461E-01 
    6.7976094753145333E-01 
    6.5165343628432493E-01 
    6.2333334378490435E-01 
    5.9426611174732757E-01 
    5.6377527709478148E-01 
    5.3018097553731325E-01 
    4.9023834619862677E-01 
    4.3380684759323085E-01 
    3.3397307998682951E-01 
    1.3579686086156587E-01 
    5.5910472149379416E-03 
    7.5985308842366805E-01 
    7.4433110393766289E-01 
    7.2457043373550856E-01 
    7.0278579261198615E-01 
    6.7976094753165828E-01 
    6.5618764334592250E-01 
    6.3202263333914588E-01 
    6.0741397559604504E-01 
    5.8175156071742717E-01 
    5.5451014562611367E-01 
    5.2395392806625329E-01 
    4.8686162612339867E-01 
    4.3298104102802976E-01 
    3.3552933907410865E-01 
    1.3966716086074979E-01 
    6.0761873305737700E-03 
    7.1682278638119190E-01 
    7.0441623594028469E-01 
    6.8839211647711462E-01 
    6.7067493911959375E-01 
    6.5165343628473449E-01 
    6.3202263333931474E-01 
    6.1167630685826990E-01 
    5.9078352293877079E-01 
    5.6869242553554711E-01 
    5.4480883284799420E-01 
    5.1749851549477000E-01 
    4.8355413861881796E-01 
    4.3299943037971683E-01 
    3.3849869854801873E-01 
    1.4612479967079564E-01 
    7.1339122163841598E-03 
    6.7545036899130251E-01 
    6.6562371656812425E-01 
    6.5284047293385572E-01 
    6.3862340467825762E-01 
    6.2333334378546112E-01 
    6.0741397559637833E-01 
    5.9078352293893144E-01 
    5.7351319591871019E-01 
    5.5506360596219795E-01 
    5.3473302874094186E-01 
    5.1096090768876423E-01 
    4.8044816631352655E-01 
    4.3401642636821552E-01 
    3.4323087830576210E-01 
    1.5720236837973880E-01 
    9.3858086597499724E-03 
    6.3492694485256362E-01 
    6.2724303347163046E-01 
    6.1730177693812749E-01 
    6.0618612527580062E-01 
    5.9426611174783683E-01 
    5.8175156071776435E-01 
    5.6869242553572930E-01 
    5.5506360596227078E-01 
    5.4041529906190677E-01 
    5.2394183376441150E-01 
    5.0416944733886937E-01 
    4.7797400406566859E-01 
    4.3623703823572818E-01 
    3.5300150858548812E-01 
    1.8010199112846784E-01 
    1.6441958337722998E-02 
    5.9448267371210961E-01 
    5.8854838946416610E-01 
    5.8094323430393102E-01 
    5.7251101333916188E-01 
    5.6377527709521980E-01 
    5.5451014562641321E-01 
    5.4480883284817228E-01 
    5.3473302874103534E-01 
    5.2394183376444203E-01 
    5.1156786714375591E-01 
    4.9618697957450719E-01 
    4.7488869097263370E-01 
    4.3920736944553612E-01 
    3.6486796659181225E-01 
    2.0810999843362610E-01 
    2.9087360011809602E-02 
    5.5228650772934595E-01 
    5.4778651099811604E-01 
    5.4214658578964692E-01 
    5.3608615506511226E-01 
    5.3018097553762666E-01 
    5.2395392806646723E-01 
    5.1749851549489789E-01 
    5.1096090768882152E-01 
    5.0416944733885782E-01 
    4.9618697957447488E-01 
    4.8571098266653534E-01 
    4.7010835403745360E-01 
    4.4184822313324162E-01 
    3.7877176914291755E-01 
    2.4068654472741099E-01 
    5.3513735681584948E-02 
    5.0504024654016988E-01 
    5.0169693864102050E-01 
    4.9766365979467841E-01 
    4.9341476862938316E-01 
    4.9023834619878864E-01 
    4.8686162612348088E-01 
    4.8355413861883401E-01 
    4.8044816631348536E-01 
    4.7797400406556356E-01 
    4.7488869097250641E-01 
    4.7010835403736057E-01 
    4.6130652952723400E-01 
    4.4197652675541477E-01 
    3.9285244553899362E-01 
    2.7630028437978227E-01 
    9.5983445420147639E-02 
    4.4329313115021324E-01 
    4.4067231949737529E-01 
    4.3788585139875291E-01 
    4.3535361271054007E-01 
    4.3380684759316790E-01 
    4.3298104102790080E-01 
    4.3299943037952315E-01 
    4.3401642636795890E-01 
    4.3623703823540805E-01 
    4.3920736944520367E-01 
    4.4184822313295735E-01 
    4.4197652675524013E-01 
    4.3418528115087263E-01 
    4.0273909958123871E-01 
    3.1282048630489606E-01 
    1.5414255096080107E-01 
    3.4274746603637796E-01 
    3.3948542150586797E-01 
    3.3612730594713280E-01 
    3.3268675914385509E-01 
    3.3397307998639292E-01 
    3.3552933907361304E-01 
    3.3849869854743847E-01 
    3.4323087830506643E-01 
    3.5300150858473273E-01 
    3.6486796659105875E-01 
    3.7877176914225913E-01 
    3.9285244553850968E-01 
    4.0273909958100051E-01 
    3.9552769962272982E-01 
    3.4040519014153431E-01 
    2.1285526301671381E-01 
    1.4778180663037704E-01 
    1.4221136754139482E-01 
    1.3661512771071846E-01 
    1.3137017880693883E-01 
    1.3579686086131817E-01 
    1.3966716086032027E-01 
    1.4612479967009884E-01 
    1.5720236837870169E-01 
    1.8010199112721628E-01 
    2.0810999843229361E-01 
    2.4068654472616993E-01 
    2.7630028437876020E-01 
    3.1282048630420589E-01 
    3.4040519014119830E-01 
    3.3478914490186396E-01 
    2.5792226025354081E-01 
    7.0305691192809024E-03 
    6.2117262112353780E-03 
    5.4737021080518457E-03 
    4.8692487382616450E-03 
    5.5910472149125296E-03 
    6.0761873305175034E-03 
    7.1339122162719466E-03 
    9.3858086595328231E-03 
    1.6441958337254033E-02 
    2.9087360010992432E-02 
    5.3513735680356181E-02 
    9.5983445418754976E-02 
    1.5414255095985807E-01 
    2.1285526301631474E-01 
    2.5792226025329934E-01 
    2.5542230701225199E-01 
