# vtk DataFile Version 2.0
Pressure Field Data 
ASCII 
DATASET UNSTRUCTURED_GRID 

POINTS 289 double 

    0.0000000000000000E+00     0.0000000000000000E+00     0.0000000000000000E+00 
    1.0000000000000000E+00     0.0000000000000000E+00     0.0000000000000000E+00 
    1.0000000000000000E+00     1.0000000000000000E+00     0.0000000000000000E+00 
    0.0000000000000000E+00     1.0000000000000000E+00     0.0000000000000000E+00 
    6.2499999999872928E-02     0.0000000000000000E+00     0.0000000000000000E+00 
    1.2499999999977310E-01     0.0000000000000000E+00     0.0000000000000000E+00 
    1.8749999999959341E-01     0.0000000000000000E+00     0.0000000000000000E+00 
    2.4999999999941089E-01     0.0000000000000000E+00     0.0000000000000000E+00 
    3.1249999999922851E-01     0.0000000000000000E+00     0.0000000000000000E+00 
    3.7499999999904610E-01     0.0000000000000000E+00     0.0000000000000000E+00 
    4.3749999999886358E-01     0.0000000000000000E+00     0.0000000000000000E+00 
    4.9999999999869210E-01     0.0000000000000000E+00     0.0000000000000000E+00 
    5.6249999999884603E-01     0.0000000000000000E+00     0.0000000000000000E+00 
    6.2499999999901090E-01     0.0000000000000000E+00     0.0000000000000000E+00 
    6.8749999999917577E-01     0.0000000000000000E+00     0.0000000000000000E+00 
    7.4999999999934064E-01     0.0000000000000000E+00     0.0000000000000000E+00 
    8.1249999999950551E-01     0.0000000000000000E+00     0.0000000000000000E+00 
    8.7499999999967026E-01     0.0000000000000000E+00     0.0000000000000000E+00 
    9.3749999999983513E-01     0.0000000000000000E+00     0.0000000000000000E+00 
    1.0000000000000000E+00     6.2499999999872928E-02     0.0000000000000000E+00 
    1.0000000000000000E+00     1.2499999999977310E-01     0.0000000000000000E+00 
    1.0000000000000000E+00     1.8749999999959341E-01     0.0000000000000000E+00 
    1.0000000000000000E+00     2.4999999999941089E-01     0.0000000000000000E+00 
    1.0000000000000000E+00     3.1249999999922851E-01     0.0000000000000000E+00 
    1.0000000000000000E+00     3.7499999999904610E-01     0.0000000000000000E+00 
    1.0000000000000000E+00     4.3749999999886358E-01     0.0000000000000000E+00 
    1.0000000000000000E+00     4.9999999999869210E-01     0.0000000000000000E+00 
    1.0000000000000000E+00     5.6249999999884603E-01     0.0000000000000000E+00 
    1.0000000000000000E+00     6.2499999999901090E-01     0.0000000000000000E+00 
    1.0000000000000000E+00     6.8749999999917577E-01     0.0000000000000000E+00 
    1.0000000000000000E+00     7.4999999999934064E-01     0.0000000000000000E+00 
    1.0000000000000000E+00     8.1249999999950551E-01     0.0000000000000000E+00 
    1.0000000000000000E+00     8.7499999999967026E-01     0.0000000000000000E+00 
    1.0000000000000000E+00     9.3749999999983513E-01     0.0000000000000000E+00 
    9.3749999999973976E-01     1.0000000000000000E+00     0.0000000000000000E+00 
    8.7499999999950118E-01     1.0000000000000000E+00     0.0000000000000000E+00 
    8.1249999999991318E-01     1.0000000000000000E+00     0.0000000000000000E+00 
    7.5000000000034706E-01     1.0000000000000000E+00     0.0000000000000000E+00 
    6.8750000000078049E-01     1.0000000000000000E+00     0.0000000000000000E+00 
    6.2500000000121403E-01     1.0000000000000000E+00     0.0000000000000000E+00 
    5.6250000000164757E-01     1.0000000000000000E+00     0.0000000000000000E+00 
    5.0000000000205946E-01     1.0000000000000000E+00     0.0000000000000000E+00 
    4.3750000000182099E-01     1.0000000000000000E+00     0.0000000000000000E+00 
    3.7500000000156092E-01     1.0000000000000000E+00     0.0000000000000000E+00 
    3.1250000000130068E-01     1.0000000000000000E+00     0.0000000000000000E+00 
    2.5000000000104050E-01     1.0000000000000000E+00     0.0000000000000000E+00 
    1.8750000000078040E-01     1.0000000000000000E+00     0.0000000000000000E+00 
    1.2500000000052031E-01     1.0000000000000000E+00     0.0000000000000000E+00 
    6.2500000000260125E-02     1.0000000000000000E+00     0.0000000000000000E+00 
    0.0000000000000000E+00     9.3749999999973976E-01     0.0000000000000000E+00 
    0.0000000000000000E+00     8.7499999999950118E-01     0.0000000000000000E+00 
    0.0000000000000000E+00     8.1249999999991318E-01     0.0000000000000000E+00 
    0.0000000000000000E+00     7.5000000000034706E-01     0.0000000000000000E+00 
    0.0000000000000000E+00     6.8750000000078049E-01     0.0000000000000000E+00 
    0.0000000000000000E+00     6.2500000000121403E-01     0.0000000000000000E+00 
    0.0000000000000000E+00     5.6250000000164757E-01     0.0000000000000000E+00 
    0.0000000000000000E+00     5.0000000000205946E-01     0.0000000000000000E+00 
    0.0000000000000000E+00     4.3750000000182099E-01     0.0000000000000000E+00 
    0.0000000000000000E+00     3.7500000000156092E-01     0.0000000000000000E+00 
    0.0000000000000000E+00     3.1250000000130068E-01     0.0000000000000000E+00 
    0.0000000000000000E+00     2.5000000000104050E-01     0.0000000000000000E+00 
    0.0000000000000000E+00     1.8750000000078040E-01     0.0000000000000000E+00 
    0.0000000000000000E+00     1.2500000000052031E-01     0.0000000000000000E+00 
    0.0000000000000000E+00     6.2500000000260125E-02     0.0000000000000000E+00 
    6.2499999999897131E-02     6.2500000000235922E-02     0.0000000000000000E+00 
    6.2499999999921327E-02     1.2500000000047351E-01     0.0000000000000000E+00 
    6.2499999999945530E-02     1.8750000000070621E-01     0.0000000000000000E+00 
    6.2499999999969733E-02     2.5000000000093858E-01     0.0000000000000000E+00 
    6.2499999999993928E-02     3.1250000000117117E-01     0.0000000000000000E+00 
    6.2500000000018124E-02     3.7500000000140382E-01     0.0000000000000000E+00 
    6.2500000000042327E-02     4.3750000000163619E-01     0.0000000000000000E+00 
    6.2500000000066530E-02     5.0000000000184897E-01     0.0000000000000000E+00 
    6.2500000000090733E-02     5.6250000000147260E-01     0.0000000000000000E+00 
    6.2500000000114922E-02     6.2500000000107636E-01     0.0000000000000000E+00 
    6.2500000000139125E-02     6.8750000000068034E-01     0.0000000000000000E+00 
    6.2500000000163328E-02     7.5000000000028411E-01     0.0000000000000000E+00 
    6.2500000000187531E-02     8.1249999999988787E-01     0.0000000000000000E+00 
    6.2500000000211720E-02     8.7499999999951172E-01     0.0000000000000000E+00 
    6.2500000000235922E-02     9.3749999999974565E-01     0.0000000000000000E+00 
    1.2499999999981980E-01     6.2500000000211733E-02     0.0000000000000000E+00 
    1.2499999999986650E-01     1.2500000000042691E-01     0.0000000000000000E+00 
    1.2499999999991319E-01     1.8750000000063199E-01     0.0000000000000000E+00 
    1.2499999999995989E-01     2.5000000000083678E-01     0.0000000000000000E+00 
    1.2500000000000661E-01     3.1250000000104172E-01     0.0000000000000000E+00 
    1.2500000000005329E-01     3.7500000000124661E-01     0.0000000000000000E+00 
    1.2500000000010000E-01     4.3750000000145117E-01     0.0000000000000000E+00 
    1.2500000000014669E-01     5.0000000000163858E-01     0.0000000000000000E+00 
    1.2500000000019340E-01     5.6250000000129741E-01     0.0000000000000000E+00 
    1.2500000000024011E-01     6.2500000000093847E-01     0.0000000000000000E+00 
    1.2500000000028680E-01     6.8750000000057998E-01     0.0000000000000000E+00 
    1.2500000000033351E-01     7.5000000000022127E-01     0.0000000000000000E+00 
    1.2500000000038020E-01     8.1249999999986211E-01     0.0000000000000000E+00 
    1.2500000000042691E-01     8.7499999999952238E-01     0.0000000000000000E+00 
    1.2500000000047359E-01     9.3749999999975164E-01     0.0000000000000000E+00 
    1.8749999999966760E-01     6.2500000000187531E-02     0.0000000000000000E+00 
    1.8749999999974179E-01     1.2500000000038020E-01     0.0000000000000000E+00 
    1.8749999999981601E-01     1.8750000000055780E-01     0.0000000000000000E+00 
    1.8749999999989009E-01     2.5000000000073502E-01     0.0000000000000000E+00 
    1.8749999999996431E-01     3.1250000000091221E-01     0.0000000000000000E+00 
    1.8750000000003850E-01     3.7500000000108941E-01     0.0000000000000000E+00 
    1.8750000000011269E-01     4.3750000000126649E-01     0.0000000000000000E+00 
    1.8750000000018691E-01     5.0000000000142808E-01     0.0000000000000000E+00 
    1.8750000000026110E-01     5.6250000000112244E-01     0.0000000000000000E+00 
    1.8750000000033529E-01     6.2500000000080080E-01     0.0000000000000000E+00 
    1.8750000000040951E-01     6.8750000000047962E-01     0.0000000000000000E+00 
    1.8750000000048361E-01     7.5000000000015843E-01     0.0000000000000000E+00 
    1.8750000000055780E-01     8.1249999999983680E-01     0.0000000000000000E+00 
    1.8750000000063199E-01     8.7499999999953304E-01     0.0000000000000000E+00 
    1.8750000000070621E-01     9.3749999999975764E-01     0.0000000000000000E+00 
    2.4999999999951281E-01     6.2500000000163314E-02     0.0000000000000000E+00 
    2.4999999999961461E-01     1.2500000000033351E-01     0.0000000000000000E+00 
    2.4999999999971650E-01     1.8750000000048361E-01     0.0000000000000000E+00 
    2.4999999999981831E-01     2.5000000000063310E-01     0.0000000000000000E+00 
    2.4999999999992020E-01     3.1250000000078260E-01     0.0000000000000000E+00 
    2.5000000000002198E-01     3.7500000000093209E-01     0.0000000000000000E+00 
    2.5000000000012390E-01     4.3750000000108180E-01     0.0000000000000000E+00 
    2.5000000000022571E-01     5.0000000000121769E-01     0.0000000000000000E+00 
    2.5000000000032763E-01     5.6250000000094724E-01     0.0000000000000000E+00 
    2.5000000000042938E-01     6.2500000000066314E-01     0.0000000000000000E+00 
    2.5000000000053119E-01     6.8750000000037925E-01     0.0000000000000000E+00 
[...]
CELL_DATA 256 
SCALARS Pressure double 1 
LOOKUP_TABLE default 

    1.6731804637239756E+00 
    1.5684578532372451E+00 
    1.5011362762910494E+00 
    1.4512969865927436E+00 
    1.4108417306479037E+00 
    1.3761590950654004E+00 
    1.3455024982364476E+00 
    1.3180010896755985E+00 
    1.2932471491378670E+00 
    1.2711025494984594E+00 
    1.2515940805795267E+00 
    1.2348456121902256E+00 
    1.2210224077069221E+00 
    1.2102787588039039E+00 
    1.2026671291985582E+00 
    1.1981984172394160E+00 
    1.5684578532377982E+00 
    1.5252357603219127E+00 
    1.4795876297256976E+00 
    1.4385203684587786E+00 
    1.4021176704490788E+00 
    1.3695073257062362E+00 
    1.3399739899205894E+00 
    1.3130849564516229E+00 
    1.2886423371690867E+00 
    1.2666201891069522E+00 
    1.2471131609910515E+00 
    1.2302926767962046E+00 
    1.2163619838741464E+00 
    1.2055055869955600E+00 
    1.1977994412960840E+00 
    1.1932701349941026E+00 
    1.5011362762918166E+00 
    1.4795876297260639E+00 
    1.4495245493474305E+00 
    1.4176950966250048E+00 
    1.3866304542974597E+00 
    1.3571285710321537E+00 
    1.3294047517314134E+00 
    1.3035330576517148E+00 
    1.2796016230548406E+00 
    1.2577564168775683E+00 
    1.2382059257854461E+00 
    1.2212065328576582E+00 
    1.2070326852051039E+00 
    1.1959277625121041E+00 
    1.1880153552031119E+00 
    1.1833545097968767E+00 
    1.4512969865936525E+00 
    1.4385203684593852E+00 
    1.4176950966252886E+00 
    1.3929448655565964E+00 
    1.3667398677904532E+00 
    1.3403997521899036E+00 
    1.3146350500772972E+00 
    1.2898812257229939E+00 
    1.2664748823770493E+00 
    1.2447363196261250E+00 
    1.2250051838555633E+00 
    1.2076461488262913E+00 
    1.1930300191568479E+00 
    1.1814870536886972E+00 
    1.1732171771863005E+00 
    1.1683305201188445E+00 
    1.4108417306489249E+00 
    1.4021176704498515E+00 
    1.3866304542979533E+00 
    1.3667398677906819E+00 
    1.3443130421782843E+00 
    1.3206379132797814E+00 
    1.2965834086785757E+00 
    1.2727733306094284E+00 
    1.2497127860701713E+00 
    1.2278659149294646E+00 
    1.2076994461204984E+00 
    1.1896978366236648E+00 
    1.1743489629222059E+00 
    1.1621007808596340E+00 
    1.1532618139259714E+00 
    1.1480149773191735E+00 
    1.3761590950665163E+00 
    1.3695073257071331E+00 
    1.3571285710328056E+00 
    1.3403997521903142E+00 
    1.3206379132799735E+00 
    1.2989235207844410E+00 
    1.2761049874889303E+00 
    1.2528678002539635E+00 
    1.2298091531278132E+00 
    1.2074965761219207E+00 
    1.1865091405860502E+00 
    1.1674554902091308E+00 
    1.1509633879154129E+00 
    1.1376342176056540E+00 
    1.1279242549033619E+00 
    1.1221225348681387E+00 
    1.3455024982376436E+00 
    1.3399739899215837E+00 
    1.3294047517321881E+00 
    1.3146350500778536E+00 
    1.2965834086789296E+00 
    1.2761049874891000E+00 
    1.2539530427043231E+00 
    1.2307982196306420E+00 
    1.2072707206379940E+00 
    1.1840027816285541E+00 
    1.1616674575273804E+00 
    1.1409999506880162E+00 
    1.1227938648093871E+00 
    1.1078486321962451E+00 
    1.0968300060130010E+00 
    1.0901910720519423E+00 
    1.3180010896768508E+00 
    1.3130849564526859E+00 
    1.3035330576525788E+00 
    1.2898812257236638E+00 
    1.2727733306099165E+00 
    1.2528678002542828E+00 
    1.2307982196308007E+00 
    1.2071766734185747E+00 
    1.1826216716071121E+00 
    1.1577939765964478E+00 
    1.1334384485251452E+00 
    1.1104166818908867E+00 
    1.0897155573066184E+00 
    1.0723949630390150E+00 
    1.0594286860080100E+00 
    1.0515311966503664E+00 
    1.2932471491389459E+00 
    1.2886423371700166E+00 
    1.2796016230556226E+00 
    1.2664748823776917E+00 
    1.2497127860706854E+00 
    1.2298091531282074E+00 
    1.2072707206382713E+00 
    1.1826216716072659E+00 
    1.1564299439467181E+00 
    1.1293453894543017E+00 
    1.1021525027156613E+00 
    1.0758281791659079E+00 
    1.0515780785826807E+00 
    1.0308078896886701E+00 
    1.0149490605380262E+00 
    1.0051451894339627E+00 
    1.2711025494992303E+00 
    1.2666201891076276E+00 
    1.2577564168781583E+00 
    1.2447363196266445E+00 
    1.2278659149299258E+00 
    1.2074965761223337E+00 
    1.1840027816289218E+00 
    1.1577939765967626E+00 
    1.1293453894545027E+00 
    1.0992436424817869E+00 
    1.0682585427165392E+00 
    1.0374429704453505E+00 
    1.0082286913955409E+00 
    9.8246499971805812E-01 
    9.6226653414548902E-01 
    9.4951677260228817E-01 
    1.2515940805800283E+00 
    1.2471131609915025E+00 
    1.2382059257858651E+00 
    1.2250051838559723E+00 
    1.2076994461209156E+00 
    1.1865091405864912E+00 
    1.1616674575278547E+00 
    1.1334384485256519E+00 
    1.1021525027161108E+00 
    1.0682585427167981E+00 
    1.0324173129923735E+00 
    9.9566029412106594E-01 
    9.5958848703927635E-01 
    9.2656366898149423E-01 
    8.9970943423972594E-01 
    8.8224338064630059E-01 
    1.2348456121905036E+00 
    1.2302926767964693E+00 
    1.2212065328579358E+00 
    1.2076461488266128E+00 
    1.1896978366240567E+00 
    1.1674554902096190E+00 
    1.1409999506886215E+00 
    1.1104166818916226E+00 
    1.0758281791666586E+00 
    1.0374429704459340E+00 
    9.9566029412140267E-01 
    9.5128868483513662E-01 
    9.0588763046929677E-01 
    8.6225161317095933E-01 
    8.2487313583684574E-01 
    7.9941678643680747E-01 
    1.2210224077070251E+00 
    1.2163619838742663E+00 
    1.2070326852052748E+00 
    1.1930300191571108E+00 
    1.1743489629225985E+00 
    1.1509633879159733E+00 
    1.1227938648101530E+00 
    1.0897155573076249E+00 
    1.0515780785837905E+00 
    1.0082286913965164E+00 
    9.5958848704003219E-01 
    9.0588763046973408E-01 
    8.4813292097378579E-01 
    7.8901376545170043E-01 
    7.3440299415173327E-01 
    6.9428299690432571E-01 
    1.2102787588038864E+00 
    1.2055055869955820E+00 
    1.1959277625122080E+00 
    1.1814870536889355E+00 
    1.1621007808600561E+00 
    1.1376342176063139E+00 
    1.1078486321972003E+00 
    1.0723949630403258E+00 
    1.0308078896901844E+00 
    9.8246499971948009E-01 
    9.2656366898273557E-01 
    8.6225161317192123E-01 
    7.8901376545225366E-01 
    7.0781329670704762E-01 
    6.2412940197368849E-01 
    5.5390573356928852E-01 
    1.2026671291985238E+00 
    1.1977994412960997E+00 
    1.1880153552032284E+00 
    1.1732171771865818E+00 
    1.1532618139264803E+00 
    1.1279242549041673E+00 
    1.0968300060141816E+00 
    1.0594286860096518E+00 
    1.0149490605399594E+00 
    9.6226653414735175E-01 
    8.9970943424142169E-01 
    8.2487313583826360E-01 
    7.3440299415271648E-01 
    6.2412940197402655E-01 
    4.9156882602382529E-01 
    3.4961817057951455E-01 
    1.1981984172393945E+00 
    1.1932701349941377E+00 
    1.1833545097970277E+00 
    1.1683305201191878E+00 
    1.1480149773197836E+00 
    1.1221225348690995E+00 
    1.0901910720533514E+00 
    1.0515311966523346E+00 
    1.0051451894363002E+00 
    9.4951677260456768E-01 
    8.8224338064841334E-01 
    7.9941678643862135E-01 
    6.9428299690562845E-01 
    5.5390573356969053E-01 
    3.4961817057904737E-01 
    0.0000000000000000E+00 

SCALARS Saturarion double 1 
LOOKUP_TABLE default 

    1.0000000000000000E+00 
    9.6770559949997936E-01 
    9.3768283899120941E-01 
    9.0440975210097752E-01 
    8.6950341052702063E-01 
    8.3435717548601074E-01 
    7.9943101232098945E-01 
    7.6490326804344477E-01 
    7.3048375805869858E-01 
    6.9586951697504829E-01 
    6.6015514529780273E-01 
    6.2207194124340071E-01 
    5.7875210943888089E-01 
    5.2468574301409843E-01 
    4.4118624562171360E-01 
    2.5531096475134829E-01 
    9.6770559950014490E-01 
    9.4494158344478663E-01 
    9.1744729422623894E-01 
    8.8698223394131381E-01 
    8.5480702930361896E-01 
    8.2213673456564706E-01 
    7.8938712081837803E-01 
    7.5679367474835657E-01 
    7.2408532948370774E-01 
    6.9095863716836137E-01 
    6.5654772595788247E-01 
    6.1962127853941928E-01 
    5.7734048342058808E-01 
    5.2408356357738362E-01 
    4.4123134842358813E-01 
    2.5580403647695571E-01 
    9.3768283899164484E-01 
    9.1744729422643601E-01 
    8.9260124097105775E-01 
    8.6513005489537720E-01 
    8.3604716296374992E-01 
    8.0629633543367452E-01 
    7.7625483236034665E-01 
    7.4616691503415689E-01 
    7.1577611262952967E-01 
    6.8466779842402914E-01 
    6.5204894198686458E-01 
    6.1670158978893042E-01 
    5.7587987539918517E-01 
    5.2368516860202563E-01 
    4.4176461676275208E-01 
    2.5733491685666626E-01 
    9.0440975210169472E-01 
    8.8698223394180009E-01 
    8.6513005489560668E-01 
    8.4079854855960756E-01 
    8.1497517074954895E-01 
    7.8842530579557313E-01 
    7.6145391596312895E-01 
    7.3417102361391517E-01 
    7.0638600361531834E-01 
    6.7763543444011387E-01 
    6.4717534364996387E-01 
    6.1364596619638945E-01 
    5.7460743907290135E-01 
    5.2355837439475683E-01 
    4.4292918667713954E-01 
    2.6016092546522634E-01 
    8.6950341052800229E-01 
    8.5480702930433672E-01 
    8.3604716296420767E-01 
    8.1497517074977355E-01 
    7.9248675301484539E-01 
    7.6920585274823838E-01 
    7.4538743780298000E-01 
    7.2117110616709312E-01 
    6.9626394204066666E-01 
    6.7028309750896187E-01 
    6.4232825575932517E-01 
    6.1115758133293507E-01 
    5.7390000508114936E-01 
    5.2503440652978706E-01 
    4.4604769588556370E-01 
    2.6591280698847125E-01 
    8.3435717548711230E-01 
    8.2213673456654168E-01 
    8.0629633543431067E-01 
    7.8842530579597525E-01 
    7.6920585274843423E-01 
    7.4925338558303911E-01 
    7.2864967169077688E-01 
    7.0756758822981780E-01 
    6.8563354360481610E-01 
    6.6253590078775726E-01 
    6.3730301780669352E-01 
    6.0865338733699559E-01 
    5.7369056722514489E-01 
    5.2690091982174903E-01 
    4.5008704046374709E-01 
    2.7354727139760232E-01 
    7.9943101232232849E-01 
    7.8938712081949136E-01 
    7.7625483236117965E-01 
    7.6145391596369749E-01 
    7.4538743780334393E-01 
    7.2864967169092731E-01 
    7.1125640574450921E-01 
    6.9337234274487169E-01 
    6.7457500871142395E-01 
    6.5448214853583264E-01 
    6.3216272681055197E-01 
    6.0628533577241517E-01 
    5.7402995397230083E-01 
    5.2960594638517056E-01 
    4.5544495055291490E-01 
    2.8344027920011505E-01 
    7.6490326804497710E-01 
    7.5679367474961778E-01 
    7.4616691503513244E-01 
    7.3417102361465203E-01 
    7.2117110616759805E-01 
    7.0756758823012300E-01 
    6.9337234274500437E-01 
    6.7866518448352342E-01 
    6.6308308885555345E-01 
    6.4615404954580336E-01 
    6.2696812361637810E-01 
    6.0409139191867312E-01 
    5.7493234348848876E-01 
    5.3322673955662825E-01 
    4.6235147361495160E-01 
    2.9579134353383246E-01 
    7.3048375805992538E-01 
    7.2408532948473614E-01 
    7.1577611263036189E-01 
    7.0638600361595361E-01 
    6.9626394204110531E-01 
    6.8563354360509432E-01 
    6.7457500871155585E-01 
    6.6308308885560097E-01 
    6.5083850577357416E-01 
    6.3728463983947770E-01 
    6.2152507345219354E-01 
    6.0213857616550148E-01 
    5.7636604376883760E-01 
    5.3848752493447871E-01 
    4.7176885658673479E-01 
    3.1176877140861969E-01 
    6.9586951697599575E-01 
    6.9095863716915029E-01 
    6.8466779842469083E-01 
    6.7763543444059582E-01 
    6.7028309750931969E-01 
    6.6253590078801894E-01 
    6.5448214853594056E-01 
    6.4615404954586320E-01 
    6.3728463983948946E-01 
    6.2727374142060321E-01 
    6.1521322661043376E-01 
    5.9969210891805502E-01 
    5.7797482843211967E-01 
    5.4442785980764707E-01 
    4.8299724619934242E-01 
    3.3077447482702982E-01 
    6.6015514529850572E-01 
    6.5654772595847177E-01 
    6.5204894198733998E-01 
    6.4717534365032314E-01 
    6.4232825575958452E-01 
    6.3730301780686194E-01 
    6.3216272681064178E-01 
    6.2696812361643062E-01 
    6.2152507345218277E-01 
    6.1521322661039890E-01 
    6.0716581095051392E-01 
    5.9600359793284186E-01 
    5.7906810667306852E-01 
    5.5080906406961150E-01 
    4.9608785669682776E-01 
    3.5337728788350964E-01 
    6.2207194124387455E-01 
    6.1962127853982152E-01 
    6.1670158978923828E-01 
    6.1364596619661171E-01 
    6.1115758133307774E-01 
    6.0865338733706542E-01 
    6.0628533577242794E-01 
    6.0409139191863481E-01 
    6.0213857616541211E-01 
    5.9969210891795277E-01 
    5.9600359793276869E-01 
    5.8976428863999442E-01 
    5.7842848294675331E-01 
    5.5669517885109021E-01 
    5.1046217540989813E-01 
    3.7964162527782475E-01 
    5.7875210943905575E-01 
    5.7734048342073063E-01 
    5.7587987539927410E-01 
    5.7460743907294143E-01 
    5.7390000508113237E-01 
    5.7369056722507750E-01 
    5.7402995397218548E-01 
    5.7493234348831490E-01 
    5.7636604376862866E-01 
    5.7797482843190773E-01 
    5.7906810667288600E-01 
    5.7842848294664573E-01 
    5.7374966526296189E-01 
    5.6016885531728133E-01 
    5.2491482441403758E-01 
    4.1039601946514570E-01 
    5.2468574301389426E-01 
    5.2408356357717523E-01 
    5.2368516860181435E-01 
    5.2355837439452035E-01 
    5.2503440652952393E-01 
    5.2690091982145237E-01 
    5.2960594638483294E-01 
    5.3322673955624533E-01 
    5.3848752493408591E-01 
    5.4442785980726804E-01 
    5.5080906406928454E-01 
    5.5669517885085462E-01 
    5.6016885531716765E-01 
    5.5685977583499324E-01 
    5.3569326201144007E-01 
    4.4402424402672341E-01 
    4.4118624562157310E-01 
    4.4123134842344008E-01 
    4.4176461676260514E-01 
    4.4292918667696923E-01 
    4.4604769588536075E-01 
    4.5008704046348680E-01 
    4.5544495055257733E-01 
    4.6235147361451895E-01 
    4.7176885658627316E-01 
    4.8299724619887480E-01 
    4.9608785669639988E-01 
    5.1046217540954875E-01 
    5.2491482441380899E-01 
    5.3569326201134293E-01 
    5.3358295796722233E-01 
    4.7517701426363890E-01 
    2.5531096475131271E-01 
    2.5580403647691335E-01 
    2.5733491685662280E-01 
    2.6016092546515812E-01 
    2.6591280698834074E-01 
    2.7354727139737006E-01 
    2.8344027919975101E-01 
    2.9579134353329833E-01 
    3.1176877140808096E-01 
    3.3077447482652111E-01 
    3.5337728788307093E-01 
    3.7964162527749667E-01 
    4.1039601946498705E-01 
    4.4402424402677221E-01 
    4.7517701426366382E-01 
    4.7441793727769399E-01 
