# vtk DataFile Version 2.0
Pressure Field Data 
ASCII 
DATASET UNSTRUCTURED_GRID 

POINTS 289 double 

    0.0000000000000000E+00     0.0000000000000000E+00     0.0000000000000000E+00 
    1.0000000000000000E+00     0.0000000000000000E+00     0.0000000000000000E+00 
    1.0000000000000000E+00     1.0000000000000000E+00     0.0000000000000000E+00 
    0.0000000000000000E+00     1.0000000000000000E+00     0.0000000000000000E+00 
    6.2499999999872928E-02     0.0000000000000000E+00     0.0000000000000000E+00 
    1.2499999999977310E-01     0.0000000000000000E+00     0.0000000000000000E+00 
    1.8749999999959341E-01     0.0000000000000000E+00     0.0000000000000000E+00 
    2.4999999999941089E-01     0.0000000000000000E+00     0.0000000000000000E+00 
    3.1249999999922851E-01     0.0000000000000000E+00     0.0000000000000000E+00 
    3.7499999999904610E-01     0.0000000000000000E+00     0.0000000000000000E+00 
    4.3749999999886358E-01     0.0000000000000000E+00     0.0000000000000000E+00 
    4.9999999999869210E-01     0.0000000000000000E+00     0.0000000000000000E+00 
    5.6249999999884603E-01     0.0000000000000000E+00     0.0000000000000000E+00 
    6.2499999999901090E-01     0.0000000000000000E+00     0.0000000000000000E+00 
    6.8749999999917577E-01     0.0000000000000000E+00     0.0000000000000000E+00 
    7.4999999999934064E-01     0.0000000000000000E+00     0.0000000000000000E+00 
    8.1249999999950551E-01     0.0000000000000000E+00     0.0000000000000000E+00 
    8.7499999999967026E-01     0.0000000000000000E+00     0.0000000000000000E+00 
    9.3749999999983513E-01     0.0000000000000000E+00     0.0000000000000000E+00 
    1.0000000000000000E+00     6.2499999999872928E-02     0.0000000000000000E+00 
    1.0000000000000000E+00     1.2499999999977310E-01     0.0000000000000000E+00 
    1.0000000000000000E+00     1.8749999999959341E-01     0.0000000000000000E+00 
    1.0000000000000000E+00     2.4999999999941089E-01     0.0000000000000000E+00 
    1.0000000000000000E+00     3.1249999999922851E-01     0.0000000000000000E+00 
    1.0000000000000000E+00     3.7499999999904610E-01     0.0000000000000000E+00 
    1.0000000000000000E+00     4.3749999999886358E-01     0.0000000000000000E+00 
    1.0000000000000000E+00     4.9999999999869210E-01     0.0000000000000000E+00 
    1.0000000000000000E+00     5.6249999999884603E-01     0.0000000000000000E+00 
    1.0000000000000000E+00     6.2499999999901090E-01     0.0000000000000000E+00 
    1.0000000000000000E+00     6.8749999999917577E-01     0.0000000000000000E+00 
    1.0000000000000000E+00     7.4999999999934064E-01     0.0000000000000000E+00 
    1.0000000000000000E+00     8.1249999999950551E-01     0.0000000000000000E+00 
    1.0000000000000000E+00     8.7499999999967026E-01     0.0000000000000000E+00 
    1.0000000000000000E+00     9.3749999999983513E-01     0.0000000000000000E+00 
    9.3749999999973976E-01     1.0000000000000000E+00     0.0000000000000000E+00 
    8.7499999999950118E-01     1.0000000000000000E+00     0.0000000000000000E+00 
    8.1249999999991318E-01     1.0000000000000000E+00     0.0000000000000000E+00 
    7.5000000000034706E-01     1.0000000000000000E+00     0.0000000000000000E+00 
    6.8750000000078049E-01     1.0000000000000000E+00     0.0000000000000000E+00 
    6.2500000000121403E-01     1.0000000000000000E+00     0.0000000000000000E+00 
    5.6250000000164757E-01     1.0000000000000000E+00     0.0000000000000000E+00 
    5.0000000000205946E-01     1.0000000000000000E+00     0.0000000000000000E+00 
    4.3750000000182099E-01     1.0000000000000000E+00     0.0000000000000000E+00 
    3.7500000000156092E-01     1.0000000000000000E+00     0.0000000000000000E+00 
    3.1250000000130068E-01     1.0000000000000000E+00     0.0000000000000000E+00 
    2.5000000000104050E-01     1.0000000000000000E+00     0.0000000000000000E+00 
    1.8750000000078040E-01     1.0000000000000000E+00     0.0000000000000000E+00 
    1.2500000000052031E-01     1.0000000000000000E+00     0.0000000000000000E+00 
    6.2500000000260125E-02     1.0000000000000000E+00     0.0000000000000000E+00 
    0.0000000000000000E+00     9.3749999999973976E-01     0.0000000000000000E+00 
    0.0000000000000000E+00     8.7499999999950118E-01     0.0000000000000000E+00 
    0.0000000000000000E+00     8.1249999999991318E-01     0.0000000000000000E+00 
    0.0000000000000000E+00     7.5000000000034706E-01     0.0000000000000000E+00 
    0.0000000000000000E+00     6.8750000000078049E-01     0.0000000000000000E+00 
    0.0000000000000000E+00     6.2500000000121403E-01     0.0000000000000000E+00 
    0.0000000000000000E+00     5.6250000000164757E-01     0.0000000000000000E+00 
    0.0000000000000000E+00     5.0000000000205946E-01     0.0000000000000000E+00 
    0.0000000000000000E+00     4.3750000000182099E-01     0.0000000000000000E+00 
    0.0000000000000000E+00     3.7500000000156092E-01     0.0000000000000000E+00 
    0.0000000000000000E+00     3.1250000000130068E-01     0.0000000000000000E+00 
    0.0000000000000000E+00     2.5000000000104050E-01     0.0000000000000000E+00 
    0.0000000000000000E+00     1.8750000000078040E-01     0.0000000000000000E+00 
    0.0000000000000000E+00     1.2500000000052031E-01     0.0000000000000000E+00 
    0.0000000000000000E+00     6.2500000000260125E-02     0.0000000000000000E+00 
    6.2499999999897131E-02     6.2500000000235922E-02     0.0000000000000000E+00 
    6.2499999999921327E-02     1.2500000000047351E-01     0.0000000000000000E+00 
    6.2499999999945530E-02     1.8750000000070621E-01     0.0000000000000000E+00 
    6.2499999999969733E-02     2.5000000000093858E-01     0.0000000000000000E+00 
    6.2499999999993928E-02     3.1250000000117117E-01     0.0000000000000000E+00 
    6.2500000000018124E-02     3.7500000000140382E-01     0.0000000000000000E+00 
    6.2500000000042327E-02     4.3750000000163619E-01     0.0000000000000000E+00 
    6.2500000000066530E-02     5.0000000000184897E-01     0.0000000000000000E+00 
    6.2500000000090733E-02     5.6250000000147260E-01     0.0000000000000000E+00 
    6.2500000000114922E-02     6.2500000000107636E-01     0.0000000000000000E+00 
    6.2500000000139125E-02     6.8750000000068034E-01     0.0000000000000000E+00 
    6.2500000000163328E-02     7.5000000000028411E-01     0.0000000000000000E+00 
    6.2500000000187531E-02     8.1249999999988787E-01     0.0000000000000000E+00 
    6.2500000000211720E-02     8.7499999999951172E-01     0.0000000000000000E+00 
    6.2500000000235922E-02     9.3749999999974565E-01     0.0000000000000000E+00 
    1.2499999999981980E-01     6.2500000000211733E-02     0.0000000000000000E+00 
    1.2499999999986650E-01     1.2500000000042691E-01     0.0000000000000000E+00 
    1.2499999999991319E-01     1.8750000000063199E-01     0.0000000000000000E+00 
    1.2499999999995989E-01     2.5000000000083678E-01     0.0000000000000000E+00 
    1.2500000000000661E-01     3.1250000000104172E-01     0.0000000000000000E+00 
    1.2500000000005329E-01     3.7500000000124661E-01     0.0000000000000000E+00 
    1.2500000000010000E-01     4.3750000000145117E-01     0.0000000000000000E+00 
    1.2500000000014669E-01     5.0000000000163858E-01     0.0000000000000000E+00 
    1.2500000000019340E-01     5.6250000000129741E-01     0.0000000000000000E+00 
    1.2500000000024011E-01     6.2500000000093847E-01     0.0000000000000000E+00 
    1.2500000000028680E-01     6.8750000000057998E-01     0.0000000000000000E+00 
    1.2500000000033351E-01     7.5000000000022127E-01     0.0000000000000000E+00 
    1.2500000000038020E-01     8.1249999999986211E-01     0.0000000000000000E+00 
    1.2500000000042691E-01     8.7499999999952238E-01     0.0000000000000000E+00 
    1.2500000000047359E-01     9.3749999999975164E-01     0.0000000000000000E+00 
    1.8749999999966760E-01     6.2500000000187531E-02     0.0000000000000000E+00 
    1.8749999999974179E-01     1.2500000000038020E-01     0.0000000000000000E+00 
    1.8749999999981601E-01     1.8750000000055780E-01     0.0000000000000000E+00 
    1.8749999999989009E-01     2.5000000000073502E-01     0.0000000000000000E+00 
    1.8749999999996431E-01     3.1250000000091221E-01     0.0000000000000000E+00 
    1.8750000000003850E-01     3.7500000000108941E-01     0.0000000000000000E+00 
    1.8750000000011269E-01     4.3750000000126649E-01     0.0000000000000000E+00 
    1.8750000000018691E-01     5.0000000000142808E-01     0.0000000000000000E+00 
    1.8750000000026110E-01     5.6250000000112244E-01     0.0000000000000000E+00 
    1.8750000000033529E-01     6.2500000000080080E-01     0.0000000000000000E+00 
    1.8750000000040951E-01     6.8750000000047962E-01     0.0000000000000000E+00 
    1.8750000000048361E-01     7.5000000000015843E-01     0.0000000000000000E+00 
    1.8750000000055780E-01     8.1249999999983680E-01     0.0000000000000000E+00 
    1.8750000000063199E-01     8.7499999999953304E-01     0.0000000000000000E+00 
    1.8750000000070621E-01     9.3749999999975764E-01     0.0000000000000000E+00 
    2.4999999999951281E-01     6.2500000000163314E-02     0.0000000000000000E+00 
    2.4999999999961461E-01     1.2500000000033351E-01     0.0000000000000000E+00 
    2.4999999999971650E-01     1.8750000000048361E-01     0.0000000000000000E+00 
    2.4999999999981831E-01     2.5000000000063310E-01     0.0000000000000000E+00 
    2.4999999999992020E-01     3.1250000000078260E-01     0.0000000000000000E+00 
    2.5000000000002198E-01     3.7500000000093209E-01     0.0000000000000000E+00 
    2.5000000000012390E-01     4.3750000000108180E-01     0.0000000000000000E+00 
    2.5000000000022571E-01     5.0000000000121769E-01     0.0000000000000000E+00 
    2.5000000000032763E-01     5.6250000000094724E-01     0.0000000000000000E+00 
    2.5000000000042938E-01     6.2500000000066314E-01     0.0000000000000000E+00 
    2.5000000000053119E-01     6.8750000000037925E-01     0.0000000000000000E+00 
[...]
CELL_DATA 256 
SCALARS Pressure double 1 
LOOKUP_TABLE default 

    1.9051184271697650E+00 
    1.7992230725417613E+00 
    1.7301930706447630E+00 
    1.6784087102722161E+00 
    1.6358481355906760E+00 
    1.5989574978061578E+00 
    1.5660431753998145E+00 
    1.5362848024451961E+00 
    1.5093253737728671E+00 
    1.4850781466503737E+00 
    1.4636196499858263E+00 
    1.4451139471185961E+00 
    1.4297366448559006E+00 
    1.4175870124932424E+00 
    1.4085746279779678E+00 
    1.4033175691921673E+00 
    1.7992230725423237E+00 
    1.7550893168693911E+00 
    1.7079382104799945E+00 
    1.6650397584442354E+00 
    1.6265949153548314E+00 
    1.5918094685697448E+00 
    1.5600309394767811E+00 
    1.5308827798755684E+00 
    1.5042218360813664E+00 
    1.4800767195395486E+00 
    1.4585948918391924E+00 
    1.4399915723746941E+00 
    1.4244844249588249E+00 
    1.4122052130035589E+00 
    1.4030847271283005E+00 
    1.3977624728086877E+00 
    1.7301930706455557E+00 
    1.7079382104803753E+00 
    1.6765924356472253E+00 
    1.6430861767482128E+00 
    1.6100767851868469E+00 
    1.5784528191500906E+00 
    1.5485022029340940E+00 
    1.5203627314199104E+00 
    1.4941836109368556E+00 
    1.4701710972012565E+00 
    1.4485925688017303E+00 
    1.4297553213854330E+00 
    1.4139565714526270E+00 
    1.4013927962864663E+00 
    1.3920418949950735E+00 
    1.3865843439606698E+00 
    1.6784087102731684E+00 
    1.6650397584448742E+00 
    1.6430861767485143E+00 
    1.6167909770564108E+00 
    1.5887317646209738E+00 
    1.5603169256897296E+00 
    1.5323329126332543E+00 
    1.5052841072612317E+00 
    1.4795741456343610E+00 
    1.4555905681783676E+00 
    1.4337404435078389E+00 
    1.4144499667592065E+00 
    1.3981250659114000E+00 
    1.3850607462463760E+00 
    1.3753188661200118E+00 
    1.3696382789465689E+00 
    1.6358481355917562E+00 
    1.6265949153556520E+00 
    1.6100767851873745E+00 
    1.5887317646212193E+00 
    1.5645116488160233E+00 
    1.5387836973610947E+00 
    1.5124903075518377E+00 
    1.4863258948284284E+00 
    1.4608669797622367E+00 
    1.4366520387800381E+00 
    1.4142254026414234E+00 
    1.3941468682315579E+00 
    1.3769560987587464E+00 
    1.3630850064691094E+00 
    1.3527202738875488E+00 
    1.3466783302657188E+00 
    1.5989574978073484E+00 
    1.5918094685707045E+00 
    1.5784528191507921E+00 
    1.5603169256901730E+00 
    1.5387836973613036E+00 
    1.5150008945297044E+00 
    1.4898844152926884E+00 
    1.4641889857336159E+00 
    1.4385857035602549E+00 
    1.4137228169742722E+00 
    1.3902680345316387E+00 
    1.3689217811427483E+00 
    1.3503861305290459E+00 
    1.3352733222185884E+00 
    1.3239385651904900E+00 
    1.3173126564532656E+00 
    1.5660431754011006E+00 
    1.5600309394778522E+00 
    1.5485022029349313E+00 
    1.5323329126338585E+00 
    1.5124903075522236E+00 
    1.4898844152928741E+00 
    1.4653277390790556E+00 
    1.4395559276627572E+00 
    1.4132731624563475E+00 
    1.3871972245240491E+00 
    1.3621008189592168E+00 
    1.3388296836801783E+00 
    1.3182806654002022E+00 
    1.3012993935704222E+00 
    1.2884806991463111E+00 
    1.2809416452389619E+00 
    1.5362848024465523E+00 
    1.5308827798767213E+00 
    1.5203627314208503E+00 
    1.5052841072619636E+00 
    1.4863258948289635E+00 
    1.4641889857339669E+00 
    1.4395559276629333E+00 
    1.4130965337942012E+00 
    1.3855000159960276E+00 
    1.3575146421409034E+00 
    1.3299942676612388E+00 
    1.3039311768062145E+00 
    1.2804497401502923E+00 
    1.2607023723396549E+00 
    1.2456376024715377E+00 
    1.2366791922348774E+00 
    1.5093253737740404E+00 
    1.5042218360823789E+00 
    1.4941836109377096E+00 
    1.4795741456350655E+00 
    1.4608669797628027E+00 
    1.4385857035606910E+00 
    1.4132731624566572E+00 
    1.3855000159962010E+00 
    1.3558968753803027E+00 
    1.3251981413164466E+00 
    1.2943022429139399E+00 
    1.2643355625184414E+00 
    1.2366793568647643E+00 
    1.2128920067618458E+00 
    1.1944426349323545E+00 
    1.1832619896822225E+00 
    1.4850781466512148E+00 
    1.4800767195402869E+00 
    1.4701710972019038E+00 
    1.4555905681789401E+00 
    1.4366520387805484E+00 
    1.4137228169747322E+00 
    1.3871972245244624E+00 
    1.3575146421412609E+00 
    1.3251981413166760E+00 
    1.2909076987736210E+00 
    1.2555230660622869E+00 
    1.2202584356019921E+00 
    1.1867597527437037E+00 
    1.1571031026133123E+00 
    1.1335268530642488E+00 
    1.1188309691418081E+00 
    1.4636196499863758E+00 
    1.4585948918396878E+00 
    1.4485925688021923E+00 
    1.4337404435082934E+00 
    1.4142254026418892E+00 
    1.3902680345321345E+00 
    1.3621008189597539E+00 
    1.3299942676618159E+00 
    1.2943022429144526E+00 
    1.2555230660625838E+00 
    1.2144071390955762E+00 
    1.1721420393295754E+00 
    1.1305706365404360E+00 
    1.0923634020563502E+00 
    1.0608950931044743E+00 
    1.0405165729684358E+00 
    1.4451139471189018E+00 
    1.4399915723749859E+00 
    1.4297553213857410E+00 
    1.4144499667595662E+00 
    1.3941468682319997E+00 
    1.3689217811433005E+00 
    1.3388296836808669E+00 
    1.3039311768070556E+00 
    1.2643355625193027E+00 
    1.2202584356026633E+00 
    1.1721420393299640E+00 
    1.1209113184412727E+00 
    1.0683585096263835E+00 
    1.0176520896108563E+00 
    9.7371020124582530E-01 
    9.4369001646304762E-01 
    1.4297366448560129E+00 
    1.4244844249589570E+00 
    1.4139565714528177E+00 
    1.3981250659116957E+00 
    1.3769560987591904E+00 
    1.3503861305296827E+00 
    1.3182806654010757E+00 
    1.2804497401514445E+00 
    1.2366793568660399E+00 
    1.1867597527448288E+00 
    1.1305706365413104E+00 
    1.0683585096268911E+00 
    1.0012680884769893E+00 
    9.3233753562068267E-01 
    8.6802885866834212E-01 
    8.2038328047451581E-01 
    1.4175870124932188E+00 
    1.4122052130035807E+00 
    1.4013927962865806E+00 
    1.3850607462466433E+00 
    1.3630850064695876E+00 
    1.3352733222193387E+00 
    1.3012993935715127E+00 
    1.2607023723411588E+00 
    1.2128920067635898E+00 
    1.1571031026149554E+00 
    1.0923634020577893E+00 
    1.0176520896119752E+00 
    9.3233753562132782E-01 
    8.3744008771287581E-01 
    7.3888675221486377E-01 
    6.5531700815349203E-01 
    1.4085746279779259E+00 
    1.4030847271283158E+00 
    1.3920418949952029E+00 
    1.3753188661203286E+00 
    1.3527202738881248E+00 
    1.3239385651914055E+00 
    1.2884806991476596E+00 
    1.2456376024734237E+00 
    1.1944426349345849E+00 
    1.1335268530664051E+00 
    1.0608950931064440E+00 
    9.7371020124747643E-01 
    8.6802885866948920E-01 
    7.3888675221525812E-01 
    5.8285863673299221E-01 
    4.1435400018567509E-01 
    1.4033175691921409E+00 
    1.3977624728087255E+00 
    1.3865843439608394E+00 
    1.3696382789469561E+00 
    1.3466783302664096E+00 
    1.3173126564543576E+00 
    1.2809416452405715E+00 
    1.2366791922371398E+00 
    1.1832619896849217E+00 
    1.1188309691444525E+00 
    1.0405165729708958E+00 
    9.4369001646516559E-01 
    8.2038328047604003E-01 
    6.5531700815396066E-01 
    4.1435400018511553E-01 
    0.0000000000000000E+00 

SCALARS Saturarion double 1 
LOOKUP_TABLE default 

    1.0000000000000000E+00 
    9.5974964376012506E-01 
    9.2362251644465576E-01 
    8.8474285440048384E-01 
    8.4495414518896761E-01 
    8.0572545836423370E-01 
    7.6737274879437301E-01 
    7.2993794588066774E-01 
    6.9295779070969765E-01 
    6.5599369001682384E-01 
    6.1789568877334022E-01 
    5.7697763444525552E-01 
    5.2911777960495643E-01 
    4.6546908550577004E-01 
    3.5623588525619609E-01 
    1.2773792612894516E-01 
    9.5974964376033201E-01 
    9.3220490879357565E-01 
    8.9974406259311690E-01 
    8.6464356949401588E-01 
    8.2833423081178847E-01 
    7.9212871428085441E-01 
    7.5634406117675246E-01 
    7.2112593240019673E-01 
    6.8605698949496119E-01 
    6.5071442803683799E-01 
    6.1400623953948430E-01 
    5.7429763325180005E-01 
    5.2749536955163312E-01 
    4.6457895942683597E-01 
    3.5569274047849242E-01 
    1.2686471071668384E-01 
    9.2362251644519011E-01 
    8.9974406259337247E-01 
    8.7097427585379650E-01 
    8.3980208411403789E-01 
    8.0735681509576751E-01 
    7.7465689183965336E-01 
    7.4202059884865601E-01 
    7.0963791161989354E-01 
    6.7713370863497080E-01 
    6.4397461072184958E-01 
    6.0916908324120189E-01 
    5.7110960872575689E-01 
    5.2582183251704762E-01 
    4.6390213767096383E-01 
    3.5570443362250498E-01 
    1.2706906683864905E-01 
    8.8474285440128975E-01 
    8.6464356949456889E-01 
    8.3980208411428248E-01 
    8.1258621534343056E-01 
    7.8409723809967458E-01 
    7.5515520584368434E-01 
    7.2602691934343311E-01 
    6.9677085381417259E-01 
    6.6711481728003474E-01 
    6.3648499996342101E-01 
    6.0396455064677701E-01 
    5.6778864822770170E-01 
    5.2437797930083807E-01 
    4.6350941030908699E-01 
    3.5646442420337265E-01 
    1.2872312344916939E-01 
    8.4495414518998957E-01 
    8.2833423081255486E-01 
    8.0735681509626323E-01 
    7.8409723809990939E-01 
    7.5954562981013507E-01 
    7.3436014674325445E-01 
    7.0877238151593180E-01 
    6.8289711112374751E-01 
    6.5636235871014348E-01 
    6.2870715181375625E-01 
    5.9884893162739594E-01 
    5.6518409503439959E-01 
    5.2362411049641056E-01 
    4.6525478150812666E-01 
    3.6008486898329639E-01 
    1.3618202946136862E-01 
    8.0572545836545861E-01 
    7.9212871428182441E-01 
    7.7465689184035480E-01 
    7.5515520584411466E-01 
    7.3436014674346639E-01 
    7.1292624043882802E-01 
    6.9089520357466494E-01 
    6.6843568545030918E-01 
    6.4509708341856720E-01 
    6.2051589729004586E-01 
    5.9354354961474887E-01 
    5.6255425389722857E-01 
    5.2346380074470800E-01 
    4.6743895155269632E-01 
    3.6497680567156010E-01 
    1.4608918993222794E-01 
    7.6737274879582795E-01 
    7.5634406117789255E-01 
    7.4202059884952642E-01 
    7.2602691934404440E-01 
    7.0877238151630417E-01 
    6.9089520357482626E-01 
    6.7237080564604190E-01 
    6.5336755419087778E-01 
    6.3338876629714502E-01 
    6.1199979890464473E-01 
    5.8811427268840566E-01 
    5.6007506148707931E-01 
    5.2395157829453420E-01 
    4.7065469778246471E-01 
    3.7167964198635056E-01 
    1.5928229982805697E-01 
    7.2993794588230643E-01 
    7.2112593240154765E-01 
    7.0963791162094858E-01 
    6.9677085381495285E-01 
    6.8289711112427076E-01 
    6.6843568545062992E-01 
    6.5336755419101888E-01 
    6.3776980239586090E-01 
    6.2122243190476212E-01 
    6.0319378516852329E-01 
    5.8263495495359241E-01 
    5.5779483145784359E-01 
    5.2510733893716666E-01 
    4.7499988235372509E-01 
    3.8049576591993017E-01 
    1.7639379749305104E-01 
    6.9295779071097874E-01 
    6.8605698949607508E-01 
    6.7713370863585032E-01 
    6.6711481728068078E-01 
    6.5636235871059434E-01 
    6.4509708341886063E-01 
    6.3338876629729046E-01 
    6.2122243190481385E-01 
    6.0823523575083105E-01 
    5.9380209938699224E-01 
    5.7690206342429085E-01 
    5.5583166831713404E-01 
    5.2691101710843424E-01 
    4.8149864420578259E-01 
    3.9285298738772695E-01 
    1.9936446323091728E-01 
    6.5599369001783459E-01 
    6.5071442803767965E-01 
    6.4397461072255380E-01 
    6.3648499996396235E-01 
    6.2870715181414494E-01 
    6.2051589729031875E-01 
    6.1199979890479128E-01 
    6.0319378516858546E-01 
    5.9380209938700113E-01 
    5.8315018949757313E-01 
    5.7021351010036736E-01 
    5.5333113117897714E-01 
    5.2896195417063452E-01 
    4.8884681178163419E-01 
    4.0765063450909339E-01 
    2.2624905945991899E-01 
    6.1789568877410128E-01 
    6.1400623954011158E-01 
    6.0916908324171992E-01 
    6.0396455064716492E-01 
    5.9884893162767772E-01 
    5.9354354961492739E-01 
    5.8811427268849992E-01 
    5.8263495495363038E-01 
    5.7690206342428130E-01 
    5.7021351010033783E-01 
    5.6159914897532637E-01 
    5.4946301640730855E-01 
    5.3047057967699551E-01 
    4.9678880641123457E-01 
    4.2494493984710807E-01 
    2.5714079885730384E-01 
    5.7697763444574424E-01 
    5.7429763325221450E-01 
    5.7110960872607830E-01 
    5.6778864822793984E-01 
    5.6518409503454681E-01 
    5.6255425389729286E-01 
    5.6007506148708130E-01 
    5.5779483145779230E-01 
    5.5583166831703867E-01 
    5.5333113117886734E-01 
    5.4946301640723316E-01 
    5.4273238275262858E-01 
    5.3003774304454543E-01 
    5.0420171501769817E-01 
    4.4391067027691294E-01 
    2.9156893190415450E-01 
    5.2911777960512640E-01 
    5.2749536955174403E-01 
    5.2582183251712067E-01 
    5.2437797930086116E-01 
    5.2362411049637536E-01 
    5.2346380074460552E-01 
    5.2395157829436845E-01 
    5.2510733893695460E-01 
    5.2691101710818622E-01 
    5.2896195417038694E-01 
    5.3047057967679079E-01 
    5.3003774304442686E-01 
    5.2491275315142594E-01 
    5.0879020783493178E-01 
    4.6305419097990957E-01 
    3.3039997394464266E-01 
    4.6546908550548699E-01 
    4.6457895942654609E-01 
    4.6390213767067129E-01 
    4.6350941030877263E-01 
    4.6525478150778848E-01 
    4.6743895155231219E-01 
    4.7065469778203783E-01 
    4.7499988235324347E-01 
    4.8149864420529093E-01 
    4.8884681178116723E-01 
    4.9678880641084694E-01 
    5.0420171501742139E-01 
    5.0879020783479889E-01 
    5.0504407767128312E-01 
    4.7752471683163006E-01 
    3.7135928329922152E-01 
    3.5623588525604227E-01 
    3.5569274047833210E-01 
    3.5570443362234078E-01 
    3.5646442420318242E-01 
    3.6008486898306002E-01 
    3.6497680567125035E-01 
    3.7167964198593695E-01 
    3.8049576591937645E-01 
    3.9285298738713187E-01 
    4.0765063450850003E-01 
    4.2494493984656490E-01 
    4.4391067027647424E-01 
    4.6305419097962724E-01 
    4.7752471683151299E-01 
    4.7500011484666432E-01 
    4.0790407300569248E-01 
    1.2773792612892856E-01 
    1.2686471071665256E-01 
    1.2706906683861055E-01 
    1.2872312344908649E-01 
    1.3618202946119976E-01 
    1.4608918993188555E-01 
    1.5928229982748476E-01 
    1.7639379749219733E-01 
    1.9936446323005441E-01 
    2.2624905945912002E-01 
    2.5714079885663765E-01 
    2.9156893190367023E-01 
    3.3039997394439941E-01 
    3.7135928329924478E-01 
    4.0790407300569892E-01 
    4.0704397220056832E-01 
