# vtk DataFile Version 2.0
Pressure Field Data 
ASCII 
DATASET UNSTRUCTURED_GRID 

POINTS 289 double 

    0.0000000000000000E+00     0.0000000000000000E+00     0.0000000000000000E+00 
    1.0000000000000000E+00     0.0000000000000000E+00     0.0000000000000000E+00 
    1.0000000000000000E+00     1.0000000000000000E+00     0.0000000000000000E+00 
    0.0000000000000000E+00     1.0000000000000000E+00     0.0000000000000000E+00 
    6.2499999999872928E-02     0.0000000000000000E+00     0.0000000000000000E+00 
    1.2499999999977310E-01     0.0000000000000000E+00     0.0000000000000000E+00 
    1.8749999999959341E-01     0.0000000000000000E+00     0.0000000000000000E+00 
    2.4999999999941089E-01     0.0000000000000000E+00     0.0000000000000000E+00 
    3.1249999999922851E-01     0.0000000000000000E+00     0.0000000000000000E+00 
    3.7499999999904610E-01     0.0000000000000000E+00     0.0000000000000000E+00 
    4.3749999999886358E-01     0.0000000000000000E+00     0.0000000000000000E+00 
    4.9999999999869210E-01     0.0000000000000000E+00     0.0000000000000000E+00 
    5.6249999999884603E-01     0.0000000000000000E+00     0.0000000000000000E+00 
    6.2499999999901090E-01     0.0000000000000000E+00     0.0000000000000000E+00 
    6.8749999999917577E-01     0.0000000000000000E+00     0.0000000000000000E+00 
    7.4999999999934064E-01     0.0000000000000000E+00     0.0000000000000000E+00 
    8.1249999999950551E-01     0.0000000000000000E+00     0.0000000000000000E+00 
    8.7499999999967026E-01     0.0000000000000000E+00     0.0000000000000000E+00 
    9.3749999999983513E-01     0.0000000000000000E+00     0.0000000000000000E+00 
    1.0000000000000000E+00     6.2499999999872928E-02     0.0000000000000000E+00 
    1.0000000000000000E+00     1.2499999999977310E-01     0.0000000000000000E+00 
    1.0000000000000000E+00     1.8749999999959341E-01     0.0000000000000000E+00 
    1.0000000000000000E+00     2.4999999999941089E-01     0.0000000000000000E+00 
    1.0000000000000000E+00     3.1249999999922851E-01     0.0000000000000000E+00 
    1.0000000000000000E+00     3.7499999999904610E-01     0.0000000000000000E+00 
    1.0000000000000000E+00     4.3749999999886358E-01     0.0000000000000000E+00 
    1.0000000000000000E+00     4.9999999999869210E-01     0.0000000000000000E+00 
    1.0000000000000000E+00     5.6249999999884603E-01     0.0000000000000000E+00 
    1.0000000000000000E+00     6.2499999999901090E-01     0.0000000000000000E+00 
    1.0000000000000000E+00     6.8749999999917577E-01     0.0000000000000000E+00 
    1.0000000000000000E+00     7.4999999999934064E-01     0.0000000000000000E+00 
    1.0000000000000000E+00     8.1249999999950551E-01     0.0000000000000000E+00 
    1.0000000000000000E+00     8.7499999999967026E-01     0.0000000000000000E+00 
    1.0000000000000000E+00     9.3749999999983513E-01     0.0000000000000000E+00 
    9.3749999999973976E-01     1.0000000000000000E+00     0.0000000000000000E+00 
    8.7499999999950118E-01     1.0000000000000000E+00     0.0000000000000000E+00 
    8.1249999999991318E-01     1.0000000000000000E+00     0.0000000000000000E+00 
    7.5000000000034706E-01     1.0000000000000000E+00     0.0000000000000000E+00 
    6.8750000000078049E-01     1.0000000000000000E+00     0.0000000000000000E+00 
    6.2500000000121403E-01     1.0000000000000000E+00     0.0000000000000000E+00 
    5.6250000000164757E-01     1.0000000000000000E+00     0.0000000000000000E+00 
    5.0000000000205946E-01     1.0000000000000000E+00     0.0000000000000000E+00 
    4.3750000000182099E-01     1.0000000000000000E+00     0.0000000000000000E+00 
    3.7500000000156092E-01     1.0000000000000000E+00     0.0000000000000000E+00 
    3.1250000000130068E-01     1.0000000000000000E+00     0.0000000000000000E+00 
    2.5000000000104050E-01     1.0000000000000000E+00     0.0000000000000000E+00 
    1.8750000000078040E-01     1.0000000000000000E+00     0.0000000000000000E+00 
    1.2500000000052031E-01     1.0000000000000000E+00     0.0000000000000000E+00 
    6.2500000000260125E-02     1.0000000000000000E+00     0.0000000000000000E+00 
    0.0000000000000000E+00     9.3749999999973976E-01     0.0000000000000000E+00 
    0.0000000000000000E+00     8.7499999999950118E-01     0.0000000000000000E+00 
    0.0000000000000000E+00     8.1249999999991318E-01     0.0000000000000000E+00 
    0.0000000000000000E+00     7.5000000000034706E-01     0.0000000000000000E+00 
    0.0000000000000000E+00     6.8750000000078049E-01     0.0000000000000000E+00 
    0.0000000000000000E+00     6.2500000000121403E-01     0.0000000000000000E+00 
    0.0000000000000000E+00     5.6250000000164757E-01     0.0000000000000000E+00 
    0.0000000000000000E+00     5.0000000000205946E-01     0.0000000000000000E+00 
    0.0000000000000000E+00     4.3750000000182099E-01     0.0000000000000000E+00 
    0.0000000000000000E+00     3.7500000000156092E-01     0.0000000000000000E+00 
    0.0000000000000000E+00     3.1250000000130068E-01     0.0000000000000000E+00 
    0.0000000000000000E+00     2.5000000000104050E-01     0.0000000000000000E+00 
    0.0000000000000000E+00     1.8750000000078040E-01     0.0000000000000000E+00 
    0.0000000000000000E+00     1.2500000000052031E-01     0.0000000000000000E+00 
    0.0000000000000000E+00     6.2500000000260125E-02     0.0000000000000000E+00 
    6.2499999999897131E-02     6.2500000000235922E-02     0.0000000000000000E+00 
    6.2499999999921327E-02     1.2500000000047351E-01     0.0000000000000000E+00 
    6.2499999999945530E-02     1.8750000000070621E-01     0.0000000000000000E+00 
    6.2499999999969733E-02     2.5000000000093858E-01     0.0000000000000000E+00 
    6.2499999999993928E-02     3.1250000000117117E-01     0.0000000000000000E+00 
    6.2500000000018124E-02     3.7500000000140382E-01     0.0000000000000000E+00 
    6.2500000000042327E-02     4.3750000000163619E-01     0.0000000000000000E+00 
    6.2500000000066530E-02     5.0000000000184897E-01     0.0000000000000000E+00 
    6.2500000000090733E-02     5.6250000000147260E-01     0.0000000000000000E+00 
    6.2500000000114922E-02     6.2500000000107636E-01     0.0000000000000000E+00 
    6.2500000000139125E-02     6.8750000000068034E-01     0.0000000000000000E+00 
    6.2500000000163328E-02     7.5000000000028411E-01     0.0000000000000000E+00 
    6.2500000000187531E-02     8.1249999999988787E-01     0.0000000000000000E+00 
    6.2500000000211720E-02     8.7499999999951172E-01     0.0000000000000000E+00 
    6.2500000000235922E-02     9.3749999999974565E-01     0.0000000000000000E+00 
    1.2499999999981980E-01     6.2500000000211733E-02     0.0000000000000000E+00 
    1.2499999999986650E-01     1.2500000000042691E-01     0.0000000000000000E+00 
    1.2499999999991319E-01     1.8750000000063199E-01     0.0000000000000000E+00 
    1.2499999999995989E-01     2.5000000000083678E-01     0.0000000000000000E+00 
    1.2500000000000661E-01     3.1250000000104172E-01     0.0000000000000000E+00 
    1.2500000000005329E-01     3.7500000000124661E-01     0.0000000000000000E+00 
    1.2500000000010000E-01     4.3750000000145117E-01     0.0000000000000000E+00 
    1.2500000000014669E-01     5.0000000000163858E-01     0.0000000000000000E+00 
    1.2500000000019340E-01     5.6250000000129741E-01     0.0000000000000000E+00 
    1.2500000000024011E-01     6.2500000000093847E-01     0.0000000000000000E+00 
    1.2500000000028680E-01     6.8750000000057998E-01     0.0000000000000000E+00 
    1.2500000000033351E-01     7.5000000000022127E-01     0.0000000000000000E+00 
    1.2500000000038020E-01     8.1249999999986211E-01     0.0000000000000000E+00 
    1.2500000000042691E-01     8.7499999999952238E-01     0.0000000000000000E+00 
    1.2500000000047359E-01     9.3749999999975164E-01     0.0000000000000000E+00 
    1.8749999999966760E-01     6.2500000000187531E-02     0.0000000000000000E+00 
    1.8749999999974179E-01     1.2500000000038020E-01     0.0000000000000000E+00 
    1.8749999999981601E-01     1.8750000000055780E-01     0.0000000000000000E+00 
    1.8749999999989009E-01     2.5000000000073502E-01     0.0000000000000000E+00 
    1.8749999999996431E-01     3.1250000000091221E-01     0.0000000000000000E+00 
    1.8750000000003850E-01     3.7500000000108941E-01     0.0000000000000000E+00 
    1.8750000000011269E-01     4.3750000000126649E-01     0.0000000000000000E+00 
    1.8750000000018691E-01     5.0000000000142808E-01     0.0000000000000000E+00 
    1.8750000000026110E-01     5.6250000000112244E-01     0.0000000000000000E+00 
    1.8750000000033529E-01     6.2500000000080080E-01     0.0000000000000000E+00 
    1.8750000000040951E-01     6.8750000000047962E-01     0.0000000000000000E+00 
    1.8750000000048361E-01     7.5000000000015843E-01     0.0000000000000000E+00 
    1.8750000000055780E-01     8.1249999999983680E-01     0.0000000000000000E+00 
    1.8750000000063199E-01     8.7499999999953304E-01     0.0000000000000000E+00 
    1.8750000000070621E-01     9.3749999999975764E-01     0.0000000000000000E+00 
    2.4999999999951281E-01     6.2500000000163314E-02     0.0000000000000000E+00 
    2.4999999999961461E-01     1.2500000000033351E-01     0.0000000000000000E+00 
    2.4999999999971650E-01     1.8750000000048361E-01     0.0000000000000000E+00 
    2.4999999999981831E-01     2.5000000000063310E-01     0.0000000000000000E+00 
    2.4999999999992020E-01     3.1250000000078260E-01     0.0000000000000000E+00 
    2.5000000000002198E-01     3.7500000000093209E-01     0.0000000000000000E+00 
    2.5000000000012390E-01     4.3750000000108180E-01     0.0000000000000000E+00 
    2.5000000000022571E-01     5.0000000000121769E-01     0.0000000000000000E+00 
    2.5000000000032763E-01     5.6250000000094724E-01     0.0000000000000000E+00 
    2.5000000000042938E-01     6.2500000000066314E-01     0.0000000000000000E+00 
    2.5000000000053119E-01     6.8750000000037925E-01     0.0000000000000000E+00 
[...]
CELL_DATA 256 
SCALARS Pressure double 1 
LOOKUP_TABLE default 

    2.1446187187399062E+00 
    2.0376009238872834E+00 
    1.9669255132362795E+00 
    1.9132727135345664E+00 
    1.8686925587913672E+00 
    1.8296822084993314E+00 
    1.7945933324828240E+00 
    1.7626472605370918E+00 
    1.7335275824270500E+00 
    1.7071864235988012E+00 
    1.6837326048146075E+00 
    1.6633409404166395E+00 
    1.6461366420400334E+00 
    1.6320456966092469E+00 
    1.6208589301928691E+00 
    1.6146346977258683E+00 
    2.0376009238878563E+00 
    1.9925921214580411E+00 
    1.9439956716848044E+00 
    1.8993413437224749E+00 
    1.8589409956825389E+00 
    1.8220710748688438E+00 
    1.7881339612456444E+00 
    1.7568003419638178E+00 
    1.7279716230076949E+00 
    1.7017184136269572E+00 
    1.6782233918262097E+00 
    1.6577156016230354E+00 
    1.6403644941453583E+00 
    1.6261245166680207E+00 
    1.6148000798272757E+00 
    1.6084989774564602E+00 
    1.9669255132370971E+00 
    1.9439956716852000E+00 
    1.9114233680327519E+00 
    1.8763163926254083E+00 
    1.8414518476535038E+00 
    1.8078014358298240E+00 
    1.7757175601656283E+00 
    1.7453927470627932E+00 
    1.7170270457848056E+00 
    1.6908743872394374E+00 
    1.6672432061674920E+00 
    1.6464607490746326E+00 
    1.6287812023699131E+00 
    1.6142192903823691E+00 
    1.6026161841957793E+00 
    1.5961656948443139E+00 
    1.9132727135355614E+00 
    1.8993413437231452E+00 
    1.8763163926257265E+00 
    1.8485553601944620E+00 
    1.8187370314613491E+00 
    1.7883511930061582E+00 
    1.7582521035537786E+00 
    1.7290040722557183E+00 
    1.7010675435476397E+00 
    1.6748847065736467E+00 
    1.6509120874985901E+00 
    1.6296055401638363E+00 
    1.6113365094228398E+00 
    1.5962183296321697E+00 
    1.5841708118117017E+00 
    1.5774932891498066E+00 
    1.8686925587925072E+00 
    1.8589409956834082E+00 
    1.8414518476540647E+00 
    1.8187370314616118E+00 
    1.7928271097719493E+00 
    1.7651615678973553E+00 
    1.7367482747835712E+00 
    1.7083433680834763E+00 
    1.6805847049427469E+00 
    1.6540727877328942E+00 
    1.6294119285986028E+00 
    1.6072053337322321E+00 
    1.5879713353421023E+00 
    1.5719681393749205E+00 
    1.5592385623516634E+00 
    1.5522046177040767E+00 
    1.8296822085006006E+00 
    1.8220710748698683E+00 
    1.8078014358305741E+00 
    1.7883511930066360E+00 
    1.7651615678975816E+00 
    1.7394407592532428E+00 
    1.7121642853971193E+00 
    1.6841473657650734E+00 
    1.6561252542358149E+00 
    1.6288153432919954E+00 
    1.6029576420240537E+00 
    1.5793139567703056E+00 
    1.5585866738056386E+00 
    1.5412319833179322E+00 
    1.5274581886085108E+00 
    1.5198548016222595E+00 
    1.7945933324842069E+00 
    1.7881339612467970E+00 
    1.7757175601665312E+00 
    1.7582521035544334E+00 
    1.7367482747839909E+00 
    1.7121642853973216E+00 
    1.6853640525913196E+00 
    1.6571395119490611E+00 
    1.6282594279262508E+00 
    1.5995166680515946E+00 
    1.5717696604424436E+00 
    1.5459482360276759E+00 
    1.5229829480083241E+00 
    1.5035965702117107E+00 
    1.4882503816770962E+00 
    1.4797866821832319E+00 
    1.7626472605385619E+00 
    1.7568003419650677E+00 
    1.7453927470638142E+00 
    1.7290040722565154E+00 
    1.7083433680840625E+00 
    1.6841473657654600E+00 
    1.6571395119492554E+00 
    1.6280382662276625E+00 
    1.5975941244569689E+00 
    1.5666334174456216E+00 
    1.5361081761971911E+00 
    1.5071214946643483E+00 
    1.4808764022667049E+00 
    1.4584593366365519E+00 
    1.4407389165685214E+00 
    1.4309508882582818E+00 
    1.7335275824283296E+00 
    1.7279716230087998E+00 
    1.7170270457857393E+00 
    1.7010675435484124E+00 
    1.6805847049433706E+00 
    1.6561252542362972E+00 
    1.6282594279265932E+00 
    1.5975941244571612E+00 
    1.5648121831205664E+00 
    1.5307231259623781E+00 
    1.4963310749659504E+00 
    1.4628997431036914E+00 
    1.4319421275649225E+00 
    1.4050312335883071E+00 
    1.3836429337989438E+00 
    1.3716560037254948E+00 
    1.7071864235997269E+00 
    1.7017184136277701E+00 
    1.6908743872401519E+00 
    1.6748847065742800E+00 
    1.6540727877334624E+00 
    1.6288153432925079E+00 
    1.5995166680520554E+00 
    1.5666334174460206E+00 
    1.5307231259626348E+00 
    1.4925073201082566E+00 
    1.4529675009243843E+00 
    1.4134729708161486E+00 
    1.3758551414035736E+00 
    1.3422984525743371E+00 
    1.3151396013121721E+00 
    1.2993586581869594E+00 
    1.6837326048152201E+00 
    1.6782233918267626E+00 
    1.6672432061680087E+00 
    1.6509120874990979E+00 
    1.6294119285991251E+00 
    1.6029576420246081E+00 
    1.5717696604430436E+00 
    1.5361081761978370E+00 
    1.4963310749665268E+00 
    1.4529675009247194E+00 
    1.4068440613663462E+00 
    1.3592990730714709E+00 
    1.3123993305784816E+00 
    1.2690177619345073E+00 
    1.2327238537620497E+00 
    1.2104210397811899E+00 
    1.6633409404169881E+00 
    1.6577156016233687E+00 
    1.6464607490749832E+00 
    1.6296055401642433E+00 
    1.6072053337327294E+00 
    1.5793139567709253E+00 
    1.5459482360284473E+00 
    1.5071214946652913E+00 
    1.4628997431046609E+00 
    1.4134729708169074E+00 
    1.3592990730719119E+00 
    1.3014063701312262E+00 
    1.2418047726136221E+00 
    1.1839348199676929E+00 
    1.1330145595757408E+00 
    1.0993119532585582E+00 
    1.6461366420401702E+00 
    1.6403644941455162E+00 
    1.6287812023701336E+00 
    1.6113365094231755E+00 
    1.5879713353426017E+00 
    1.5585866738063514E+00 
    1.5229829480093027E+00 
    1.4808764022679963E+00 
    1.4319421275663586E+00 
    1.3758551414048479E+00 
    1.3123993305794766E+00 
    1.2418047726142021E+00 
    1.1653322839049429E+00 
    1.0862664717299630E+00 
    1.0114396052690688E+00 
    9.5677809316666862E-01 
    1.6320456966092267E+00 
    1.6261245166680502E+00 
    1.6142192903825012E+00 
    1.5962183296324699E+00 
    1.5719681393754537E+00 
    1.5412319833187675E+00 
    1.5035965702129281E+00 
    1.4584593366382359E+00 
    1.4050312335902708E+00 
    1.3422984525761992E+00 
    1.2690177619361491E+00 
    1.1839348199689770E+00 
    1.0862664717307080E+00 
    9.7698479021822648E-01 
    8.6214494433975442E-01 
    7.6505332786497970E-01 
    1.6208589301928238E+00 
    1.6148000798272930E+00 
    1.6026161841959230E+00 
    1.5841708118120525E+00 
    1.5592385623523022E+00 
    1.5274581886095266E+00 
    1.4882503816785959E+00 
    1.4407389165706279E+00 
    1.3836429338014506E+00 
    1.3151396013146177E+00 
    1.2327238537643026E+00 
    1.1330145595776417E+00 
    1.0114396052703956E+00 
    8.6214494434021016E-01 
    6.8036296970462740E-01 
    4.8387310137305489E-01 
    1.6146346977258406E+00 
    1.6084989774565028E+00 
    1.5961656948445022E+00 
    1.5774932891502356E+00 
    1.5522046177048399E+00 
    1.5198548016234672E+00 
    1.4797866821850154E+00 
    1.4309508882608000E+00 
    1.3716560037285157E+00 
    1.2993586581899543E+00 
    1.2104210397840098E+00 
    1.0993119532610069E+00 
    9.5677809316843798E-01 
    7.6505332786551894E-01 
    4.8387310137239198E-01 
    0.0000000000000000E+00 

SCALARS Saturarion double 1 
LOOKUP_TABLE default 

    1.0000000000000000E+00 
    9.5217199126340535E-01 
    9.1056206614046997E-01 
    8.6688512989982680E-01 
    8.2308480753621860E-01 
    7.8061090481964179E-01 
    7.3959326355582733E-01 
    6.9991959061193787E-01 
    6.6095008173489100E-01 
    6.2209017270719547E-01 
    5.8188659914084362E-01 
    5.3799997162847135E-01 
    4.8420734300219503E-01 
    4.0580482317219274E-01 
    2.5628223821490648E-01 
    4.1038022911964157E-02 
    9.5217199126365604E-01 
    9.2030595510576318E-01 
    8.8353124754521695E-01 
    8.4456041833300788E-01 
    8.0490972798404414E-01 
    7.6592150197637243E-01 
    7.2778472913901116E-01 
    6.9054050857642379E-01 
    6.5362264996592012E-01 
    6.1646823962406927E-01 
    5.7769607538206469E-01 
    5.3502287917785563E-01 
    4.8221139311713807E-01 
    4.0419136624784491E-01 
    2.5384133499759970E-01 
    3.9444833400255272E-02 
    9.1056206614104263E-01 
    8.8353124754549828E-01 
    8.5146352794738722E-01 
    8.1727671992611262E-01 
    7.8215786073266946E-01 
    7.4715475804275300E-01 
    7.1250699506760540E-01 
    6.7833916666519722E-01 
    6.4415594922242769E-01 
    6.0928631426273538E-01 
    5.7247183902854060E-01 
    5.3146207509919385E-01 
    4.8013160784311104E-01 
    4.0274788231520914E-01 
    2.5193822954865963E-01 
    3.8307945853820739E-02 
    8.6688512990067412E-01 
    8.4456041833358664E-01 
    8.1727671992639206E-01 
    7.8775645940614814E-01 
    7.5717087819727880E-01 
    7.2636409220884157E-01 
    6.9555245022954681E-01 
    6.6473723805042140E-01 
    6.3356146654172352E-01 
    6.0132442407999886E-01 
    5.6686290237339765E-01 
    5.2774112381374172E-01 
    4.7830938140426627E-01 
    4.0153949396911198E-01 
    2.5089505371506915E-01 
    3.7841992668139042E-02 
    8.2308480753731106E-01 
    8.0490972798484606E-01 
    7.8215786073321591E-01 
    7.5717087819751694E-01 
    7.3100019880841371E-01 
    7.0431782287071465E-01 
    6.7732415705537252E-01 
    6.5010477094234942E-01 
    6.2220806978243115E-01 
    5.9307849970348359E-01 
    5.6138483096422054E-01 
    5.2490092650310671E-01 
    4.7732422078744735E-01 
    4.0338039368824580E-01 
    2.5534066108419606E-01 
    4.2258402465911608E-02 
    7.8061090482096707E-01 
    7.6592150197735298E-01 
    7.4715475804349185E-01 
    7.2636409220929810E-01 
    7.0431782287091438E-01 
    6.8169450858657721E-01 
    6.5849347755269971E-01 
    6.3487544524580519E-01 
    6.1031258165162661E-01 
    5.8437459210883458E-01 
    5.5567176085717884E-01 
    5.2198395115452401E-01 
    4.7702072947529983E-01 
    4.0567975426962677E-01 
    2.6165285864061144E-01 
    4.7329620099330581E-02 
    7.3959326355734722E-01 
    7.2778472914023529E-01 
    7.1250699506854798E-01 
    6.9555245023019652E-01 
    6.7732415705577331E-01 
    6.5849347755286447E-01 
    6.3899506258204908E-01 
    6.1899958267008415E-01 
    5.9793576737331966E-01 
    5.7530358248695679E-01 
    5.4979832642017268E-01 
    5.1919947518876741E-01 
    4.7746568941734141E-01 
    4.0924353106456091E-01 
    2.7029801062151121E-01 
    5.5119885864594230E-02 
    6.9991959061366171E-01 
    6.9054050857783511E-01 
    6.7833916666630389E-01 
    6.6473723805124563E-01 
    6.5010477094289221E-01 
    6.3487544524610839E-01 
    6.1899958267021449E-01 
    6.0255257112955729E-01 
    5.8505764769233359E-01 
    5.6591201409200809E-01 
    5.4386746691044974E-01 
    5.1662518335066998E-01 
    4.7871236784546295E-01 
    4.1421591693012966E-01 
    2.8169726257435013E-01 
    6.7478025182974521E-02 
    6.6095008173621961E-01 
    6.5362264996707620E-01 
    6.4415594922335762E-01 
    6.3356146654242185E-01 
    6.2220806978291499E-01 
    6.1031258165193181E-01 
    5.9793576737348686E-01 
    5.8505764769239998E-01 
    5.7127397006925518E-01 
    5.5588183380110334E-01 
    5.3768381813874677E-01 
    5.1448504874852918E-01 
    4.8080147581925547E-01 
    4.2226157836365263E-01 
    2.9837046145314344E-01 
    9.0692555032222219E-02 
    6.2209017270825828E-01 
    6.1646823962497554E-01 
    6.0928631426349134E-01 
    6.0132442408056774E-01 
    5.9307849970388127E-01 
    5.8437459210909659E-01 
    5.7530358248711988E-01 
    5.6591201409209835E-01 
    5.5588183380112355E-01 
    5.4445594550126652E-01 
    5.3045125969097551E-01 
    5.1177809154430320E-01 
    4.8330321853949654E-01 
    4.3152466878732754E-01 
    3.1849550458422093E-01 
    1.2189783895518622E-01 
    5.8188659914163510E-01 
    5.7769607538273948E-01 
    5.7247183902908738E-01 
    5.6686290237380998E-01 
    5.6138483096450920E-01 
    5.5567176085736925E-01 
    5.4979832642028337E-01 
    5.4386746691050447E-01 
    5.3768381813874000E-01 
    5.3045125969094620E-01 
    5.2106616074721479E-01 
    5.0757399521801982E-01 
    4.8530922667225596E-01 
    4.4180689381130650E-01 
    3.4220308039143782E-01 
    1.6057274862792656E-01 
    5.3799997162897439E-01 
    5.3502287917827362E-01 
    5.3146207509952048E-01 
    5.2774112381397986E-01 
    5.2490092650325315E-01 
    5.2198395115459240E-01 
    5.1919947518877485E-01 
    5.1662518335062624E-01 
    5.1448504874842849E-01 
    5.1177809154418441E-01 
    5.0757399521793523E-01 
    5.0008480559536006E-01 
    4.8513841633521848E-01 
    4.5170820336937417E-01 
    3.6831454704662886E-01 
    2.0381041811408129E-01 
    4.8420734300234908E-01 
    4.8221139311723837E-01 
    4.8013160784316000E-01 
    4.7830938140426316E-01 
    4.7732422078738146E-01 
    4.7702072947516910E-01 
    4.7746568941715845E-01 
    4.7871236784522775E-01 
    4.8080147581897709E-01 
    4.8330321853921077E-01 
    4.8530922667202192E-01 
    4.8513841633508009E-01 
    4.7920264656198153E-01 
    4.5823721955510577E-01 
    3.9492248703117488E-01 
    2.5136956656636228E-01 
    4.0580482317183064E-01 
    4.0419136624748597E-01 
    4.0274788231484743E-01 
    4.0153949396873012E-01 
    4.0338039368783540E-01 
    4.0567975426917668E-01 
    4.0924353106405559E-01 
    4.1421591692955734E-01 
    4.2226157836306050E-01 
    4.3152466878675888E-01 
    4.4180689381082056E-01 
    4.5170820336903000E-01 
    4.5823721955494284E-01 
    4.5355771797747368E-01 
    4.1524803422311629E-01 
    2.9966818725024835E-01 
    2.5628223821479351E-01 
    2.5384133499746897E-01 
    2.5193822954851530E-01 
    2.5089505371488052E-01 
    2.5534066108392545E-01 
    2.6165285864021787E-01 
    2.7029801062095393E-01 
    2.8169726257359101E-01 
    2.9837046145231821E-01 
    3.1849550458339232E-01 
    3.4220308039068698E-01 
    3.6831454704602484E-01 
    3.9492248703079030E-01 
    4.1524803422295714E-01 
    4.1193308972411447E-01 
    3.4026427060056835E-01 
    4.1038022911971755E-02 
    3.9444833400252011E-02 
    3.8307945853806660E-02 
    3.7841992668089533E-02 
    4.2258402465785654E-02 
    4.7329620099073377E-02 
    5.5119885864125792E-02 
    6.7478025182168097E-02 
    9.0692555031128108E-02 
    1.2189783895396904E-01 
    1.6057274862685783E-01 
    2.0381041811329353E-01 
    2.5136956656592774E-01 
    2.9966818725016964E-01 
    3.4026427060051034E-01 
    3.3913212886948191E-01 
