# vtk DataFile Version 2.0
Pressure Field Data 
ASCII 
DATASET UNSTRUCTURED_GRID 

POINTS 289 double 

    0.0000000000000000E+00     0.0000000000000000E+00     0.0000000000000000E+00 
    1.0000000000000000E+00     0.0000000000000000E+00     0.0000000000000000E+00 
    1.0000000000000000E+00     1.0000000000000000E+00     0.0000000000000000E+00 
    0.0000000000000000E+00     1.0000000000000000E+00     0.0000000000000000E+00 
    6.2499999999872928E-02     0.0000000000000000E+00     0.0000000000000000E+00 
    1.2499999999977310E-01     0.0000000000000000E+00     0.0000000000000000E+00 
    1.8749999999959341E-01     0.0000000000000000E+00     0.0000000000000000E+00 
    2.4999999999941089E-01     0.0000000000000000E+00     0.0000000000000000E+00 
    3.1249999999922851E-01     0.0000000000000000E+00     0.0000000000000000E+00 
    3.7499999999904610E-01     0.0000000000000000E+00     0.0000000000000000E+00 
    4.3749999999886358E-01     0.0000000000000000E+00     0.0000000000000000E+00 
    4.9999999999869210E-01     0.0000000000000000E+00     0.0000000000000000E+00 
    5.6249999999884603E-01     0.0000000000000000E+00     0.0000000000000000E+00 
    6.2499999999901090E-01     0.0000000000000000E+00     0.0000000000000000E+00 
    6.8749999999917577E-01     0.0000000000000000E+00     0.0000000000000000E+00 
    7.4999999999934064E-01     0.0000000000000000E+00     0.0000000000000000E+00 
    8.1249999999950551E-01     0.0000000000000000E+00     0.0000000000000000E+00 
    8.7499999999967026E-01     0.0000000000000000E+00     0.0000000000000000E+00 
    9.3749999999983513E-01     0.0000000000000000E+00     0.0000000000000000E+00 
    1.0000000000000000E+00     6.2499999999872928E-02     0.0000000000000000E+00 
    1.0000000000000000E+00     1.2499999999977310E-01     0.0000000000000000E+00 
    1.0000000000000000E+00     1.8749999999959341E-01     0.0000000000000000E+00 
    1.0000000000000000E+00     2.4999999999941089E-01     0.0000000000000000E+00 
    1.0000000000000000E+00     3.1249999999922851E-01     0.0000000000000000E+00 
    1.0000000000000000E+00     3.7499999999904610E-01     0.0000000000000000E+00 
    1.0000000000000000E+00     4.3749999999886358E-01     0.0000000000000000E+00 
    1.0000000000000000E+00     4.9999999999869210E-01     0.0000000000000000E+00 
    1.0000000000000000E+00     5.6249999999884603E-01     0.0000000000000000E+00 
    1.0000000000000000E+00     6.2499999999901090E-01     0.0000000000000000E+00 
    1.0000000000000000E+00     6.8749999999917577E-01     0.0000000000000000E+00 
    1.0000000000000000E+00     7.4999999999934064E-01     0.0000000000000000E+00 
    1.0000000000000000E+00     8.1249999999950551E-01     0.0000000000000000E+00 
    1.0000000000000000E+00     8.7499999999967026E-01     0.0000000000000000E+00 
    1.0000000000000000E+00     9.3749999999983513E-01     0.0000000000000000E+00 
    9.3749999999973976E-01     1.0000000000000000E+00     0.0000000000000000E+00 
    8.7499999999950118E-01     1.0000000000000000E+00     0.0000000000000000E+00 
    8.1249999999991318E-01     1.0000000000000000E+00     0.0000000000000000E+00 
    7.5000000000034706E-01     1.0000000000000000E+00     0.0000000000000000E+00 
    6.8750000000078049E-01     1.0000000000000000E+00     0.0000000000000000E+00 
    6.2500000000121403E-01     1.0000000000000000E+00     0.0000000000000000E+00 
    5.6250000000164757E-01     1.0000000000000000E+00     0.0000000000000000E+00 
    5.0000000000205946E-01     1.0000000000000000E+00     0.0000000000000000E+00 
    4.3750000000182099E-01     1.0000000000000000E+00     0.0000000000000000E+00 
    3.7500000000156092E-01     1.0000000000000000E+00     0.0000000000000000E+00 
    3.1250000000130068E-01     1.0000000000000000E+00     0.0000000000000000E+00 
    2.5000000000104050E-01     1.0000000000000000E+00     0.0000000000000000E+00 
    1.8750000000078040E-01     1.0000000000000000E+00     0.0000000000000000E+00 
    1.2500000000052031E-01     1.0000000000000000E+00     0.0000000000000000E+00 
    6.2500000000260125E-02     1.0000000000000000E+00     0.0000000000000000E+00 
    0.0000000000000000E+00     9.3749999999973976E-01     0.0000000000000000E+00 
    0.0000000000000000E+00     8.7499999999950118E-01     0.0000000000000000E+00 
    0.0000000000000000E+00     8.1249999999991318E-01     0.0000000000000000E+00 
    0.0000000000000000E+00     7.5000000000034706E-01     0.0000000000000000E+00 
    0.0000000000000000E+00     6.8750000000078049E-01     0.0000000000000000E+00 
    0.0000000000000000E+00     6.2500000000121403E-01     0.0000000000000000E+00 
    0.0000000000000000E+00     5.6250000000164757E-01     0.0000000000000000E+00 
    0.0000000000000000E+00     5.0000000000205946E-01     0.0000000000000000E+00 
    0.0000000000000000E+00     4.3750000000182099E-01     0.0000000000000000E+00 
    0.0000000000000000E+00     3.7500000000156092E-01     0.0000000000000000E+00 
    0.0000000000000000E+00     3.1250000000130068E-01     0.0000000000000000E+00 
    0.0000000000000000E+00     2.5000000000104050E-01     0.0000000000000000E+00 
    0.0000000000000000E+00     1.8750000000078040E-01     0.0000000000000000E+00 
    0.0000000000000000E+00     1.2500000000052031E-01     0.0000000000000000E+00 
    0.0000000000000000E+00     6.2500000000260125E-02     0.0000000000000000E+00 
    6.2499999999897131E-02     6.2500000000235922E-02     0.0000000000000000E+00 
    6.2499999999921327E-02     1.2500000000047351E-01     0.0000000000000000E+00 
    6.2499999999945530E-02     1.8750000000070621E-01     0.0000000000000000E+00 
    6.2499999999969733E-02     2.5000000000093858E-01     0.0000000000000000E+00 
    6.2499999999993928E-02     3.1250000000117117E-01     0.0000000000000000E+00 
    6.2500000000018124E-02     3.7500000000140382E-01     0.0000000000000000E+00 
    6.2500000000042327E-02     4.3750000000163619E-01     0.0000000000000000E+00 
    6.2500000000066530E-02     5.0000000000184897E-01     0.0000000000000000E+00 
    6.2500000000090733E-02     5.6250000000147260E-01     0.0000000000000000E+00 
    6.2500000000114922E-02     6.2500000000107636E-01     0.0000000000000000E+00 
    6.2500000000139125E-02     6.8750000000068034E-01     0.0000000000000000E+00 
    6.2500000000163328E-02     7.5000000000028411E-01     0.0000000000000000E+00 
    6.2500000000187531E-02     8.1249999999988787E-01     0.0000000000000000E+00 
    6.2500000000211720E-02     8.7499999999951172E-01     0.0000000000000000E+00 
    6.2500000000235922E-02     9.3749999999974565E-01     0.0000000000000000E+00 
    1.2499999999981980E-01     6.2500000000211733E-02     0.0000000000000000E+00 
    1.2499999999986650E-01     1.2500000000042691E-01     0.0000000000000000E+00 
    1.2499999999991319E-01     1.8750000000063199E-01     0.0000000000000000E+00 
    1.2499999999995989E-01     2.5000000000083678E-01     0.0000000000000000E+00 
    1.2500000000000661E-01     3.1250000000104172E-01     0.0000000000000000E+00 
    1.2500000000005329E-01     3.7500000000124661E-01     0.0000000000000000E+00 
    1.2500000000010000E-01     4.3750000000145117E-01     0.0000000000000000E+00 
    1.2500000000014669E-01     5.0000000000163858E-01     0.0000000000000000E+00 
    1.2500000000019340E-01     5.6250000000129741E-01     0.0000000000000000E+00 
    1.2500000000024011E-01     6.2500000000093847E-01     0.0000000000000000E+00 
    1.2500000000028680E-01     6.8750000000057998E-01     0.0000000000000000E+00 
    1.2500000000033351E-01     7.5000000000022127E-01     0.0000000000000000E+00 
    1.2500000000038020E-01     8.1249999999986211E-01     0.0000000000000000E+00 
    1.2500000000042691E-01     8.7499999999952238E-01     0.0000000000000000E+00 
    1.2500000000047359E-01     9.3749999999975164E-01     0.0000000000000000E+00 
    1.8749999999966760E-01     6.2500000000187531E-02     0.0000000000000000E+00 
    1.8749999999974179E-01     1.2500000000038020E-01     0.0000000000000000E+00 
    1.8749999999981601E-01     1.8750000000055780E-01     0.0000000000000000E+00 
    1.8749999999989009E-01     2.5000000000073502E-01     0.0000000000000000E+00 
    1.8749999999996431E-01     3.1250000000091221E-01     0.0000000000000000E+00 
    1.8750000000003850E-01     3.7500000000108941E-01     0.0000000000000000E+00 
    1.8750000000011269E-01     4.3750000000126649E-01     0.0000000000000000E+00 
    1.8750000000018691E-01     5.0000000000142808E-01     0.0000000000000000E+00 
    1.8750000000026110E-01     5.6250000000112244E-01     0.0000000000000000E+00 
    1.8750000000033529E-01     6.2500000000080080E-01     0.0000000000000000E+00 
    1.8750000000040951E-01     6.8750000000047962E-01     0.0000000000000000E+00 
    1.8750000000048361E-01     7.5000000000015843E-01     0.0000000000000000E+00 
    1.8750000000055780E-01     8.1249999999983680E-01     0.0000000000000000E+00 
    1.8750000000063199E-01     8.7499999999953304E-01     0.0000000000000000E+00 
    1.8750000000070621E-01     9.3749999999975764E-01     0.0000000000000000E+00 
    2.4999999999951281E-01     6.2500000000163314E-02     0.0000000000000000E+00 
    2.4999999999961461E-01     1.2500000000033351E-01     0.0000000000000000E+00 
    2.4999999999971650E-01     1.8750000000048361E-01     0.0000000000000000E+00 
    2.4999999999981831E-01     2.5000000000063310E-01     0.0000000000000000E+00 
    2.4999999999992020E-01     3.1250000000078260E-01     0.0000000000000000E+00 
    2.5000000000002198E-01     3.7500000000093209E-01     0.0000000000000000E+00 
    2.5000000000012390E-01     4.3750000000108180E-01     0.0000000000000000E+00 
    2.5000000000022571E-01     5.0000000000121769E-01     0.0000000000000000E+00 
    2.5000000000032763E-01     5.6250000000094724E-01     0.0000000000000000E+00 
    2.5000000000042938E-01     6.2500000000066314E-01     0.0000000000000000E+00 
    2.5000000000053119E-01     6.8750000000037925E-01     0.0000000000000000E+00 
[...]
CELL_DATA 256 
SCALARS Pressure double 1 
LOOKUP_TABLE default 

    2.3792760963527511E+00 
    2.2708000819473106E+00 
    2.1979677061484950E+00 
    2.1418670583124193E+00 
    2.0946380168321435E+00 
    2.0528358100570920E+00 
    2.0148599755666505E+00 
    1.9799721126211001E+00 
    1.9478911720558292E+00 
    1.9185964667686235E+00 
    1.8922025173093577E+00 
    1.8688271427281320E+00 
    1.8483653007952159E+00 
    1.8302759932271964E+00 
    1.8159388113048454E+00 
    1.8087519968631856E+00 
    2.2708000819478964E+00 
    2.2246495688141930E+00 
    2.1741605167635134E+00 
    2.1272100797423468E+00 
    2.0842503756708091E+00 
    2.0446414648976052E+00 
    2.0078459186999105E+00 
    1.9735816223983484E+00 
    1.9417899722136371E+00 
    1.9125718889711012E+00 
    1.8861177554424593E+00 
    1.8625993941132992E+00 
    1.8419458710549947E+00 
    1.8236099062856459E+00 
    1.8090822628982677E+00 
    1.8018137172798188E+00 
    2.1979677061493437E+00 
    2.1741605167639282E+00 
    2.1399917178792585E+00 
    2.1028022675243139E+00 
    2.0655216698186520E+00 
    2.0292219847349164E+00 
    1.9943283463345767E+00 
    1.9610897746638849E+00 
    1.9297534016824467E+00 
    1.9006089041523575E+00 
    1.8739764702740851E+00 
    1.8501261118888186E+00 
    1.8290565222981043E+00 
    1.8102271341228235E+00 
    1.7953145890130902E+00 
    1.7878688557347699E+00 
    2.1418670583134656E+00 
    2.1272100797430555E+00 
    2.1028022675246527E+00 
    2.0731494729646718E+00 
    2.0410581838123814E+00 
    2.0081163822769961E+00 
    1.9752552378435642E+00 
    1.9431016038153719E+00 
    1.9121691367639282E+00 
    1.8829419350235317E+00 
    1.8558940991136497E+00 
    1.8314265210132767E+00 
    1.8096382090899437E+00 
    1.7900326901921260E+00 
    1.7745046286630919E+00 
    1.7667512327253230E+00 
    2.0946380168333607E+00 
    2.0842503756717399E+00 
    2.0655216698192556E+00 
    2.0410581838126656E+00 
    2.0129886498984000E+00 
    1.9828388547416880E+00 
    1.9516903415657620E+00 
    1.9203633284858710E+00 
    1.8895528998249183E+00 
    1.8599075808444858E+00 
    1.8320565983700796E+00 
    1.8065534514896773E+00 
    1.7836248290515939E+00 
    1.7628605160680346E+00 
    1.7463824117239217E+00 
    1.7381338114120326E+00 
    2.0528358100584629E+00 
    2.0446414648987155E+00 
    2.0292219847357305E+00 
    2.0081163822775157E+00 
    1.9828388547419356E+00 
    1.9546688824301290E+00 
    1.9246481098710015E+00 
    1.8936536800164909E+00 
    1.8624800860165047E+00 
    1.8318985324596226E+00 
    1.8026830357424155E+00 
    1.7755532546311337E+00 
    1.7509021370136661E+00 
    1.7284332953028319E+00 
    1.7105173325742524E+00 
    1.7015079089953473E+00 
    2.0148599755681555E+00 
    2.0078459187011672E+00 
    1.9943283463355643E+00 
    1.9752552378442820E+00 
    1.9516903415662248E+00 
    1.9246481098712256E+00 
    1.8950485730416280E+00 
    1.8637401445276982E+00 
    1.8315503543667857E+00 
    1.7993306683614845E+00 
    1.7679843816058063E+00 
    1.7384113541242696E+00 
    1.7112255804622205E+00 
    1.6862977191137560E+00 
    1.6662857413656507E+00 
    1.6561400460646232E+00 
    1.9799721126227126E+00 
    1.9735816223997225E+00 
    1.9610897746650102E+00 
    1.9431016038162530E+00 
    1.9203633284865187E+00 
    1.8936536800169186E+00 
    1.8637401445279131E+00 
    1.8313887868257537E+00 
    1.7974047448270094E+00 
    1.7626750450652893E+00 
    1.7282075336147573E+00 
    1.6950954513302190E+00 
    1.6642355846624934E+00 
    1.6357845029206382E+00 
    1.6127233555410110E+00 
    1.6008816467690721E+00 
    1.9478911720572467E+00 
    1.9417899722148630E+00 
    1.9297534016834839E+00 
    1.9121691367647864E+00 
    1.8895528998256090E+00 
    1.8624800860170394E+00 
    1.8315503543671661E+00 
    1.7974047448272221E+00 
    1.7607712942897702E+00 
    1.7225169646732263E+00 
    1.6837088089027052E+00 
    1.6456267909205953E+00 
    1.6095073914636986E+00 
    1.5759542993674598E+00 
    1.5483302386321134E+00 
    1.5339145242866212E+00 
    1.9185964667696604E+00 
    1.9125718889720120E+00 
    1.9006089041531571E+00 
    1.8829419350242387E+00 
    1.8599075808451166E+00 
    1.8318985324601904E+00 
    1.7993306683619936E+00 
    1.7626750450657303E+00 
    1.7225169646735099E+00 
    1.6796219775079084E+00 
    1.6350300977437415E+00 
    1.5901491411261288E+00 
    1.5465842916141332E+00 
    1.5055476157858296E+00 
    1.4709522259291454E+00 
    1.4525295524862079E+00 
    1.8922025173100521E+00 
    1.8861177554430848E+00 
    1.8739764702746666E+00 
    1.8558940991142163E+00 
    1.8320565983706574E+00 
    1.8026830357430266E+00 
    1.7679843816064669E+00 
    1.7282075336154692E+00 
    1.6837088089033421E+00 
    1.6350300977441117E+00 
    1.5830253792376663E+00 
    1.5290695334566247E+00 
    1.4750611183073190E+00 
    1.4229538329718148E+00 
    1.3775703406622202E+00 
    1.3526218176778397E+00 
    1.8688271427285310E+00 
    1.8625993941136778E+00 
    1.8501261118892109E+00 
    1.8314265210137268E+00 
    1.8065534514902226E+00 
    1.7755532546318125E+00 
    1.7384113541251160E+00 
    1.6950954513312566E+00 
    1.6456267909216644E+00 
    1.5901491411269673E+00 
    1.5290695334571140E+00 
    1.4633839890790081E+00 
    1.3949365148748942E+00 
    1.3263255064213526E+00 
    1.2637253563110287E+00 
    1.2272522803598938E+00 
    1.8483653007953689E+00 
    1.8419458710551675E+00 
    1.8290565222983437E+00 
    1.8096382090903067E+00 
    1.7836248290521339E+00 
    1.7509021370144409E+00 
    1.7112255804632885E+00 
    1.6642355846639119E+00 
    1.6095073914652811E+00 
    1.5465842916155410E+00 
    1.4750611183084261E+00 
    1.3949365148755455E+00 
    1.3071206235115369E+00 
    1.2139967496671265E+00 
    1.1228651970416559E+00 
    1.0637939325456489E+00 
    1.8302759932271553E+00 
    1.8236099062856586E+00 
    1.8102271341229483E+00 
    1.7900326901924357E+00 
    1.7628605160686004E+00 
    1.7284332953037320E+00 
    1.6862977191150801E+00 
    1.6357845029224827E+00 
    1.5759542993696185E+00 
    1.5055476157878858E+00 
    1.4229538329736426E+00 
    1.3263255064228003E+00 
    1.2139967496679791E+00 
    1.0855150728663061E+00 
    9.4607194543284923E-01 
    8.3883373110062864E-01 
    1.8159388113047674E+00 
    1.8090822628982590E+00 
    1.7953145890132225E+00 
    1.7745046286634536E+00 
    1.7463824117246038E+00 
    1.7105173325753558E+00 
    1.6662857413672949E+00 
    1.6127233555433356E+00 
    1.5483302386348858E+00 
    1.4709522259318584E+00 
    1.3775703406647324E+00 
    1.2637253563131643E+00 
    1.1228651970431565E+00 
    9.4607194543335027E-01 
    7.2831094233963067E-01 
    5.1408347181428393E-01 
    1.8087519968631265E+00 
    1.8018137172798387E+00 
    1.7878688557349520E+00 
    1.7667512327257737E+00 
    1.7381338114128595E+00 
    1.7015079089966720E+00 
    1.6561400460665940E+00 
    1.6008816467718636E+00 
    1.5339145242899710E+00 
    1.4525295524895168E+00 
    1.3526218176809517E+00 
    1.2272522803626138E+00 
    1.0637939325476531E+00 
    8.3883373110128190E-01 
    5.1408347181362457E-01 
    0.0000000000000000E+00 

SCALARS Saturarion double 1 
LOOKUP_TABLE default 

    1.0000000000000000E+00 
    9.4263438574210501E-01 
    8.9452240821356110E-01 
    8.4541664720721377E-01 
    7.9723972808904475E-01 
    7.5131762244940981E-01 
    7.0749936739798402E-01 
    6.6545369618515304E-01 
    6.2429348492082537E-01 
    5.8315742447197128E-01 
    5.4000294918957958E-01 
    4.9094695536749516E-01 
    4.2449852778233377E-01 
    3.1007949744471064E-01 
    1.0146312078967917E-01 
    2.2212432864588214E-03 
    9.4263438574241309E-01 
    9.0561675247460671E-01 
    8.6389380111987235E-01 
    8.2064296951147397E-01 
    7.7739764584064330E-01 
    7.3547053132500628E-01 
    6.9485761377286825E-01 
    6.5544694272594017E-01 
    6.1646016063853437E-01 
    5.7708425899558879E-01 
    5.3535318835813006E-01 
    4.8739924638626630E-01 
    4.2144479742289293E-01 
    3.0545723391524893E-01 
    9.5040738451889192E-02 
    1.8240579901795196E-03 
    8.9452240821420992E-01 
    8.6389380112018077E-01 
    8.2815964117044782E-01 
    7.9071115304723971E-01 
    7.5275025252249139E-01 
    7.1531871083834042E-01 
    6.7853511995462401E-01 
    6.4242384126699048E-01 
    6.0631428635343376E-01 
    5.6928582235639580E-01 
    5.2950840314472736E-01 
    4.8309986282703554E-01 
    4.1814960561063319E-01 
    3.0040087014617683E-01 
    8.8268330194391634E-02 
    1.4635721649204055E-03 
    8.4541664720816290E-01 
    8.2064296951211579E-01 
    7.9071115304755379E-01 
    7.5873302923986319E-01 
    7.2592750205618894E-01 
    6.9314040728216464E-01 
    6.6050919509563288E-01 
    6.2794847143342447E-01 
    5.9496874813512346E-01 
    5.6063415645566239E-01 
    5.2322171700751796E-01 
    4.7854792310099709E-01 
    4.1507618630849102E-01 
    2.9486031047759237E-01 
    8.1504537224573653E-02 
    1.1623819509861859E-03 
    7.9723972809035870E-01 
    7.7739764584147575E-01 
    7.5275025252308625E-01 
    7.2592750205641177E-01 
    6.9802828274533169E-01 
    6.6972274208071747E-01 
    6.4115994586341674E-01 
    6.1237565014226736E-01 
    5.8279256172258764E-01 
    5.5166332533350826E-01 
    5.1709447040743095E-01 
    4.7516356419135458E-01 
    4.1302549009064099E-01 
    2.9529852284229119E-01 
    8.3959330092821180E-02 
    1.2850762133311789E-03 
    7.5131762245080580E-01 
    7.3547053132598195E-01 
    7.1531871083909293E-01 
    6.9314040728267023E-01 
    6.6972274208092408E-01 
    6.4576071082603714E-01 
    6.2119055039597637E-01 
    5.9615173930718834E-01 
    5.6999079566040645E-01 
    5.4212164547562924E-01 
    5.1058955874137302E-01 
    4.7148189435514054E-01 
    4.1165782082102859E-01 
    2.9545933646505679E-01 
    8.3806996883383583E-02 
    1.2535498109127936E-03 
    7.0749936739958530E-01 
    6.9485761377416488E-01 
    6.7853511995559013E-01 
    6.6050919509632910E-01 
    6.4115994586382496E-01 
    6.2119055039614202E-01 
    6.0047474939317891E-01 
    5.7917838123813414E-01 
    5.5660666439420325E-01 
    5.3210350135580742E-01 
    5.0381702428699726E-01 
    4.6782418185702784E-01 
    4.1116623197094371E-01 
    2.9688103584163689E-01 
    8.5887907902920765E-02 
    1.3499241737498073E-03 
    6.6545369618697614E-01 
    6.5544694272745485E-01 
    6.4242384126817842E-01 
    6.2794847143427401E-01 
    6.1237565014283146E-01 
    5.9615173930752352E-01 
    5.7917838123829812E-01 
    5.6152260193725734E-01 
    5.4261068142023350E-01 
    5.2167667998612299E-01 
    4.9694725309224541E-01 
    4.6436044147403477E-01 
    4.1180252771109077E-01 
    3.0027824344363740E-01 
    9.2039620776661016E-02 
    1.6822470326549903E-03 
    6.2429348492226056E-01 
    6.1646016063978204E-01 
    6.0631428635441476E-01 
    5.9496874813585798E-01 
    5.8279256172312277E-01 
    5.6999079566076116E-01 
    5.5660666439439255E-01 
    5.4261068142031454E-01 
    5.2752729024134748E-01 
    5.1048584247721296E-01 
    4.8982345189525833E-01 
    4.6168137948147187E-01 
    4.1392182343663281E-01 
    3.1075951239318367E-01 
    1.1321554382199431E-01 
    3.3328217572672842E-03 
    5.8315742447312724E-01 
    5.7708425899656757E-01 
    5.6928582235716874E-01 
    5.6063415645625458E-01 
    5.5166332533395790E-01 
    5.4212164547590613E-01 
    5.3210350135598428E-01 
    5.2167667998622713E-01 
    5.1048584247724582E-01 
    4.9759137251966218E-01 
    4.8140523669900220E-01 
    4.5834983525769196E-01 
    4.1705367583831437E-01 
    3.2418123268245702E-01 
    1.3933590732491818E-01 
    6.4258312205956051E-03 
    5.4000294919041436E-01 
    5.3535318835884049E-01 
    5.2950840314529191E-01 
    5.2322171700795361E-01 
    5.1709447040775847E-01 
    5.1058955874159628E-01 
    5.0381702428712472E-01 
    4.9694725309232074E-01 
    4.8982345189525173E-01 
    4.8140523669897090E-01 
    4.7025289740395082E-01 
    4.5316891560473099E-01 
    4.2000920801467900E-01 
    3.4038101794907727E-01 
    1.7309222379250530E-01 
    1.3603396377853606E-02 
    4.9094695536803745E-01 
    4.8739924638670312E-01 
    4.8309986282738709E-01 
    4.7854792310124727E-01 
    4.7516356419152384E-01 
    4.7148189435523352E-01 
    4.6782418185705188E-01 
    4.6436044147399907E-01 
    4.6168137948137156E-01 
    4.5834983525756257E-01 
    4.5316891560463463E-01 
    4.4336014455216466E-01 
    4.2019911162974827E-01 
    3.5713198535912533E-01 
    2.1259339391707555E-01 
    2.9499196529189968E-02 
    4.2449852778250868E-01 
    4.2144479742302215E-01 
    4.1814960561070003E-01 
    4.1507618630849874E-01 
    4.1302549009058981E-01 
    4.1165782082090957E-01 
    4.1116623197075625E-01 
    4.1180252771081910E-01 
    4.1392182343628436E-01 
    4.1705367583794167E-01 
    4.2000920801435326E-01 
    4.2019911162954360E-01 
    4.1045100177936711E-01 
    3.6892382856210199E-01 
    2.5390152319612075E-01 
    6.0789737839570077E-02 
    3.1007949744438201E-01 
    3.0545723391491242E-01 
    3.0040087014583133E-01 
    2.9486031047722067E-01 
    2.9529852284186825E-01 
    2.9545933646455413E-01 
    2.9688103584101744E-01 
    3.0027824344285886E-01 
    3.1075951239229033E-01 
    3.2418123268153320E-01 
    3.4038101794822984E-01 
    3.5713198535846796E-01 
    3.6892382856174538E-01 
    3.5803931602480255E-01 
    2.8408617979077611E-01 
    9.9247239578713842E-02 
    1.0146312078977499E-01 
    9.5040738451940276E-02 
    8.8268330194405747E-02 
    8.1504537224515977E-02 
    8.3959330092646237E-02 
    8.3806996883047186E-02 
    8.5887907902334720E-02 
    9.2039620775737935E-02 
    1.1321554382060911E-01 
    1.3933590732318715E-01 
    1.7309222379071565E-01 
    2.1259339391550519E-01 
    2.5390152319495934E-01 
    2.8408617979008183E-01 
    2.7147714160067532E-01 
    8.5240367915332335E-02 
    2.2212432864710191E-03 
    1.8240579901872178E-03 
    1.4635721649246744E-03 
    1.1623819509861166E-03 
    1.2850762133252472E-03 
    1.2535498108992033E-03 
    1.3499241737229325E-03 
    1.6822470326033623E-03 
    3.3328217571283705E-03 
    6.4258312203088145E-03 
    1.3603396377304610E-02 
    2.9499196528266394E-02 
    6.0789737838352252E-02 
    9.9247239577530552E-02 
    8.5240367915139018E-02 
    6.2196498319652010E-04 
