# vtk DataFile Version 2.0
Pressure Field Data 
ASCII 
DATASET UNSTRUCTURED_GRID 

POINTS 289 double 

    0.0000000000000000E+00     0.0000000000000000E+00     0.0000000000000000E+00 
    1.0000000000000000E+00     0.0000000000000000E+00     0.0000000000000000E+00 
    1.0000000000000000E+00     1.0000000000000000E+00     0.0000000000000000E+00 
    0.0000000000000000E+00     1.0000000000000000E+00     0.0000000000000000E+00 
    6.2499999999872928E-02     0.0000000000000000E+00     0.0000000000000000E+00 
    1.2499999999977310E-01     0.0000000000000000E+00     0.0000000000000000E+00 
    1.8749999999959341E-01     0.0000000000000000E+00     0.0000000000000000E+00 
    2.4999999999941089E-01     0.0000000000000000E+00     0.0000000000000000E+00 
    3.1249999999922851E-01     0.0000000000000000E+00     0.0000000000000000E+00 
    3.7499999999904610E-01     0.0000000000000000E+00     0.0000000000000000E+00 
    4.3749999999886358E-01     0.0000000000000000E+00     0.0000000000000000E+00 
    4.9999999999869210E-01     0.0000000000000000E+00     0.0000000000000000E+00 
    5.6249999999884603E-01     0.0000000000000000E+00     0.0000000000000000E+00 
    6.2499999999901090E-01     0.0000000000000000E+00     0.0000000000000000E+00 
    6.8749999999917577E-01     0.0000000000000000E+00     0.0000000000000000E+00 
    7.4999999999934064E-01     0.0000000000000000E+00     0.0000000000000000E+00 
    8.1249999999950551E-01     0.0000000000000000E+00     0.0000000000000000E+00 
    8.7499999999967026E-01     0.0000000000000000E+00     0.0000000000000000E+00 
    9.3749999999983513E-01     0.0000000000000000E+00     0.0000000000000000E+00 
    1.0000000000000000E+00     6.2499999999872928E-02     0.0000000000000000E+00 
    1.0000000000000000E+00     1.2499999999977310E-01     0.0000000000000000E+00 
    1.0000000000000000E+00     1.8749999999959341E-01     0.0000000000000000E+00 
    1.0000000000000000E+00     2.4999999999941089E-01     0.0000000000000000E+00 
    1.0000000000000000E+00     3.1249999999922851E-01     0.0000000000000000E+00 
    1.0000000000000000E+00     3.7499999999904610E-01     0.0000000000000000E+00 
    1.0000000000000000E+00     4.3749999999886358E-01     0.0000000000000000E+00 
    1.0000000000000000E+00     4.9999999999869210E-01     0.0000000000000000E+00 
    1.0000000000000000E+00     5.6249999999884603E-01     0.0000000000000000E+00 
    1.0000000000000000E+00     6.2499999999901090E-01     0.0000000000000000E+00 
    1.0000000000000000E+00     6.8749999999917577E-01     0.0000000000000000E+00 
    1.0000000000000000E+00     7.4999999999934064E-01     0.0000000000000000E+00 
    1.0000000000000000E+00     8.1249999999950551E-01     0.0000000000000000E+00 
    1.0000000000000000E+00     8.7499999999967026E-01     0.0000000000000000E+00 
    1.0000000000000000E+00     9.3749999999983513E-01     0.0000000000000000E+00 
    9.3749999999973976E-01     1.0000000000000000E+00     0.0000000000000000E+00 
    8.7499999999950118E-01     1.0000000000000000E+00     0.0000000000000000E+00 
    8.1249999999991318E-01     1.0000000000000000E+00     0.0000000000000000E+00 
    7.5000000000034706E-01     1.0000000000000000E+00     0.0000000000000000E+00 
    6.8750000000078049E-01     1.0000000000000000E+00     0.0000000000000000E+00 
    6.2500000000121403E-01     1.0000000000000000E+00     0.0000000000000000E+00 
    5.6250000000164757E-01     1.0000000000000000E+00     0.0000000000000000E+00 
    5.0000000000205946E-01     1.0000000000000000E+00     0.0000000000000000E+00 
    4.3750000000182099E-01     1.0000000000000000E+00     0.0000000000000000E+00 
    3.7500000000156092E-01     1.0000000000000000E+00     0.0000000000000000E+00 
    3.1250000000130068E-01     1.0000000000000000E+00     0.0000000000000000E+00 
    2.5000000000104050E-01     1.0000000000000000E+00     0.0000000000000000E+00 
    1.8750000000078040E-01     1.0000000000000000E+00     0.0000000000000000E+00 
    1.2500000000052031E-01     1.0000000000000000E+00     0.0000000000000000E+00 
    6.2500000000260125E-02     1.0000000000000000E+00     0.0000000000000000E+00 
    0.0000000000000000E+00     9.3749999999973976E-01     0.0000000000000000E+00 
    0.0000000000000000E+00     8.7499999999950118E-01     0.0000000000000000E+00 
    0.0000000000000000E+00     8.1249999999991318E-01     0.0000000000000000E+00 
    0.0000000000000000E+00     7.5000000000034706E-01     0.0000000000000000E+00 
    0.0000000000000000E+00     6.8750000000078049E-01     0.0000000000000000E+00 
    0.0000000000000000E+00     6.2500000000121403E-01     0.0000000000000000E+00 
    0.0000000000000000E+00     5.6250000000164757E-01     0.0000000000000000E+00 
    0.0000000000000000E+00     5.0000000000205946E-01     0.0000000000000000E+00 
    0.0000000000000000E+00     4.3750000000182099E-01     0.0000000000000000E+00 
    0.0000000000000000E+00     3.7500000000156092E-01     0.0000000000000000E+00 
    0.0000000000000000E+00     3.1250000000130068E-01     0.0000000000000000E+00 
    0.0000000000000000E+00     2.5000000000104050E-01     0.0000000000000000E+00 
    0.0000000000000000E+00     1.8750000000078040E-01     0.0000000000000000E+00 
    0.0000000000000000E+00     1.2500000000052031E-01     0.0000000000000000E+00 
    0.0000000000000000E+00     6.2500000000260125E-02     0.0000000000000000E+00 
    6.2499999999897131E-02     6.2500000000235922E-02     0.0000000000000000E+00 
    6.2499999999921327E-02     1.2500000000047351E-01     0.0000000000000000E+00 
    6.2499999999945530E-02     1.8750000000070621E-01     0.0000000000000000E+00 
    6.2499999999969733E-02     2.5000000000093858E-01     0.0000000000000000E+00 
    6.2499999999993928E-02     3.1250000000117117E-01     0.0000000000000000E+00 
    6.2500000000018124E-02     3.7500000000140382E-01     0.0000000000000000E+00 
    6.2500000000042327E-02     4.3750000000163619E-01     0.0000000000000000E+00 
    6.2500000000066530E-02     5.0000000000184897E-01     0.0000000000000000E+00 
    6.2500000000090733E-02     5.6250000000147260E-01     0.0000000000000000E+00 
    6.2500000000114922E-02     6.2500000000107636E-01     0.0000000000000000E+00 
    6.2500000000139125E-02     6.8750000000068034E-01     0.0000000000000000E+00 
    6.2500000000163328E-02     7.5000000000028411E-01     0.0000000000000000E+00 
    6.2500000000187531E-02     8.1249999999988787E-01     0.0000000000000000E+00 
    6.2500000000211720E-02     8.7499999999951172E-01     0.0000000000000000E+00 
    6.2500000000235922E-02     9.3749999999974565E-01     0.0000000000000000E+00 
    1.2499999999981980E-01     6.2500000000211733E-02     0.0000000000000000E+00 
    1.2499999999986650E-01     1.2500000000042691E-01     0.0000000000000000E+00 
    1.2499999999991319E-01     1.8750000000063199E-01     0.0000000000000000E+00 
    1.2499999999995989E-01     2.5000000000083678E-01     0.0000000000000000E+00 
    1.2500000000000661E-01     3.1250000000104172E-01     0.0000000000000000E+00 
    1.2500000000005329E-01     3.7500000000124661E-01     0.0000000000000000E+00 
    1.2500000000010000E-01     4.3750000000145117E-01     0.0000000000000000E+00 
    1.2500000000014669E-01     5.0000000000163858E-01     0.0000000000000000E+00 
    1.2500000000019340E-01     5.6250000000129741E-01     0.0000000000000000E+00 
    1.2500000000024011E-01     6.2500000000093847E-01     0.0000000000000000E+00 
    1.2500000000028680E-01     6.8750000000057998E-01     0.0000000000000000E+00 
    1.2500000000033351E-01     7.5000000000022127E-01     0.0000000000000000E+00 
    1.2500000000038020E-01     8.1249999999986211E-01     0.0000000000000000E+00 
    1.2500000000042691E-01     8.7499999999952238E-01     0.0000000000000000E+00 
    1.2500000000047359E-01     9.3749999999975164E-01     0.0000000000000000E+00 
    1.8749999999966760E-01     6.2500000000187531E-02     0.0000000000000000E+00 
    1.8749999999974179E-01     1.2500000000038020E-01     0.0000000000000000E+00 
    1.8749999999981601E-01     1.8750000000055780E-01     0.0000000000000000E+00 
    1.8749999999989009E-01     2.5000000000073502E-01     0.0000000000000000E+00 
    1.8749999999996431E-01     3.1250000000091221E-01     0.0000000000000000E+00 
    1.8750000000003850E-01     3.7500000000108941E-01     0.0000000000000000E+00 
    1.8750000000011269E-01     4.3750000000126649E-01     0.0000000000000000E+00 
    1.8750000000018691E-01     5.0000000000142808E-01     0.0000000000000000E+00 
    1.8750000000026110E-01     5.6250000000112244E-01     0.0000000000000000E+00 
    1.8750000000033529E-01     6.2500000000080080E-01     0.0000000000000000E+00 
    1.8750000000040951E-01     6.8750000000047962E-01     0.0000000000000000E+00 
    1.8750000000048361E-01     7.5000000000015843E-01     0.0000000000000000E+00 
    1.8750000000055780E-01     8.1249999999983680E-01     0.0000000000000000E+00 
    1.8750000000063199E-01     8.7499999999953304E-01     0.0000000000000000E+00 
    1.8750000000070621E-01     9.3749999999975764E-01     0.0000000000000000E+00 
    2.4999999999951281E-01     6.2500000000163314E-02     0.0000000000000000E+00 
    2.4999999999961461E-01     1.2500000000033351E-01     0.0000000000000000E+00 
    2.4999999999971650E-01     1.8750000000048361E-01     0.0000000000000000E+00 
    2.4999999999981831E-01     2.5000000000063310E-01     0.0000000000000000E+00 
    2.4999999999992020E-01     3.1250000000078260E-01     0.0000000000000000E+00 
    2.5000000000002198E-01     3.7500000000093209E-01     0.0000000000000000E+00 
    2.5000000000012390E-01     4.3750000000108180E-01     0.0000000000000000E+00 
    2.5000000000022571E-01     5.0000000000121769E-01     0.0000000000000000E+00 
    2.5000000000032763E-01     5.6250000000094724E-01     0.0000000000000000E+00 
    2.5000000000042938E-01     6.2500000000066314E-01     0.0000000000000000E+00 
    2.5000000000053119E-01     6.8750000000037925E-01     0.0000000000000000E+00 
[...]
CELL_DATA 256 
SCALARS Pressure double 1 
LOOKUP_TABLE default 

    1.6832002283784033E+00 
    1.5784256754353161E+00 
    1.5110286158504465E+00 
    1.4611032163317905E+00 
    1.4205546189095168E+00 
    1.3857740363943101E+00 
    1.3550173355753736E+00 
    1.3274160263524157E+00 
    1.3025647793325041E+00 
    1.2803279258556928E+00 
    1.2607347214589519E+00 
    1.2439112707490541E+00 
    1.2300242409203301E+00 
    1.2192274034158666E+00 
    1.2115692300376470E+00 
    1.2070711324668202E+00 
    1.5784256754358690E+00 
    1.5351632455745328E+00 
    1.4894486457692466E+00 
    1.4483002363288546E+00 
    1.4118069174793522E+00 
    1.3791000073087707E+00 
    1.3494670451329249E+00 
    1.3224779308763499E+00 
    1.2979373383859254E+00 
    1.2758219145360405E+00 
    1.2562288989992152E+00 
    1.2393320986626248E+00 
    1.2253363429827206E+00 
    1.2144257650727166E+00 
    1.2066723868430065E+00 
    1.2021133448809380E+00 
    1.5110286158512136E+00 
    1.4894486457696139E+00 
    1.4593286675833432E+00 
    1.4274247405399629E+00 
    1.3962736427340046E+00 
    1.3666773996874302E+00 
    1.3388546231506919E+00 
    1.3128823062139783E+00 
    1.2888514130052249E+00 
    1.2669107388070799E+00 
    1.2472716078435186E+00 
    1.2301930759253281E+00 
    1.2159515246407999E+00 
    1.2047902704740112E+00 
    1.1968291385768837E+00 
    1.1921378091303514E+00 
    1.4611032163327005E+00 
    1.4483002363294630E+00 
    1.4274247405402480E+00 
    1.4026056911374802E+00 
    1.3763180622774100E+00 
    1.3498854960039557E+00 
    1.3240219707336327E+00 
    1.2991661014633795E+00 
    1.2756575694964565E+00 
    1.2538197845576844E+00 
    1.2339955732009080E+00 
    1.2165527053028637E+00 
    1.2018644199555368E+00 
    1.1902614199745452E+00 
    1.1819402591218748E+00 
    1.1770218494776454E+00 
    1.4205546189105394E+00 
    1.4118069174801264E+00 
    1.3962736427344995E+00 
    1.3763180622776390E+00 
    1.3538110996313657E+00 
    1.3300442720710279E+00 
    1.3058898443181228E+00 
    1.2819748360603647E+00 
    1.2588076096705336E+00 
    1.2368557000471259E+00 
    1.2165894199478167E+00 
    1.1984968637270019E+00 
    1.1830689973299096E+00 
    1.1707549870577698E+00 
    1.1618606107516325E+00 
    1.1565797881198621E+00 
    1.3857740363954285E+00 
    1.3791000073096689E+00 
    1.3666773996880828E+00 
    1.3498854960043662E+00 
    1.3300442720712198E+00 
    1.3082372524628354E+00 
    1.2853159256200088E+00 
    1.2619689308000450E+00 
    1.2387968124137436E+00 
    1.2163707460987261E+00 
    1.1952738190144545E+00 
    1.1761189497131950E+00 
    1.1595378644205347E+00 
    1.1461342175417131E+00 
    1.1363623587406377E+00 
    1.1305227663874040E+00 
    1.3550173355765716E+00 
    1.3494670451339199E+00 
    1.3388546231514662E+00 
    1.3240219707341887E+00 
    1.3058898443184765E+00 
    1.2853159256201780E+00 
    1.2630561919990757E+00 
    1.2397842570983360E+00 
    1.2161336678084644E+00 
    1.1927404902003726E+00 
    1.1702822228129239E+00 
    1.1494990699161234E+00 
    1.1311897187982087E+00 
    1.1161572644540176E+00 
    1.1050667473327764E+00 
    1.0983836279374999E+00 
    1.3274160263536698E+00 
    1.3224779308774139E+00 
    1.3128823062148425E+00 
    1.2991661014640490E+00 
    1.2819748360608529E+00 
    1.2619689308003648E+00 
    1.2397842570984954E+00 
    1.2160355619736904E+00 
    1.1913445584320599E+00 
    1.1663759078369333E+00 
    1.1418792754691911E+00 
    1.1187220448244839E+00 
    1.0978975204856061E+00 
    1.0804710990418389E+00 
    1.0674177581378845E+00 
    1.0594660302113141E+00 
    1.3025647793335842E+00 
    1.2979373383868558E+00 
    1.2888514130060067E+00 
    1.2756575694970986E+00 
    1.2588076096710474E+00 
    1.2387968124141382E+00 
    1.2161336678087429E+00 
    1.1913445584322153E+00 
    1.1650002941285282E+00 
    1.1377544977520646E+00 
    1.1103966562455083E+00 
    1.0839101959013751E+00 
    1.0595087217396029E+00 
    1.0386058944220498E+00 
    1.0226372036545051E+00 
    1.0127630567472972E+00 
    1.2803279258564644E+00 
    1.2758219145367160E+00 
    1.2669107388076701E+00 
    1.2538197845582038E+00 
    1.2368557000475870E+00 
    1.2163707460991393E+00 
    1.1927404902007415E+00 
    1.1663759078372506E+00 
    1.1377544977522671E+00 
    1.1074661931984524E+00 
    1.0762856204452920E+00 
    1.0452726576124147E+00 
    1.0158685829671603E+00 
    9.8993378817808408E-01 
    9.6959115205203206E-01 
    9.5674549576559176E-01 
    1.2607347214594538E+00 
    1.2562288989996657E+00 
    1.2472716078439372E+00 
    1.2339955732013164E+00 
    1.2165894199482332E+00 
    1.1952738190148964E+00 
    1.1702822228133998E+00 
    1.1418792754697009E+00 
    1.1103966562459597E+00 
    1.0762856204455522E+00 
    1.0402108893507398E+00 
    1.0032107054074855E+00 
    9.6689670967276853E-01 
    9.3364528798118884E-01 
    9.0659453129152545E-01 
    8.8899124340824287E-01 
    1.2439112707493321E+00 
    1.2393320986628891E+00 
    1.2301930759256052E+00 
    1.2165527053031846E+00 
    1.1984968637273936E+00 
    1.1761189497136839E+00 
    1.1494990699167309E+00 
    1.1187220448252237E+00 
    1.0839101959021302E+00 
    1.0452726576130020E+00 
    1.0032107054078241E+00 
    9.5853794711438178E-01 
    9.1282407988995418E-01 
    8.6888100271750535E-01 
    8.3122416398050147E-01 
    8.0556113846906141E-01 
    1.2300242409204323E+00 
    1.2253363429828394E+00 
    1.2159515246409698E+00 
    1.2018644199557995E+00 
    1.1830689973303024E+00 
    1.1595378644210961E+00 
    1.1311897187989781E+00 
    1.0978975204866177E+00 
    1.0595087217407189E+00 
    1.0158685829681420E+00 
    9.6689670967352903E-01 
    9.1282407989039427E-01 
    8.5466359459165420E-01 
    7.9512095813748052E-01 
    7.4009995388166894E-01 
    6.9964899693630200E-01 
    1.2192274034158477E+00 
    1.2144257650727373E+00 
    1.2047902704741140E+00 
    1.1902614199747839E+00 
    1.1707549870581933E+00 
    1.1461342175423752E+00 
    1.1161572644549784E+00 
    1.0804710990431581E+00 
    1.0386058944235734E+00 
    9.8993378817951538E-01 
    9.3364528798243840E-01 
    8.6888100271847379E-01 
    7.9512095813803763E-01 
    7.1333197259591252E-01 
    6.2901894904226940E-01 
    5.5821893043050397E-01 
    1.2115692300376120E+00 
    1.2066723868430220E+00 
    1.1968291385770005E+00 
    1.1819402591221579E+00 
    1.1618606107521448E+00 
    1.1363623587414475E+00 
    1.1050667473339637E+00 
    1.0674177581395370E+00 
    1.0226372036564511E+00 
    9.6959115205390756E-01 
    9.0659453129323253E-01 
    8.3122416398192922E-01 
    7.4009995388265892E-01 
    6.2901894904260980E-01 
    4.9546377253989560E-01 
    3.5237629917840924E-01 
    1.2070711324667978E+00 
    1.2021133448809733E+00 
    1.1921378091305037E+00 
    1.1770218494779909E+00 
    1.1565797881204762E+00 
    1.1305227663883701E+00 
    1.0983836279389172E+00 
    1.0594660302132952E+00 
    1.0127630567496502E+00 
    9.5674549576788659E-01 
    8.8899124341036961E-01 
    8.0556113847088795E-01 
    6.9964899693761384E-01 
    5.5821893043090864E-01 
    3.5237629917793800E-01 
    0.0000000000000000E+00 

SCALARS Saturarion double 1 
LOOKUP_TABLE default 

    1.0000000000000000E+00 
    9.6735246284777299E-01 
    9.3705047699935073E-01 
    9.0351436452616007E-01 
    8.6837397115020476E-01 
    8.3302841917358972E-01 
    7.9793271544199862E-01 
    7.6325988863403338E-01 
    7.2871234458444789E-01 
    6.9398151196722335E-01 
    6.5815199560173898E-01 
    6.1994007557628528E-01 
    5.7643523427824672E-01 
    5.2201679131039302E-01 
    4.3761351802829557E-01 
    2.4935494638153849E-01 
    9.6735246284793541E-01 
    9.4437055781356949E-01 
    9.1664514235720385E-01 
    8.8595980266776431E-01 
    8.5358462506494570E-01 
    8.2074070686222855E-01 
    7.8784045658263513E-01 
    7.5511594349018607E-01 
    7.2228979901003010E-01 
    6.8905365253116480E-01 
    6.5453249533256852E-01 
    6.1748068545595614E-01 
    5.7501708404500651E-01 
    5.2140762684569519E-01 
    4.3764708379765110E-01 
    2.4981023392504109E-01 
    9.3705047699979294E-01 
    9.1664514235740813E-01 
    8.9161331975344560E-01 
    8.6396389023081854E-01 
    8.3471681060619651E-01 
    8.0482032635900380E-01 
    7.7464976600322932E-01 
    7.4444738147853506E-01 
    7.1395154413059969E-01 
    6.8274264645961336E-01 
    6.5001981138720721E-01 
    6.1455142856433320E-01 
    5.7355070244316153E-01 
    5.2100363712340669E-01 
    4.3817255154342577E-01 
    2.5132130355520993E-01 
    9.0351436452688216E-01 
    8.8595980266824548E-01 
    8.6396389023105002E-01 
    8.3949189293522131E-01 
    8.1353736968597279E-01 
    7.8686893404318203E-01 
    7.5979028480715072E-01 
    7.3240937493204161E-01 
    7.0453204571378614E-01 
    6.7569018906622147E-01 
    6.4513319274381531E-01 
    6.1148704757030581E-01 
    5.7227481495594057E-01 
    5.2087274435145092E-01 
    4.3933506536637856E-01 
    2.5415436494934901E-01 
    8.6837397115120962E-01 
    8.5358462506566679E-01 
    8.3471681060665048E-01 
    8.1353736968619605E-01 
    7.9094699615151520E-01 
    7.6757170480210346E-01 
    7.4366568944117351E-01 
    7.1936758481023033E-01 
    6.9438096025389850E-01 
    6.6831970744685743E-01 
    6.4027631306385913E-01 
    6.0899653328791736E-01 
    5.7156928237649807E-01 
    5.2236406566962168E-01 
    4.4248049606749634E-01 
    2.6001159591991779E-01 
    8.3302841917469928E-01 
    8.2074070686312472E-01 
    8.0482032635964329E-01 
    7.8686893404358749E-01 
    7.6757170480229242E-01 
    7.4754618781256410E-01 
    7.2687248189612796E-01 
    7.0572336355904108E-01 
    6.8372178012689888E-01 
    6.6055396132196120E-01 
    6.3524124844031682E-01 
    6.0649028612429245E-01 
    5.7136594066268043E-01 
    5.2424818383060279E-01 
    4.4655784279751853E-01 
    2.6780461496861757E-01 
    7.9793271544334710E-01 
    7.8784045658376345E-01 
    7.7464976600405933E-01 
    7.5979028480771782E-01 
    7.4366568944153277E-01 
    7.2687248189628395E-01 
    7.0942468808625914E-01 
    6.9148719831246419E-01 
    6.7263418692218080E-01 
    6.5248119003247562E-01 
    6.3009107399752640E-01 
    6.0412113711564919E-01 
    5.7171554287070780E-01 
    5.2697817582861495E-01 
    4.5197071388631094E-01 
    2.7790471180342474E-01 
    7.6325988863555871E-01 
    7.5511594349144107E-01 
    7.4444738147950495E-01 
    7.3240937493278258E-01 
    7.1936758481073471E-01 
    7.0572336355934040E-01 
    6.9148719831259231E-01 
    6.7673874440073956E-01 
    6.6111237803729683E-01 
    6.4413352753471342E-01 
    6.2488681614851416E-01 
    6.0192718214871754E-01 
    5.7263212187512080E-01 
    5.3063160718579583E-01 
    4.5895181972709581E-01 
    2.9050336544664318E-01 
    7.2871234458567935E-01 
    7.2228979901106904E-01 
    7.1395154413144002E-01 
    7.0453204571442318E-01 
    6.9438096025434093E-01 
    6.8372178012717144E-01 
    6.7263418692232102E-01 
    6.6111237803734846E-01 
    6.4883504152718630E-01 
    6.3524256707230142E-01 
    6.1943361997709834E-01 
    5.9997700909354901E-01 
    5.7408395499228015E-01 
    5.3594223768486360E-01 
    4.6847836967719014E-01 
    3.0678249272360308E-01 
    6.9398151196817481E-01 
    6.8905365253195316E-01 
    6.8274264646027538E-01 
    6.7569018906669942E-01 
    6.6831970744721014E-01 
    6.6055396132218980E-01 
    6.5248119003259841E-01 
    6.4413352753477449E-01 
    6.3524256707231586E-01 
    6.2520484951525401E-01 
    6.1310756524173338E-01 
    5.9753075467101446E-01 
    5.7571271630724374E-01 
    5.4193717310760237E-01 
    4.7983641200000321E-01 
    3.2611098028218266E-01 
    6.5815199560244286E-01 
    6.5453249533316304E-01 
    6.5001981138768872E-01 
    6.4513319274417202E-01 
    6.4027631306411925E-01 
    6.3524124844047847E-01 
    6.3009107399762532E-01 
    6.2488681614856267E-01 
    6.1943361997708879E-01 
    6.1310756524170196E-01 
    6.0503762248545478E-01 
    5.9383659330593652E-01 
    5.7682373559520383E-01 
    5.4837667278146252E-01 
    4.9307683852817474E-01 
    3.4905265604358165E-01 
    6.1994007557675690E-01 
    6.1748068545635348E-01 
    6.1455142856464173E-01 
    6.1148704757052375E-01 
    6.0899653328806203E-01 
    6.0649028612437406E-01 
    6.0412113711566584E-01 
    6.0192718214867613E-01 
    5.9997700909345986E-01 
    5.9753075467091044E-01 
    5.9383659330586103E-01 
    5.8757874137631028E-01 
    5.7619274838387735E-01 
    5.5431797885043832E-01 
    5.0761232614449858E-01 
    3.7565807019714448E-01 
    5.7643523427842280E-01 
    5.7501708404514784E-01 
    5.7355070244325290E-01 
    5.7227481495598098E-01 
    5.7156928237648286E-01 
    5.7136594066261326E-01 
    5.7171554287058568E-01 
    5.7263212187494605E-01 
    5.7408395499206966E-01 
    5.7571271630703136E-01 
    5.7682373559501909E-01 
    5.7619274838376855E-01 
    5.7149815418021199E-01 
    5.5783072762690467E-01 
    5.2222689145828682E-01 
    4.0676042689171943E-01 
    5.2201679131018686E-01 
    5.2140762684548403E-01 
    5.2100363712319198E-01 
    5.2087274435121511E-01 
    5.2236406566935567E-01 
    5.2424818383030269E-01 
    5.2697817582827233E-01 
    5.3063160718540658E-01 
    5.3594223768446325E-01 
    5.4193717310722023E-01 
    5.4837667278113145E-01 
    5.5431797885020095E-01 
    5.5783072762679065E-01 
    5.5450741842281481E-01 
    5.3313096040932795E-01 
    4.4071799410542872E-01 
    4.3761351802815257E-01 
    4.3764708379750350E-01 
    4.3817255154327134E-01 
    4.3933506536620665E-01 
    4.4248049606729051E-01 
    4.4655784279725741E-01 
    4.5197071388597460E-01 
    4.5895181972665622E-01 
    4.6847836967672024E-01 
    4.7983641199952937E-01 
    4.9307683852774320E-01 
    5.0761232614414553E-01 
    5.2222689145805645E-01 
    5.3313096040922825E-01 
    5.3100716183225483E-01 
    4.7213607860106821E-01 
    2.4935494638149797E-01 
    2.4981023392499763E-01 
    2.5132130355516474E-01 
    2.5415436494927890E-01 
    2.6001159591978040E-01 
    2.6780461496837910E-01 
    2.7790471180305204E-01 
    2.9050336544609856E-01 
    3.0678249272306019E-01 
    3.2611098028166458E-01 
    3.4905265604313407E-01 
    3.7565807019680958E-01 
    4.0676042689155861E-01 
    4.4071799410547707E-01 
    4.7213607860109286E-01 
    4.7137389827049986E-01 
