# vtk DataFile Version 2.0
Pressure Field Data 
ASCII 
DATASET UNSTRUCTURED_GRID 

POINTS 289 double 

    0.0000000000000000E+00     0.0000000000000000E+00     0.0000000000000000E+00 
    1.0000000000000000E+00     0.0000000000000000E+00     0.0000000000000000E+00 
    1.0000000000000000E+00     1.0000000000000000E+00     0.0000000000000000E+00 
    0.0000000000000000E+00     1.0000000000000000E+00     0.0000000000000000E+00 
    6.2499999999872928E-02     0.0000000000000000E+00     0.0000000000000000E+00 
    1.2499999999977310E-01     0.0000000000000000E+00     0.0000000000000000E+00 
    1.8749999999959341E-01     0.0000000000000000E+00     0.0000000000000000E+00 
    2.4999999999941089E-01     0.0000000000000000E+00     0.0000000000000000E+00 
    3.1249999999922851E-01     0.0000000000000000E+00     0.0000000000000000E+00 
    3.7499999999904610E-01     0.0000000000000000E+00     0.0000000000000000E+00 
    4.3749999999886358E-01     0.0000000000000000E+00     0.0000000000000000E+00 
    4.9999999999869210E-01     0.0000000000000000E+00     0.0000000000000000E+00 
    5.6249999999884603E-01     0.0000000000000000E+00     0.0000000000000000E+00 
    6.2499999999901090E-01     0.0000000000000000E+00     0.0000000000000000E+00 
    6.8749999999917577E-01     0.0000000000000000E+00     0.0000000000000000E+00 
    7.4999999999934064E-01     0.0000000000000000E+00     0.0000000000000000E+00 
    8.1249999999950551E-01     0.0000000000000000E+00     0.0000000000000000E+00 
    8.7499999999967026E-01     0.0000000000000000E+00     0.0000000000000000E+00 
    9.3749999999983513E-01     0.0000000000000000E+00     0.0000000000000000E+00 
    1.0000000000000000E+00     6.2499999999872928E-02     0.0000000000000000E+00 
    1.0000000000000000E+00     1.2499999999977310E-01     0.0000000000000000E+00 
    1.0000000000000000E+00     1.8749999999959341E-01     0.0000000000000000E+00 
    1.0000000000000000E+00     2.4999999999941089E-01     0.0000000000000000E+00 
    1.0000000000000000E+00     3.1249999999922851E-01     0.0000000000000000E+00 
    1.0000000000000000E+00     3.7499999999904610E-01     0.0000000000000000E+00 
    1.0000000000000000E+00     4.3749999999886358E-01     0.0000000000000000E+00 
    1.0000000000000000E+00     4.9999999999869210E-01     0.0000000000000000E+00 
    1.0000000000000000E+00     5.6249999999884603E-01     0.0000000000000000E+00 
    1.0000000000000000E+00     6.2499999999901090E-01     0.0000000000000000E+00 
    1.0000000000000000E+00     6.8749999999917577E-01     0.0000000000000000E+00 
    1.0000000000000000E+00     7.4999999999934064E-01     0.0000000000000000E+00 
    1.0000000000000000E+00     8.1249999999950551E-01     0.0000000000000000E+00 
    1.0000000000000000E+00     8.7499999999967026E-01     0.0000000000000000E+00 
    1.0000000000000000E+00     9.3749999999983513E-01     0.0000000000000000E+00 
    9.3749999999973976E-01     1.0000000000000000E+00     0.0000000000000000E+00 
    8.7499999999950118E-01     1.0000000000000000E+00     0.0000000000000000E+00 
    8.1249999999991318E-01     1.0000000000000000E+00     0.0000000000000000E+00 
    7.5000000000034706E-01     1.0000000000000000E+00     0.0000000000000000E+00 
    6.8750000000078049E-01     1.0000000000000000E+00     0.0000000000000000E+00 
    6.2500000000121403E-01     1.0000000000000000E+00     0.0000000000000000E+00 
    5.6250000000164757E-01     1.0000000000000000E+00     0.0000000000000000E+00 
    5.0000000000205946E-01     1.0000000000000000E+00     0.0000000000000000E+00 
    4.3750000000182099E-01     1.0000000000000000E+00     0.0000000000000000E+00 
    3.7500000000156092E-01     1.0000000000000000E+00     0.0000000000000000E+00 
    3.1250000000130068E-01     1.0000000000000000E+00     0.0000000000000000E+00 
    2.5000000000104050E-01     1.0000000000000000E+00     0.0000000000000000E+00 
    1.8750000000078040E-01     1.0000000000000000E+00     0.0000000000000000E+00 
    1.2500000000052031E-01     1.0000000000000000E+00     0.0000000000000000E+00 
    6.2500000000260125E-02     1.0000000000000000E+00     0.0000000000000000E+00 
    0.0000000000000000E+00     9.3749999999973976E-01     0.0000000000000000E+00 
    0.0000000000000000E+00     8.7499999999950118E-01     0.0000000000000000E+00 
    0.0000000000000000E+00     8.1249999999991318E-01     0.0000000000000000E+00 
    0.0000000000000000E+00     7.5000000000034706E-01     0.0000000000000000E+00 
    0.0000000000000000E+00     6.8750000000078049E-01     0.0000000000000000E+00 
    0.0000000000000000E+00     6.2500000000121403E-01     0.0000000000000000E+00 
    0.0000000000000000E+00     5.6250000000164757E-01     0.0000000000000000E+00 
    0.0000000000000000E+00     5.0000000000205946E-01     0.0000000000000000E+00 
    0.0000000000000000E+00     4.3750000000182099E-01     0.0000000000000000E+00 
    0.0000000000000000E+00     3.7500000000156092E-01     0.0000000000000000E+00 
    0.0000000000000000E+00     3.1250000000130068E-01     0.0000000000000000E+00 
    0.0000000000000000E+00     2.5000000000104050E-01     0.0000000000000000E+00 
    0.0000000000000000E+00     1.8750000000078040E-01     0.0000000000000000E+00 
    0.0000000000000000E+00     1.2500000000052031E-01     0.0000000000000000E+00 
    0.0000000000000000E+00     6.2500000000260125E-02     0.0000000000000000E+00 
    6.2499999999897131E-02     6.2500000000235922E-02     0.0000000000000000E+00 
    6.2499999999921327E-02     1.2500000000047351E-01     0.0000000000000000E+00 
    6.2499999999945530E-02     1.8750000000070621E-01     0.0000000000000000E+00 
    6.2499999999969733E-02     2.5000000000093858E-01     0.0000000000000000E+00 
    6.2499999999993928E-02     3.1250000000117117E-01     0.0000000000000000E+00 
    6.2500000000018124E-02     3.7500000000140382E-01     0.0000000000000000E+00 
    6.2500000000042327E-02     4.3750000000163619E-01     0.0000000000000000E+00 
    6.2500000000066530E-02     5.0000000000184897E-01     0.0000000000000000E+00 
    6.2500000000090733E-02     5.6250000000147260E-01     0.0000000000000000E+00 
    6.2500000000114922E-02     6.2500000000107636E-01     0.0000000000000000E+00 
    6.2500000000139125E-02     6.8750000000068034E-01     0.0000000000000000E+00 
    6.2500000000163328E-02     7.5000000000028411E-01     0.0000000000000000E+00 
    6.2500000000187531E-02     8.1249999999988787E-01     0.0000000000000000E+00 
    6.2500000000211720E-02     8.7499999999951172E-01     0.0000000000000000E+00 
    6.2500000000235922E-02     9.3749999999974565E-01     0.0000000000000000E+00 
    1.2499999999981980E-01     6.2500000000211733E-02     0.0000000000000000E+00 
    1.2499999999986650E-01     1.2500000000042691E-01     0.0000000000000000E+00 
    1.2499999999991319E-01     1.8750000000063199E-01     0.0000000000000000E+00 
    1.2499999999995989E-01     2.5000000000083678E-01     0.0000000000000000E+00 
    1.2500000000000661E-01     3.1250000000104172E-01     0.0000000000000000E+00 
    1.2500000000005329E-01     3.7500000000124661E-01     0.0000000000000000E+00 
    1.2500000000010000E-01     4.3750000000145117E-01     0.0000000000000000E+00 
    1.2500000000014669E-01     5.0000000000163858E-01     0.0000000000000000E+00 
    1.2500000000019340E-01     5.6250000000129741E-01     0.0000000000000000E+00 
    1.2500000000024011E-01     6.2500000000093847E-01     0.0000000000000000E+00 
    1.2500000000028680E-01     6.8750000000057998E-01     0.0000000000000000E+00 
    1.2500000000033351E-01     7.5000000000022127E-01     0.0000000000000000E+00 
    1.2500000000038020E-01     8.1249999999986211E-01     0.0000000000000000E+00 
    1.2500000000042691E-01     8.7499999999952238E-01     0.0000000000000000E+00 
    1.2500000000047359E-01     9.3749999999975164E-01     0.0000000000000000E+00 
    1.8749999999966760E-01     6.2500000000187531E-02     0.0000000000000000E+00 
    1.8749999999974179E-01     1.2500000000038020E-01     0.0000000000000000E+00 
    1.8749999999981601E-01     1.8750000000055780E-01     0.0000000000000000E+00 
    1.8749999999989009E-01     2.5000000000073502E-01     0.0000000000000000E+00 
    1.8749999999996431E-01     3.1250000000091221E-01     0.0000000000000000E+00 
    1.8750000000003850E-01     3.7500000000108941E-01     0.0000000000000000E+00 
    1.8750000000011269E-01     4.3750000000126649E-01     0.0000000000000000E+00 
    1.8750000000018691E-01     5.0000000000142808E-01     0.0000000000000000E+00 
    1.8750000000026110E-01     5.6250000000112244E-01     0.0000000000000000E+00 
    1.8750000000033529E-01     6.2500000000080080E-01     0.0000000000000000E+00 
    1.8750000000040951E-01     6.8750000000047962E-01     0.0000000000000000E+00 
    1.8750000000048361E-01     7.5000000000015843E-01     0.0000000000000000E+00 
    1.8750000000055780E-01     8.1249999999983680E-01     0.0000000000000000E+00 
    1.8750000000063199E-01     8.7499999999953304E-01     0.0000000000000000E+00 
    1.8750000000070621E-01     9.3749999999975764E-01     0.0000000000000000E+00 
    2.4999999999951281E-01     6.2500000000163314E-02     0.0000000000000000E+00 
    2.4999999999961461E-01     1.2500000000033351E-01     0.0000000000000000E+00 
    2.4999999999971650E-01     1.8750000000048361E-01     0.0000000000000000E+00 
    2.4999999999981831E-01     2.5000000000063310E-01     0.0000000000000000E+00 
    2.4999999999992020E-01     3.1250000000078260E-01     0.0000000000000000E+00 
    2.5000000000002198E-01     3.7500000000093209E-01     0.0000000000000000E+00 
    2.5000000000012390E-01     4.3750000000108180E-01     0.0000000000000000E+00 
    2.5000000000022571E-01     5.0000000000121769E-01     0.0000000000000000E+00 
    2.5000000000032763E-01     5.6250000000094724E-01     0.0000000000000000E+00 
    2.5000000000042938E-01     6.2500000000066314E-01     0.0000000000000000E+00 
    2.5000000000053119E-01     6.8750000000037925E-01     0.0000000000000000E+00 
[...]
CELL_DATA 256 
SCALARS Pressure double 1 
LOOKUP_TABLE default 

    1.9944959200581551E+00 
    1.8881690830776354E+00 
    1.8185079011333682E+00 
    1.7660064331078051E+00 
    1.7226706379075791E+00 
    1.6849667790199256E+00 
    1.6512193071890049E+00 
    1.6206247003718028E+00 
    1.5928425439696097E+00 
    1.5678023270268846E+00 
    1.5455949521231249E+00 
    1.5263923270443782E+00 
    1.5103591436632222E+00 
    1.4975448265182187E+00 
    1.4877882047636464E+00 
    1.4821721621974799E+00 
    1.8881690830782019E+00 
    1.8436992881078662E+00 
    1.7959935508971334E+00 
    1.7524208676492226E+00 
    1.7132250214974256E+00 
    1.6776394608450083E+00 
    1.6450334566836819E+00 
    1.6150494373682907E+00 
    1.5875623754217276E+00 
    1.5626183451971971E+00 
    1.5403803677935266E+00 
    1.5210728286907151E+00 
    1.5049037062247386E+00 
    1.4919545105668885E+00 
    1.4820819413761623E+00 
    1.4763978927053605E+00 
    1.8185079011341714E+00 
    1.7959935508975213E+00 
    1.7641763695781860E+00 
    1.7300546839251953E+00 
    1.6963320328330900E+00 
    1.6639293922118596E+00 
    1.6331601165074312E+00 
    1.6041838594595967E+00 
    1.5771703926955614E+00 
    1.5523456734599042E+00 
    1.5299950062599410E+00 
    1.5104374986032358E+00 
    1.4939633994058992E+00 
    1.4807192233202313E+00 
    1.4706049571411599E+00 
    1.4647848378116199E+00 
    1.7660064331087770E+00 
    1.7524208676498758E+00 
    1.7300546839255042E+00 
    1.7031948947744511E+00 
    1.6744582164370574E+00 
    1.6452847794451910E+00 
    1.6164877424980331E+00 
    1.5885953528115875E+00 
    1.5620341409170997E+00 
    1.5372141039852967E+00 
    1.5145636239956106E+00 
    1.4945248169576137E+00 
    1.4775009666342840E+00 
    1.4637397911360159E+00 
    1.4532253986060728E+00 
    1.4471902299438484E+00 
    1.7226706379086871E+00 
    1.7132250214982689E+00 
    1.6963320328336331E+00 
    1.6744582164373114E+00 
    1.6495859228244656E+00 
    1.6231106441579739E+00 
    1.5960005961744894E+00 
    1.5689747637654907E+00 
    1.5426343332934136E+00 
    1.5175431302175781E+00 
    1.4942709731108443E+00 
    1.4733992088901045E+00 
    1.4554711342600661E+00 
    1.4408774791032772E+00 
    1.4297315649677065E+00 
    1.4233497658745102E+00 
    1.6849667790211531E+00 
    1.6776394608459992E+00 
    1.6639293922125840E+00 
    1.6452847794456509E+00 
    1.6231106441581906E+00 
    1.5985784634829756E+00 
    1.5726277167027176E+00 
    1.5460372380007890E+00 
    1.5195038791718720E+00 
    1.4937039626904518E+00 
    1.4693354147032682E+00 
    1.4471272604830738E+00 
    1.4277944784239711E+00 
    1.4119179891336606E+00 
    1.3997858215895265E+00 
    1.3928355155075749E+00 
    1.6512193071903369E+00 
    1.6450334566847917E+00 
    1.6331601165082990E+00 
    1.6164877424986615E+00 
    1.5960005961748918E+00 
    1.5726277167029117E+00 
    1.5472020477228861E+00 
    1.5204817459674371E+00 
    1.4931968974476131E+00 
    1.4660955493087513E+00 
    1.4399855621179938E+00 
    1.4157497090778011E+00 
    1.3943106346975060E+00 
    1.3764975587077437E+00 
    1.3628507509668173E+00 
    1.3550060982246199E+00 
    1.6206247003732117E+00 
    1.6150494373694884E+00 
    1.6041838594605735E+00 
    1.5885953528123498E+00 
    1.5689747637660494E+00 
    1.5460372380011567E+00 
    1.5204817459676212E+00 
    1.4929977227609730E+00 
    1.4642990337312727E+00 
    1.4351652389418503E+00 
    1.4064897165764023E+00 
    1.3793111474020141E+00 
    1.3547956359617064E+00 
    1.3341004770983786E+00 
    1.3181421348120914E+00 
    1.3088855213933153E+00 
    1.5928425439708316E+00 
    1.5875623754227830E+00 
    1.5771703926964526E+00 
    1.5620341409178362E+00 
    1.5426343332940062E+00 
    1.5195038791723294E+00 
    1.4931968974479373E+00 
    1.4642990337314545E+00 
    1.4334622146058305E+00 
    1.4014510085706178E+00 
    1.3692058365237532E+00 
    1.3379083120086877E+00 
    1.3089991245303816E+00 
    1.2840687669508672E+00 
    1.2645819567734680E+00 
    1.2530507495450200E+00 
    1.5678023270277650E+00 
    1.5626183451979712E+00 
    1.5523456734605841E+00 
    1.5372141039858986E+00 
    1.5175431302181166E+00 
    1.4937039626909356E+00 
    1.4660955493091850E+00 
    1.4351652389422249E+00 
    1.4014510085708576E+00 
    1.3656381932458113E+00 
    1.3286470262715495E+00 
    1.2917525719612455E+00 
    1.2566776194334566E+00 
    1.2255615144569856E+00 
    1.2006667359967842E+00 
    1.1854437090041547E+00 
    1.5455949521237045E+00 
    1.5403803677940500E+00 
    1.5299950062604302E+00 
    1.5145636239960911E+00 
    1.4942709731113368E+00 
    1.4693354147037900E+00 
    1.4399855621185571E+00 
    1.4064897165770069E+00 
    1.3692058365242905E+00 
    1.3286470262718608E+00 
    1.2855954658184903E+00 
    1.2412978018603837E+00 
    1.1976860705751735E+00 
    1.1575264729404675E+00 
    1.1242545732912650E+00 
    1.1029849521921549E+00 
    1.5263923270447055E+00 
    1.5210728286910273E+00 
    1.5104374986035651E+00 
    1.4945248169579965E+00 
    1.4733992088905723E+00 
    1.4471272604836560E+00 
    1.4157497090785243E+00 
    1.3793111474028958E+00 
    1.3379083120095911E+00 
    1.2917525719619503E+00 
    1.2412978018607916E+00 
    1.1875118290794535E+00 
    1.1322732194822802E+00 
    1.0788714008784848E+00 
    1.0323346951890042E+00 
    1.0007598552965637E+00 
    1.5103591436633486E+00 
    1.5049037062248849E+00 
    1.4939633994061063E+00 
    1.4775009666346002E+00 
    1.4554711342605358E+00 
    1.4277944784246410E+00 
    1.3943106346984229E+00 
    1.3547956359629150E+00 
    1.3089991245317207E+00 
    1.2566776194346394E+00 
    1.1976860705760937E+00 
    1.1322732194828153E+00 
    1.0616335099197736E+00 
    9.8891661381847396E-01 
    9.2073761629445650E-01 
    8.7033181569524798E-01 
    1.4975448265182003E+00 
    1.4919545105669165E+00 
    1.4807192233203570E+00 
    1.4637397911363008E+00 
    1.4408774791037806E+00 
    1.4119179891344482E+00 
    1.3764975587088877E+00 
    1.3341004770999556E+00 
    1.2840687669526987E+00 
    1.2255615144587142E+00 
    1.1575264729419843E+00 
    1.0788714008796660E+00 
    9.8891661381915696E-01 
    8.8868301433722563E-01 
    7.8417770506908424E-01 
    6.9549915655520278E-01 
    1.4877882047636055E+00 
    1.4820819413761814E+00 
    1.4706049571412987E+00 
    1.4532253986064074E+00 
    1.4297315649683113E+00 
    1.3997858215904859E+00 
    1.3628507509682299E+00 
    1.3181421348140683E+00 
    1.2645819567758101E+00 
    1.2006667359990539E+00 
    1.1242545732933429E+00 
    1.0323346951907495E+00 
    9.2073761629567119E-01 
    7.8417770506950191E-01 
    6.1876714378924347E-01 
    4.3989236322515690E-01 
    1.4821721621974560E+00 
    1.4763978927054042E+00 
    1.4647848378118009E+00 
    1.4471902299442561E+00 
    1.4233497658752341E+00 
    1.3928355155087162E+00 
    1.3550060982263030E+00 
    1.3088855213956843E+00 
    1.2530507495478520E+00 
    1.1854437090069379E+00 
    1.1029849521947519E+00 
    1.0007598552988055E+00 
    8.7033181569686313E-01 
    6.9549915655569827E-01 
    4.3989236322455999E-01 
    0.0000000000000000E+00 

SCALARS Saturarion double 1 
LOOKUP_TABLE default 

    1.0000000000000000E+00 
    9.5683206684522137E-01 
    9.1855807211371587E-01 
    8.7777451677944351E-01 
    8.3637636864476483E-01 
    7.9583474151200662E-01 
    7.5639862471703112E-01 
    7.1805288116522981E-01 
    6.8026776644620623E-01 
    6.4254864604111561E-01 
    6.0364005213189575E-01 
    5.6164375961639490E-01 
    5.1176784045231760E-01 
    4.4333219741662871E-01 
    3.2080558448504209E-01 
    8.8733364574962573E-02 
    9.5683206684542199E-01 
    9.2759806931988686E-01 
    8.9343206576589118E-01 
    8.5678528420062272E-01 
    8.1912968866125779E-01 
    7.8179580464891707E-01 
    7.4505457626124039E-01 
    7.0901326207936610E-01 
    6.7319856002146716E-01 
    6.3713779713910024E-01 
    5.9963947485485070E-01 
    5.5886021177747336E-01 
    5.1002791836018091E-01 
    4.4224058989683962E-01 
    3.1976378889147894E-01 
    8.7390255573190856E-02 
    9.1855807211427110E-01 
    8.9343206576615453E-01 
    8.6334691738552494E-01 
    8.3096246236999116E-01 
    7.9743570943497655E-01 
    7.6380055652781564E-01 
    7.3034710441851169E-01 
    6.9724155129670329E-01 
    6.6406366332241873E-01 
    6.3023107902735687E-01 
    5.9466199187574997E-01 
    5.5554407187175281E-01 
    5.0822797285192101E-01 
    4.4135553036251907E-01 
    3.1929698483100377E-01 
    8.6918191752076324E-02 
    8.7777451678027119E-01 
    8.5678528420119016E-01 
    8.3096246237024884E-01 
    8.0281557609121579E-01 
    7.7347672126106415E-01 
    7.4377796354497583E-01 
    7.1396803142848730E-01 
    6.8408430681152121E-01 
    6.5382316687797570E-01 
    6.2256570114975385E-01 
    5.8931326711515397E-01 
    5.5208811945548941E-01 
    5.0666944561211624E-01 
    4.4074766892813122E-01 
    3.1963187351406380E-01 
    8.7646231802270866E-02 
    8.3637636864581655E-01 
    8.1912968866204550E-01 
    7.9743570943548148E-01 
    7.7347672126129330E-01 
    7.4826930560215232E-01 
    7.2247876233260300E-01 
    6.9632558757288565E-01 
    6.6991401531620398E-01 
    6.4284240825861383E-01 
    6.1461683721744786E-01 
    5.8407132840709353E-01 
    5.4940705152442271E-01 
    5.0585273971335287E-01 
    4.4255878209657151E-01 
    3.2347314085327161E-01 
    9.4578810249330805E-02 
    7.9583474151327016E-01 
    7.8179580464988829E-01 
    7.6380055652853285E-01 
    7.4377796354541859E-01 
    7.2247876233280472E-01 
    7.0056798477842930E-01 
    6.7807157167295851E-01 
    6.5515564821783234E-01 
    6.3134091956172000E-01 
    6.0624124830739845E-01 
    5.7862734875404420E-01 
    5.4668781859050686E-01 
    5.0566432514026050E-01 
    4.4482051521647070E-01 
    3.2881283730327121E-01 
    1.0336536303435756E-01 
    7.5639862471853037E-01 
    7.4505457626242155E-01 
    7.3034710441940509E-01 
    7.1396803142910525E-01 
    6.9632558757326202E-01 
    6.7807157167312970E-01 
    6.5916613215115893E-01 
    6.3977874243441990E-01 
    6.1938509630758398E-01 
    5.9752828686177883E-01 
    5.7304979959808811E-01 
    5.4411748589234499E-01 
    5.0616193098443729E-01 
    4.4819684412635896E-01 
    3.3618881007976426E-01 
    1.1562445681879183E-01 
    7.1805288116690102E-01 
    7.0901326208073956E-01 
    6.9724155129779186E-01 
    6.8408430681231214E-01 
    6.6991401531673123E-01 
    6.5515564821814876E-01 
    6.3977874243453847E-01 
    6.2385976841710877E-01 
    6.0695772571851758E-01 
    5.8851636885047087E-01 
    5.6742156894448414E-01 
    5.4175297221654395E-01 
    5.0737386161185438E-01 
    4.5280047123446693E-01 
    3.4591161108942658E-01 
    1.3264100737863216E-01 
    6.8026776644750486E-01 
    6.7319856002258283E-01 
    6.6406366332332289E-01 
    6.5382316687864817E-01 
    6.4284240825909233E-01 
    6.3134091956202099E-01 
    6.1938509630773220E-01 
    6.0695772571856843E-01 
    5.9368046708491418E-01 
    5.7890085125286783E-01 
    5.6154002832498717E-01 
    5.3974374053429752E-01 
    5.0929519760112829E-01 
    4.5983963960395219E-01 
    3.5969518908232212E-01 
    1.5754439774255144E-01 
    6.4254864604215578E-01 
    6.3713779713997454E-01 
    6.3023107902807074E-01 
    6.2256570115030130E-01 
    6.1461683721783933E-01 
    6.0624124830766724E-01 
    5.9752828686192405E-01 
    5.8851636885053960E-01 
    5.7890085125288304E-01 
    5.6797795585163580E-01 
    5.5467043136417526E-01 
    5.3718562258793356E-01 
    5.1151217826789064E-01 
    4.6783706227978961E-01 
    3.7624424068191215E-01 
    1.8731106689176563E-01 
    6.0364005213267014E-01 
    5.9963947485550062E-01 
    5.9466199187627489E-01 
    5.8931326711556120E-01 
    5.8407132840737408E-01 
    5.7862734875421851E-01 
    5.7304979959818658E-01 
    5.6742156894452989E-01 
    5.6154002832497840E-01 
    5.5467043136414507E-01 
    5.4579750747145728E-01 
    5.3321400156789756E-01 
    5.1319357915945063E-01 
    4.7654328809260216E-01 
    3.9564278733991787E-01 
    2.2147837252608574E-01 
    5.6164375961688939E-01 
    5.5886021177788647E-01 
    5.5554407187207644E-01 
    5.5208811945572478E-01 
    5.4940705152457059E-01 
    5.4668781859056992E-01 
    5.4411748589234377E-01 
    5.4175297221649799E-01 
    5.3974374053420082E-01 
    5.3718562258782498E-01 
    5.3321400156782373E-01 
    5.2624147458474968E-01 
    5.1285050915630015E-01 
    4.8474272831514542E-01 
    4.1694902079112373E-01 
    2.5914931983909612E-01 
    5.1176784045247936E-01 
    5.1002791836028982E-01 
    5.0822797285198817E-01 
    5.0666944561212701E-01 
    5.0585273971330180E-01 
    5.0566432514014181E-01 
    5.0616193098426554E-01 
    5.0737386161163311E-01 
    5.0929519760086861E-01 
    5.1151217826763151E-01 
    5.1319357915923847E-01 
    5.1285050915617658E-01 
    5.0748391630863909E-01 
    4.8993026424214098E-01 
    4.3853099781984123E-01 
    3.0110713197361111E-01 
    4.4333219741631352E-01 
    4.4224058989651932E-01 
    4.4135553036219666E-01 
    4.4074766892778550E-01 
    4.4255878209620608E-01 
    4.4482051521606342E-01 
    4.4819684412589794E-01 
    4.5280047123394640E-01 
    4.5983963960342394E-01 
    4.6783706227929095E-01 
    4.7654328809218460E-01 
    4.8474272831484938E-01 
    4.8993026424199915E-01 
    4.8592183028848773E-01 
    4.5493514897963239E-01 
    3.4474714131572648E-01 
    3.2080558448489205E-01 
    3.1976378889132068E-01 
    3.1929698483083957E-01 
    3.1963187351386863E-01 
    3.2347314085302320E-01 
    3.2881283730293487E-01 
    3.3618881007930562E-01 
    3.4591161108880830E-01 
    3.5969518908165665E-01 
    3.7624424068124684E-01 
    3.9564278733931324E-01 
    4.1694902079063545E-01 
    4.3853099781952837E-01 
    4.5493514897950432E-01 
    4.5217313657117553E-01 
    3.8293637138665593E-01 
    8.8733364574952095E-02 
    8.7390255573168707E-02 
    8.6918191752044432E-02 
    8.7646231802193539E-02 
    9.4578810249160039E-02 
    1.0336536303400989E-01 
    1.1562445681819369E-01 
    1.3264100737769866E-01 
    1.5754439774155410E-01 
    1.8731106689082161E-01 
    2.2147837252529667E-01 
    2.5914931983852135E-01 
    3.0110713197331068E-01 
    3.4474714131572171E-01 
    3.8293637138664333E-01 
    3.8200498249603715E-01 
