# vtk DataFile Version 2.0
Pressure Field Data 
ASCII 
DATASET UNSTRUCTURED_GRID 

POINTS 289 double 

    0.0000000000000000E+00     0.0000000000000000E+00     0.0000000000000000E+00 
    1.0000000000000000E+00     0.0000000000000000E+00     0.0000000000000000E+00 
    1.0000000000000000E+00     1.0000000000000000E+00     0.0000000000000000E+00 
    0.0000000000000000E+00     1.0000000000000000E+00     0.0000000000000000E+00 
    6.2499999999872928E-02     0.0000000000000000E+00     0.0000000000000000E+00 
    1.2499999999977310E-01     0.0000000000000000E+00     0.0000000000000000E+00 
    1.8749999999959341E-01     0.0000000000000000E+00     0.0000000000000000E+00 
    2.4999999999941089E-01     0.0000000000000000E+00     0.0000000000000000E+00 
    3.1249999999922851E-01     0.0000000000000000E+00     0.0000000000000000E+00 
    3.7499999999904610E-01     0.0000000000000000E+00     0.0000000000000000E+00 
    4.3749999999886358E-01     0.0000000000000000E+00     0.0000000000000000E+00 
    4.9999999999869210E-01     0.0000000000000000E+00     0.0000000000000000E+00 
    5.6249999999884603E-01     0.0000000000000000E+00     0.0000000000000000E+00 
    6.2499999999901090E-01     0.0000000000000000E+00     0.0000000000000000E+00 
    6.8749999999917577E-01     0.0000000000000000E+00     0.0000000000000000E+00 
    7.4999999999934064E-01     0.0000000000000000E+00     0.0000000000000000E+00 
    8.1249999999950551E-01     0.0000000000000000E+00     0.0000000000000000E+00 
    8.7499999999967026E-01     0.0000000000000000E+00     0.0000000000000000E+00 
    9.3749999999983513E-01     0.0000000000000000E+00     0.0000000000000000E+00 
    1.0000000000000000E+00     6.2499999999872928E-02     0.0000000000000000E+00 
    1.0000000000000000E+00     1.2499999999977310E-01     0.0000000000000000E+00 
    1.0000000000000000E+00     1.8749999999959341E-01     0.0000000000000000E+00 
    1.0000000000000000E+00     2.4999999999941089E-01     0.0000000000000000E+00 
    1.0000000000000000E+00     3.1249999999922851E-01     0.0000000000000000E+00 
    1.0000000000000000E+00     3.7499999999904610E-01     0.0000000000000000E+00 
    1.0000000000000000E+00     4.3749999999886358E-01     0.0000000000000000E+00 
    1.0000000000000000E+00     4.9999999999869210E-01     0.0000000000000000E+00 
    1.0000000000000000E+00     5.6249999999884603E-01     0.0000000000000000E+00 
    1.0000000000000000E+00     6.2499999999901090E-01     0.0000000000000000E+00 
    1.0000000000000000E+00     6.8749999999917577E-01     0.0000000000000000E+00 
    1.0000000000000000E+00     7.4999999999934064E-01     0.0000000000000000E+00 
    1.0000000000000000E+00     8.1249999999950551E-01     0.0000000000000000E+00 
    1.0000000000000000E+00     8.7499999999967026E-01     0.0000000000000000E+00 
    1.0000000000000000E+00     9.3749999999983513E-01     0.0000000000000000E+00 
    9.3749999999973976E-01     1.0000000000000000E+00     0.0000000000000000E+00 
    8.7499999999950118E-01     1.0000000000000000E+00     0.0000000000000000E+00 
    8.1249999999991318E-01     1.0000000000000000E+00     0.0000000000000000E+00 
    7.5000000000034706E-01     1.0000000000000000E+00     0.0000000000000000E+00 
    6.8750000000078049E-01     1.0000000000000000E+00     0.0000000000000000E+00 
    6.2500000000121403E-01     1.0000000000000000E+00     0.0000000000000000E+00 
    5.6250000000164757E-01     1.0000000000000000E+00     0.0000000000000000E+00 
    5.0000000000205946E-01     1.0000000000000000E+00     0.0000000000000000E+00 
    4.3750000000182099E-01     1.0000000000000000E+00     0.0000000000000000E+00 
    3.7500000000156092E-01     1.0000000000000000E+00     0.0000000000000000E+00 
    3.1250000000130068E-01     1.0000000000000000E+00     0.0000000000000000E+00 
    2.5000000000104050E-01     1.0000000000000000E+00     0.0000000000000000E+00 
    1.8750000000078040E-01     1.0000000000000000E+00     0.0000000000000000E+00 
    1.2500000000052031E-01     1.0000000000000000E+00     0.0000000000000000E+00 
    6.2500000000260125E-02     1.0000000000000000E+00     0.0000000000000000E+00 
    0.0000000000000000E+00     9.3749999999973976E-01     0.0000000000000000E+00 
    0.0000000000000000E+00     8.7499999999950118E-01     0.0000000000000000E+00 
    0.0000000000000000E+00     8.1249999999991318E-01     0.0000000000000000E+00 
    0.0000000000000000E+00     7.5000000000034706E-01     0.0000000000000000E+00 
    0.0000000000000000E+00     6.8750000000078049E-01     0.0000000000000000E+00 
    0.0000000000000000E+00     6.2500000000121403E-01     0.0000000000000000E+00 
    0.0000000000000000E+00     5.6250000000164757E-01     0.0000000000000000E+00 
    0.0000000000000000E+00     5.0000000000205946E-01     0.0000000000000000E+00 
    0.0000000000000000E+00     4.3750000000182099E-01     0.0000000000000000E+00 
    0.0000000000000000E+00     3.7500000000156092E-01     0.0000000000000000E+00 
    0.0000000000000000E+00     3.1250000000130068E-01     0.0000000000000000E+00 
    0.0000000000000000E+00     2.5000000000104050E-01     0.0000000000000000E+00 
    0.0000000000000000E+00     1.8750000000078040E-01     0.0000000000000000E+00 
    0.0000000000000000E+00     1.2500000000052031E-01     0.0000000000000000E+00 
    0.0000000000000000E+00     6.2500000000260125E-02     0.0000000000000000E+00 
    6.2499999999897131E-02     6.2500000000235922E-02     0.0000000000000000E+00 
    6.2499999999921327E-02     1.2500000000047351E-01     0.0000000000000000E+00 
    6.2499999999945530E-02     1.8750000000070621E-01     0.0000000000000000E+00 
    6.2499999999969733E-02     2.5000000000093858E-01     0.0000000000000000E+00 
    6.2499999999993928E-02     3.1250000000117117E-01     0.0000000000000000E+00 
    6.2500000000018124E-02     3.7500000000140382E-01     0.0000000000000000E+00 
    6.2500000000042327E-02     4.3750000000163619E-01     0.0000000000000000E+00 
    6.2500000000066530E-02     5.0000000000184897E-01     0.0000000000000000E+00 
    6.2500000000090733E-02     5.6250000000147260E-01     0.0000000000000000E+00 
    6.2500000000114922E-02     6.2500000000107636E-01     0.0000000000000000E+00 
    6.2500000000139125E-02     6.8750000000068034E-01     0.0000000000000000E+00 
    6.2500000000163328E-02     7.5000000000028411E-01     0.0000000000000000E+00 
    6.2500000000187531E-02     8.1249999999988787E-01     0.0000000000000000E+00 
    6.2500000000211720E-02     8.7499999999951172E-01     0.0000000000000000E+00 
    6.2500000000235922E-02     9.3749999999974565E-01     0.0000000000000000E+00 
    1.2499999999981980E-01     6.2500000000211733E-02     0.0000000000000000E+00 
    1.2499999999986650E-01     1.2500000000042691E-01     0.0000000000000000E+00 
    1.2499999999991319E-01     1.8750000000063199E-01     0.0000000000000000E+00 
    1.2499999999995989E-01     2.5000000000083678E-01     0.0000000000000000E+00 
    1.2500000000000661E-01     3.1250000000104172E-01     0.0000000000000000E+00 
    1.2500000000005329E-01     3.7500000000124661E-01     0.0000000000000000E+00 
    1.2500000000010000E-01     4.3750000000145117E-01     0.0000000000000000E+00 
    1.2500000000014669E-01     5.0000000000163858E-01     0.0000000000000000E+00 
    1.2500000000019340E-01     5.6250000000129741E-01     0.0000000000000000E+00 
    1.2500000000024011E-01     6.2500000000093847E-01     0.0000000000000000E+00 
    1.2500000000028680E-01     6.8750000000057998E-01     0.0000000000000000E+00 
    1.2500000000033351E-01     7.5000000000022127E-01     0.0000000000000000E+00 
    1.2500000000038020E-01     8.1249999999986211E-01     0.0000000000000000E+00 
    1.2500000000042691E-01     8.7499999999952238E-01     0.0000000000000000E+00 
    1.2500000000047359E-01     9.3749999999975164E-01     0.0000000000000000E+00 
    1.8749999999966760E-01     6.2500000000187531E-02     0.0000000000000000E+00 
    1.8749999999974179E-01     1.2500000000038020E-01     0.0000000000000000E+00 
    1.8749999999981601E-01     1.8750000000055780E-01     0.0000000000000000E+00 
    1.8749999999989009E-01     2.5000000000073502E-01     0.0000000000000000E+00 
    1.8749999999996431E-01     3.1250000000091221E-01     0.0000000000000000E+00 
    1.8750000000003850E-01     3.7500000000108941E-01     0.0000000000000000E+00 
    1.8750000000011269E-01     4.3750000000126649E-01     0.0000000000000000E+00 
    1.8750000000018691E-01     5.0000000000142808E-01     0.0000000000000000E+00 
    1.8750000000026110E-01     5.6250000000112244E-01     0.0000000000000000E+00 
    1.8750000000033529E-01     6.2500000000080080E-01     0.0000000000000000E+00 
    1.8750000000040951E-01     6.8750000000047962E-01     0.0000000000000000E+00 
    1.8750000000048361E-01     7.5000000000015843E-01     0.0000000000000000E+00 
    1.8750000000055780E-01     8.1249999999983680E-01     0.0000000000000000E+00 
    1.8750000000063199E-01     8.7499999999953304E-01     0.0000000000000000E+00 
    1.8750000000070621E-01     9.3749999999975764E-01     0.0000000000000000E+00 
    2.4999999999951281E-01     6.2500000000163314E-02     0.0000000000000000E+00 
    2.4999999999961461E-01     1.2500000000033351E-01     0.0000000000000000E+00 
    2.4999999999971650E-01     1.8750000000048361E-01     0.0000000000000000E+00 
    2.4999999999981831E-01     2.5000000000063310E-01     0.0000000000000000E+00 
    2.4999999999992020E-01     3.1250000000078260E-01     0.0000000000000000E+00 
    2.5000000000002198E-01     3.7500000000093209E-01     0.0000000000000000E+00 
    2.5000000000012390E-01     4.3750000000108180E-01     0.0000000000000000E+00 
    2.5000000000022571E-01     5.0000000000121769E-01     0.0000000000000000E+00 
    2.5000000000032763E-01     5.6250000000094724E-01     0.0000000000000000E+00 
    2.5000000000042938E-01     6.2500000000066314E-01     0.0000000000000000E+00 
    2.5000000000053119E-01     6.8750000000037925E-01     0.0000000000000000E+00 
[...]
CELL_DATA 256 
SCALARS Pressure double 1 
LOOKUP_TABLE default 

    1.9330544607673248E+00 
    1.8270227747760985E+00 
    1.7577935143672325E+00 
    1.7057827049114744E+00 
    1.6629773013006091E+00 
    1.6258298765154484E+00 
    1.5926526073924763E+00 
    1.5626305584498008E+00 
    1.5354120973075061E+00 
    1.5109157801251554E+00 
    1.4892229307039473E+00 
    1.4705005515071949E+00 
    1.4549218088724689E+00 
    1.4425722529367497E+00 
    1.4333389016588418E+00 
    1.4279717918309778E+00 
    1.8270227747766623E+00 
    1.7827828856502095E+00 
    1.7354566553750073E+00 
    1.6923452459872963E+00 
    1.6536631683758529E+00 
    1.6186250155047257E+00 
    1.5865852679760133E+00 
    1.5571734807970485E+00 
    1.5302523574626339E+00 
    1.5058561975309799E+00 
    1.4841376353191422E+00 
    1.4653152574486543E+00 
    1.4496047100001783E+00 
    1.4371240177090696E+00 
    1.4277804786336765E+00 
    1.4223475009922939E+00 
    1.7577935143680292E+00 
    1.7354566553753910E+00 
    1.7039619283687721E+00 
    1.6702611756155072E+00 
    1.6370263607920552E+00 
    1.6051563442649934E+00 
    1.5749471684987062E+00 
    1.5465436394881475E+00 
    1.5201015898290313E+00 
    1.4958336708692954E+00 
    1.4740131869016742E+00 
    1.4549516575624941E+00 
    1.4389452018006590E+00 
    1.4261768378924136E+00 
    1.4165999946086976E+00 
    1.4110318972919413E+00 
    1.7057827049124361E+00 
    1.6923452459879416E+00 
    1.6702611756158126E+00 
    1.6437874057591499E+00 
    1.6155139271493200E+00 
    1.5868592146107872E+00 
    1.5586182397268582E+00 
    1.5313030268832211E+00 
    1.5053245723914506E+00 
    1.4810776817182731E+00 
    1.4589764229677078E+00 
    1.4394525347283387E+00 
    1.4229122937880698E+00 
    1.4096383236415395E+00 
    1.3996683702598700E+00 
    1.3938803329247265E+00 
    1.6629773013017015E+00 
    1.6536631683766825E+00 
    1.6370263607925888E+00 
    1.6155139271495691E+00 
    1.5910873540403589E+00 
    1.5651228823060372E+00 
    1.5385711479284692E+00 
    1.5121344295034331E+00 
    1.4863971638985756E+00 
    1.4619060001729789E+00 
    1.4392135811298707E+00 
    1.4188870304976331E+00 
    1.4014684209299175E+00 
    1.3873794551660370E+00 
    1.3767844979147212E+00 
    1.3706402401913733E+00 
    1.6258298765166548E+00 
    1.6186250155056980E+00 
    1.6051563442657037E+00 
    1.5868592146112377E+00 
    1.5651228823062491E+00 
    1.5411026657272850E+00 
    1.5157219965320394E+00 
    1.4897433171139205E+00 
    1.4638459789236855E+00 
    1.4386872482489876E+00 
    1.4149446128809071E+00 
    1.3933280198626858E+00 
    1.3745448955661907E+00 
    1.3592005666214166E+00 
    1.3476303189006911E+00 
    1.3409065471137092E+00 
    1.5926526073937814E+00 
    1.5865852679771002E+00 
    1.5749471684995557E+00 
    1.5586182397274724E+00 
    1.5385711479288622E+00 
    1.5157219965322288E+00 
    1.4908898345071684E+00 
    1.4648175236972811E+00 
    1.4382175406457005E+00 
    1.4118173534027669E+00 
    1.3864009537012263E+00 
    1.3628261768117600E+00 
    1.3419991809718450E+00 
    1.3247633680543882E+00 
    1.3116977541322290E+00 
    1.3040641538948756E+00 
    1.5626305584511786E+00 
    1.5571734807982192E+00 
    1.5465436394891030E+00 
    1.5313030268839651E+00 
    1.5121344295039783E+00 
    1.4897433171142793E+00 
    1.4648175236974612E+00 
    1.4380331748390309E+00 
    1.4100873847782225E+00 
    1.3817384114796272E+00 
    1.3538527088755632E+00 
    1.3274374690145370E+00 
    1.3036311539602383E+00 
    1.2835903483237447E+00 
    1.2682543521234111E+00 
    1.2591981796937826E+00 
    1.5354120973087007E+00 
    1.5302523574636644E+00 
    1.5201015898299013E+00 
    1.5053245723921684E+00 
    1.4863971638991533E+00 
    1.4638459789241318E+00 
    1.4382175406460171E+00 
    1.4100873847783997E+00 
    1.3800929955350609E+00 
    1.3489784102537299E+00 
    1.3176553820432142E+00 
    1.2872678265189130E+00 
    1.2592163541723504E+00 
    1.2350716220193720E+00 
    1.2163015411129801E+00 
    1.2049998875616152E+00 
    1.5109157801260142E+00 
    1.5058561975317331E+00 
    1.4958336708699562E+00 
    1.4810776817188576E+00 
    1.4619060001735014E+00 
    1.4386872482494588E+00 
    1.4118173534031897E+00 
    1.3817384114799915E+00 
    1.3489784102539630E+00 
    1.3142054989829337E+00 
    1.2783122781792731E+00 
    1.2425321360830270E+00 
    1.2085355680996357E+00 
    1.1784203702283964E+00 
    1.1544326102140139E+00 
    1.1395553798641620E+00 
    1.4892229307045111E+00 
    1.4841376353196503E+00 
    1.4740131869021480E+00 
    1.4589764229681723E+00 
    1.4392135811303484E+00 
    1.4149446128814136E+00 
    1.3864009537017739E+00 
    1.3538527088761501E+00 
    1.3176553820437353E+00 
    1.2783122781795742E+00 
    1.2365840118982674E+00 
    1.1936767763250433E+00 
    1.1514616836316343E+00 
    1.1126409406572557E+00 
    1.0806092356768700E+00 
    1.0599335772828877E+00 
    1.4705005515075120E+00 
    1.4653152574489572E+00 
    1.4549516575628125E+00 
    1.4394525347287079E+00 
    1.4188870304980856E+00 
    1.3933280198632498E+00 
    1.3628261768124612E+00 
    1.3274374690153921E+00 
    1.2872678265197883E+00 
    1.2425321360837087E+00 
    1.1936767763254377E+00 
    1.1416403508045370E+00 
    1.0882424001815443E+00 
    1.0366910111639109E+00 
    9.9194105631290919E-01 
    9.6141774804398994E-01 
    1.4549218088725899E+00 
    1.4496047100003184E+00 
    1.4389452018008573E+00 
    1.4229122937883740E+00 
    1.4014684209303712E+00 
    1.3745448955668393E+00 
    1.3419991809727343E+00 
    1.3036311539614105E+00 
    1.2592163541736470E+00 
    1.2085355681007792E+00 
    1.1514616836325229E+00 
    1.0882424001820601E+00 
    1.0200383347269282E+00 
    9.4992430397504402E-01 
    8.8441413357158305E-01 
    8.3589347411781267E-01 
    1.4425722529367300E+00 
    1.4371240177090956E+00 
    1.4261768378925344E+00 
    1.4096383236418146E+00 
    1.3873794551665239E+00 
    1.3592005666221805E+00 
    1.3247633680554980E+00 
    1.2835903483252733E+00 
    1.2350716220211444E+00 
    1.1784203702300664E+00 
    1.1126409406587190E+00 
    1.0366910111650489E+00 
    9.4992430397570105E-01 
    8.5336302406433762E-01 
    7.5296477495578040E-01 
    6.6779414899137579E-01 
    1.4333389016588012E+00 
    1.4277804786336930E+00 
    1.4165999946088308E+00 
    1.3996683702601931E+00 
    1.3767844979153079E+00 
    1.3476303189016234E+00 
    1.3116977541336001E+00 
    1.2682543521253278E+00 
    1.2163015411152467E+00 
    1.1544326102162066E+00 
    1.0806092356788735E+00 
    9.9194105631458984E-01 
    8.8441413357275178E-01 
    7.5296477495618264E-01 
    5.9402927214127554E-01 
    4.2229270987564110E-01 
    1.4279717918309520E+00 
    1.4223475009923332E+00 
    1.4110318972921143E+00 
    1.3938803329251206E+00 
    1.3706402401920752E+00 
    1.3409065471148189E+00 
    1.3040641538965112E+00 
    1.2591981796960812E+00 
    1.2049998875643577E+00 
    1.1395553798668507E+00 
    1.0599335772853915E+00 
    9.6141774804614788E-01 
    8.3589347411936643E-01 
    6.6779414899185352E-01 
    4.2229270987507012E-01 
    0.0000000000000000E+00 

SCALARS Saturarion double 1 
LOOKUP_TABLE default 

    1.0000000000000000E+00 
    9.5882721579729446E-01 
    9.2201628866325569E-01 
    8.8252654994039603E-01 
    8.4221955186288511E-01 
    8.0256637917785212E-01 
    7.6386251598169297E-01 
    7.2613219390186667E-01 
    6.8889131520028823E-01 
    6.5168402271044790E-01 
    6.1332823942227566E-01 
    5.7207516914815926E-01 
    5.2360667486908374E-01 
    4.5854179642794701E-01 
    3.4538351669589895E-01 
    1.1475165417397019E-01 
    9.5882721579750485E-01 
    9.3074484722223250E-01 
    8.9773861042816783E-01 
    8.6214113260376823E-01 
    8.2539739644191013E-01 
    7.8882665342248159E-01 
    7.5273185461063796E-01 
    7.1724678972222189E-01 
    6.8193658017343395E-01 
    6.4636310928864893E-01 
    6.0940420875802326E-01 
    5.6936369459824421E-01 
    5.2194993087948349E-01 
    4.5759548670570427E-01 
    3.4470664526927097E-01 
    1.1371154013791923E-01 
    9.2201628866379648E-01 
    8.9773861042842784E-01 
    8.6854639783600751E-01 
    8.3698340702779306E-01 
    8.0418850508164474E-01 
    7.7118561856498391E-01 
    7.3828443957551915E-01 
    7.0566762202197697E-01 
    6.7294590364353135E-01 
    6.3957085080907417E-01 
    6.0452374833867073E-01 
    5.6613701248285697E-01 
    5.2023965116680826E-01 
    4.5686103115590054E-01 
    3.4459165017560883E-01 
    1.1369338808754151E-01 
    8.8252654994121849E-01 
    8.6214113260432523E-01 
    8.3698340702802976E-01 
    8.0946672261016206E-01 
    7.8070266547362488E-01 
    7.5151549245187366E-01 
    7.2216648933344996E-01 
    6.9270758130419852E-01 
    6.6285676303434971E-01 
    6.3202635566256715E-01 
    5.9927506888327553E-01 
    5.6277568012115398E-01 
    5.1876286479448508E-01 
    4.5640930672060243E-01 
    3.4524057389184193E-01 
    1.1505962295082681E-01 
    8.4221955186385267E-01 
    8.2539739644268850E-01 
    8.0418850508214401E-01 
    7.8070266547387357E-01 
    7.5593878931692871E-01 
    7.3055755976544567E-01 
    7.0478718825190301E-01 
    6.7873920199403004E-01 
    6.5203233156176954E-01 
    6.2419554243673214E-01 
    5.9412121377485871E-01 
    5.6014879701019238E-01 
    5.1799190205879342E-01 
    4.5817748878510628E-01 
    3.4892218451071239E-01 
    1.2245552802894218E-01 
    8.0256637917909135E-01 
    7.8882665342345060E-01 
    7.7118561856570189E-01 
    7.5151549245230875E-01 
    7.3055755976566561E-01 
    7.0896985561421189E-01 
    6.8678916890017716E-01 
    6.6418341397485925E-01 
    6.4069299855708139E-01 
    6.1594757245013698E-01 
    5.8877430663247843E-01 
    5.5749330119888540E-01 
    5.1782554043769169E-01 
    4.6038869639944763E-01 
    3.5393917738687652E-01 
    1.3215375742393196E-01 
    7.6386251598316168E-01 
    7.5273185461179748E-01 
    7.3828443957639633E-01 
    7.2216648933406435E-01 
    7.0478718825227793E-01 
    6.8678916890034569E-01 
    6.6814306279882163E-01 
    6.4901760418793930E-01 
    6.2890746218610893E-01 
    6.0737123232009016E-01 
    5.8330095133215365E-01 
    5.5498849451588217E-01 
    5.1831924241284555E-01 
    4.6365705747265329E-01 
    3.6083756434293390E-01 
    1.4522982778955590E-01 
    7.2613219390351602E-01 
    7.1724678972358269E-01 
    7.0566762202305855E-01 
    6.9270758130498467E-01 
    6.7873920199454885E-01 
    6.6418341397517067E-01 
    6.4901760418807641E-01 
    6.3331865084152017E-01 
    6.1665997552740925E-01 
    5.9850240729161031E-01 
    5.7777758186047024E-01 
    5.5268508784201742E-01 
    5.1949510678350730E-01 
    4.6808477197241821E-01 
    3.6992451963078332E-01 
    1.6250820596155127E-01 
    6.8889131520156943E-01 
    6.8193658017454795E-01 
    6.7294590364442330E-01 
    6.6285676303500440E-01 
    6.5203233156222673E-01 
    6.4069299855737716E-01 
    6.2890746218625426E-01 
    6.1665997552746299E-01 
    6.0358280808887599E-01 
    5.8904245434841118E-01 
    5.7200066124360760E-01 
    5.5071010838560919E-01 
    5.2133697166466442E-01 
    4.7474804420243538E-01 
    3.8270780047503888E-01 
    1.8619356442662677E-01 
    6.5168402271146975E-01 
    6.4636310928949847E-01 
    6.3957085080977227E-01 
    6.3202635566311249E-01 
    6.2419554243712638E-01 
    6.1594757245039733E-01 
    6.0737123232023571E-01 
    5.9850240729167614E-01 
    5.8904245434842506E-01 
    5.7830779760647366E-01 
    5.6525806176177484E-01 
    5.4819394638180885E-01 
    5.2343976070562714E-01 
    4.8229163069977671E-01 
    3.9802827901193855E-01 
    2.1402968588513935E-01 
    6.1332823942303849E-01 
    6.0940420875866519E-01 
    6.0452374833919431E-01 
    5.9927506888367144E-01 
    5.9412121377513760E-01 
    5.8877430663265906E-01 
    5.8330095133224769E-01 
    5.7777758186051054E-01 
    5.7200066124359639E-01 
    5.6525806176174387E-01 
    5.5656598390283041E-01 
    5.4429589821152125E-01 
    5.2500113751415189E-01 
    4.9046054296723657E-01 
    4.1594828822861096E-01 
    2.4595924593630630E-01 
    5.7207516914864942E-01 
    5.6936369459865965E-01 
    5.6613701248318282E-01 
    5.6277568012138712E-01 
    5.6014879701033538E-01 
    5.5749330119894813E-01 
    5.5498849451587817E-01 
    5.5268508784196702E-01 
    5.5071010838550949E-01 
    5.4819394638169749E-01 
    5.4429589821144841E-01 
    5.3749378759137179E-01 
    5.2459546346335351E-01 
    4.9810427964786669E-01 
    4.3560744010766389E-01 
    2.8139962615501141E-01 
    5.2360667486925017E-01 
    5.2194993087960062E-01 
    5.2023965116688198E-01 
    5.1876286479450406E-01 
    5.1799190205875045E-01 
    5.1782554043758333E-01 
    5.1831924241267802E-01 
    5.1949510678329081E-01 
    5.2133697166441606E-01 
    5.2343976070537546E-01 
    5.2500113751394517E-01 
    5.2459546346323105E-01 
    5.1940062942823684E-01 
    5.0286698883498360E-01 
    4.5547085838976842E-01 
    3.2120457172769973E-01 
    4.5854179642765269E-01 
    4.5759548670540567E-01 
    4.5686103115559612E-01 
    4.5640930672027735E-01 
    4.5817748878475878E-01 
    4.6038869639905311E-01 
    4.6365705747221647E-01 
    4.6808477197192605E-01 
    4.7474804420193334E-01 
    4.8229163069930270E-01 
    4.9046054296683811E-01 
    4.9810427964758436E-01 
    5.0286698883484882E-01 
    4.9904666506340162E-01 
    4.7051258275120894E-01 
    3.6300575927804929E-01 
    3.4538351669574335E-01 
    3.4470664526910971E-01 
    3.4459165017544230E-01 
    3.4524057389164858E-01 
    3.4892218451046908E-01 
    3.5393917738656061E-01 
    3.6083756434250869E-01 
    3.6992451963020961E-01 
    3.8270780047441988E-01 
    3.9802827901132209E-01 
    4.1594828822805185E-01 
    4.3560744010721197E-01 
    4.5547085838947760E-01 
    4.7051258275108859E-01 
    4.6791959507856545E-01 
    4.0008774065543673E-01 
    1.1475165417395275E-01 
    1.1371154013788907E-01 
    1.1369338808750346E-01 
    1.1505962295074372E-01 
    1.2245552802877120E-01 
    1.3215375742358279E-01 
    1.4522982778896615E-01 
    1.6250820596066307E-01 
    1.8619356442572285E-01 
    2.1402968588429844E-01 
    2.4595924593560528E-01 
    2.8139962615450170E-01 
    3.2120457172744094E-01 
    3.6300575927806483E-01 
    4.0008774065543790E-01 
    3.9920824898052676E-01 
