# vtk DataFile Version 2.0
Pressure Field Data 
ASCII 
DATASET UNSTRUCTURED_GRID 

POINTS 289 double 

    0.0000000000000000E+00     0.0000000000000000E+00     0.0000000000000000E+00 
    1.0000000000000000E+00     0.0000000000000000E+00     0.0000000000000000E+00 
    1.0000000000000000E+00     1.0000000000000000E+00     0.0000000000000000E+00 
    0.0000000000000000E+00     1.0000000000000000E+00     0.0000000000000000E+00 
    6.2499999999872928E-02     0.0000000000000000E+00     0.0000000000000000E+00 
    1.2499999999977310E-01     0.0000000000000000E+00     0.0000000000000000E+00 
    1.8749999999959341E-01     0.0000000000000000E+00     0.0000000000000000E+00 
    2.4999999999941089E-01     0.0000000000000000E+00     0.0000000000000000E+00 
    3.1249999999922851E-01     0.0000000000000000E+00     0.0000000000000000E+00 
    3.7499999999904610E-01     0.0000000000000000E+00     0.0000000000000000E+00 
    4.3749999999886358E-01     0.0000000000000000E+00     0.0000000000000000E+00 
    4.9999999999869210E-01     0.0000000000000000E+00     0.0000000000000000E+00 
    5.6249999999884603E-01     0.0000000000000000E+00     0.0000000000000000E+00 
    6.2499999999901090E-01     0.0000000000000000E+00     0.0000000000000000E+00 
    6.8749999999917577E-01     0.0000000000000000E+00     0.0000000000000000E+00 
    7.4999999999934064E-01     0.0000000000000000E+00     0.0000000000000000E+00 
    8.1249999999950551E-01     0.0000000000000000E+00     0.0000000000000000E+00 
    8.7499999999967026E-01     0.0000000000000000E+00     0.0000000000000000E+00 
    9.3749999999983513E-01     0.0000000000000000E+00     0.0000000000000000E+00 
    1.0000000000000000E+00     6.2499999999872928E-02     0.0000000000000000E+00 
    1.0000000000000000E+00     1.2499999999977310E-01     0.0000000000000000E+00 
    1.0000000000000000E+00     1.8749999999959341E-01     0.0000000000000000E+00 
    1.0000000000000000E+00     2.4999999999941089E-01     0.0000000000000000E+00 
    1.0000000000000000E+00     3.1249999999922851E-01     0.0000000000000000E+00 
    1.0000000000000000E+00     3.7499999999904610E-01     0.0000000000000000E+00 
    1.0000000000000000E+00     4.3749999999886358E-01     0.0000000000000000E+00 
    1.0000000000000000E+00     4.9999999999869210E-01     0.0000000000000000E+00 
    1.0000000000000000E+00     5.6249999999884603E-01     0.0000000000000000E+00 
    1.0000000000000000E+00     6.2499999999901090E-01     0.0000000000000000E+00 
    1.0000000000000000E+00     6.8749999999917577E-01     0.0000000000000000E+00 
    1.0000000000000000E+00     7.4999999999934064E-01     0.0000000000000000E+00 
    1.0000000000000000E+00     8.1249999999950551E-01     0.0000000000000000E+00 
    1.0000000000000000E+00     8.7499999999967026E-01     0.0000000000000000E+00 
    1.0000000000000000E+00     9.3749999999983513E-01     0.0000000000000000E+00 
    9.3749999999973976E-01     1.0000000000000000E+00     0.0000000000000000E+00 
    8.7499999999950118E-01     1.0000000000000000E+00     0.0000000000000000E+00 
    8.1249999999991318E-01     1.0000000000000000E+00     0.0000000000000000E+00 
    7.5000000000034706E-01     1.0000000000000000E+00     0.0000000000000000E+00 
    6.8750000000078049E-01     1.0000000000000000E+00     0.0000000000000000E+00 
    6.2500000000121403E-01     1.0000000000000000E+00     0.0000000000000000E+00 
    5.6250000000164757E-01     1.0000000000000000E+00     0.0000000000000000E+00 
    5.0000000000205946E-01     1.0000000000000000E+00     0.0000000000000000E+00 
    4.3750000000182099E-01     1.0000000000000000E+00     0.0000000000000000E+00 
    3.7500000000156092E-01     1.0000000000000000E+00     0.0000000000000000E+00 
    3.1250000000130068E-01     1.0000000000000000E+00     0.0000000000000000E+00 
    2.5000000000104050E-01     1.0000000000000000E+00     0.0000000000000000E+00 
    1.8750000000078040E-01     1.0000000000000000E+00     0.0000000000000000E+00 
    1.2500000000052031E-01     1.0000000000000000E+00     0.0000000000000000E+00 
    6.2500000000260125E-02     1.0000000000000000E+00     0.0000000000000000E+00 
    0.0000000000000000E+00     9.3749999999973976E-01     0.0000000000000000E+00 
    0.0000000000000000E+00     8.7499999999950118E-01     0.0000000000000000E+00 
    0.0000000000000000E+00     8.1249999999991318E-01     0.0000000000000000E+00 
    0.0000000000000000E+00     7.5000000000034706E-01     0.0000000000000000E+00 
    0.0000000000000000E+00     6.8750000000078049E-01     0.0000000000000000E+00 
    0.0000000000000000E+00     6.2500000000121403E-01     0.0000000000000000E+00 
    0.0000000000000000E+00     5.6250000000164757E-01     0.0000000000000000E+00 
    0.0000000000000000E+00     5.0000000000205946E-01     0.0000000000000000E+00 
    0.0000000000000000E+00     4.3750000000182099E-01     0.0000000000000000E+00 
    0.0000000000000000E+00     3.7500000000156092E-01     0.0000000000000000E+00 
    0.0000000000000000E+00     3.1250000000130068E-01     0.0000000000000000E+00 
    0.0000000000000000E+00     2.5000000000104050E-01     0.0000000000000000E+00 
    0.0000000000000000E+00     1.8750000000078040E-01     0.0000000000000000E+00 
    0.0000000000000000E+00     1.2500000000052031E-01     0.0000000000000000E+00 
    0.0000000000000000E+00     6.2500000000260125E-02     0.0000000000000000E+00 
    6.2499999999897131E-02     6.2500000000235922E-02     0.0000000000000000E+00 
    6.2499999999921327E-02     1.2500000000047351E-01     0.0000000000000000E+00 
    6.2499999999945530E-02     1.8750000000070621E-01     0.0000000000000000E+00 
    6.2499999999969733E-02     2.5000000000093858E-01     0.0000000000000000E+00 
    6.2499999999993928E-02     3.1250000000117117E-01     0.0000000000000000E+00 
    6.2500000000018124E-02     3.7500000000140382E-01     0.0000000000000000E+00 
    6.2500000000042327E-02     4.3750000000163619E-01     0.0000000000000000E+00 
    6.2500000000066530E-02     5.0000000000184897E-01     0.0000000000000000E+00 
    6.2500000000090733E-02     5.6250000000147260E-01     0.0000000000000000E+00 
    6.2500000000114922E-02     6.2500000000107636E-01     0.0000000000000000E+00 
    6.2500000000139125E-02     6.8750000000068034E-01     0.0000000000000000E+00 
    6.2500000000163328E-02     7.5000000000028411E-01     0.0000000000000000E+00 
    6.2500000000187531E-02     8.1249999999988787E-01     0.0000000000000000E+00 
    6.2500000000211720E-02     8.7499999999951172E-01     0.0000000000000000E+00 
    6.2500000000235922E-02     9.3749999999974565E-01     0.0000000000000000E+00 
    1.2499999999981980E-01     6.2500000000211733E-02     0.0000000000000000E+00 
    1.2499999999986650E-01     1.2500000000042691E-01     0.0000000000000000E+00 
    1.2499999999991319E-01     1.8750000000063199E-01     0.0000000000000000E+00 
    1.2499999999995989E-01     2.5000000000083678E-01     0.0000000000000000E+00 
    1.2500000000000661E-01     3.1250000000104172E-01     0.0000000000000000E+00 
    1.2500000000005329E-01     3.7500000000124661E-01     0.0000000000000000E+00 
    1.2500000000010000E-01     4.3750000000145117E-01     0.0000000000000000E+00 
    1.2500000000014669E-01     5.0000000000163858E-01     0.0000000000000000E+00 
    1.2500000000019340E-01     5.6250000000129741E-01     0.0000000000000000E+00 
    1.2500000000024011E-01     6.2500000000093847E-01     0.0000000000000000E+00 
    1.2500000000028680E-01     6.8750000000057998E-01     0.0000000000000000E+00 
    1.2500000000033351E-01     7.5000000000022127E-01     0.0000000000000000E+00 
    1.2500000000038020E-01     8.1249999999986211E-01     0.0000000000000000E+00 
    1.2500000000042691E-01     8.7499999999952238E-01     0.0000000000000000E+00 
    1.2500000000047359E-01     9.3749999999975164E-01     0.0000000000000000E+00 
    1.8749999999966760E-01     6.2500000000187531E-02     0.0000000000000000E+00 
    1.8749999999974179E-01     1.2500000000038020E-01     0.0000000000000000E+00 
    1.8749999999981601E-01     1.8750000000055780E-01     0.0000000000000000E+00 
    1.8749999999989009E-01     2.5000000000073502E-01     0.0000000000000000E+00 
    1.8749999999996431E-01     3.1250000000091221E-01     0.0000000000000000E+00 
    1.8750000000003850E-01     3.7500000000108941E-01     0.0000000000000000E+00 
    1.8750000000011269E-01     4.3750000000126649E-01     0.0000000000000000E+00 
    1.8750000000018691E-01     5.0000000000142808E-01     0.0000000000000000E+00 
    1.8750000000026110E-01     5.6250000000112244E-01     0.0000000000000000E+00 
    1.8750000000033529E-01     6.2500000000080080E-01     0.0000000000000000E+00 
    1.8750000000040951E-01     6.8750000000047962E-01     0.0000000000000000E+00 
    1.8750000000048361E-01     7.5000000000015843E-01     0.0000000000000000E+00 
    1.8750000000055780E-01     8.1249999999983680E-01     0.0000000000000000E+00 
    1.8750000000063199E-01     8.7499999999953304E-01     0.0000000000000000E+00 
    1.8750000000070621E-01     9.3749999999975764E-01     0.0000000000000000E+00 
    2.4999999999951281E-01     6.2500000000163314E-02     0.0000000000000000E+00 
    2.4999999999961461E-01     1.2500000000033351E-01     0.0000000000000000E+00 
    2.4999999999971650E-01     1.8750000000048361E-01     0.0000000000000000E+00 
    2.4999999999981831E-01     2.5000000000063310E-01     0.0000000000000000E+00 
    2.4999999999992020E-01     3.1250000000078260E-01     0.0000000000000000E+00 
    2.5000000000002198E-01     3.7500000000093209E-01     0.0000000000000000E+00 
    2.5000000000012390E-01     4.3750000000108180E-01     0.0000000000000000E+00 
    2.5000000000022571E-01     5.0000000000121769E-01     0.0000000000000000E+00 
    2.5000000000032763E-01     5.6250000000094724E-01     0.0000000000000000E+00 
    2.5000000000042938E-01     6.2500000000066314E-01     0.0000000000000000E+00 
    2.5000000000053119E-01     6.8750000000037925E-01     0.0000000000000000E+00 
[...]
CELL_DATA 256 
SCALARS Pressure double 1 
LOOKUP_TABLE default 

    2.4154348613117018E+00 
    2.3072967962926878E+00 
    2.2349665021637941E+00 
    2.1794359004168022E+00 
    2.1328246988153650E+00 
    2.0916759355472072E+00 
    2.0543797862628037E+00 
    2.0201907585606325E+00 
    1.9888224583126612E+00 
    1.9602517006163940E+00 
    1.9345974832884187E+00 
    1.9120020307287400E+00 
    1.8924394131326780E+00 
    1.8754967724248646E+00 
    1.8618351018287789E+00 
    1.8548085470146018E+00 
    2.3072967962932704E+00 
    2.2614113810627607E+00 
    2.2113626082734017E+00 
    2.1649463011691652E+00 
    2.1225827490292648E+00 
    2.0836139028702143E+00 
    2.0474901425883307E+00 
    2.0139207224251967E+00 
    1.9828407445315159E+00 
    1.9543481188635112E+00 
    1.9286376124886926E+00 
    1.9059063416538160E+00 
    1.8861673742712186E+00 
    1.8690128818848657E+00 
    1.8551706294089554E+00 
    1.8480599192684644E+00 
    2.2349665021646370E+00 
    2.2113626082738125E+00 
    2.1775640219961230E+00 
    2.1408575346333927E+00 
    2.1041379172771792E+00 
    2.0684551813171490E+00 
    2.0342193845181229E+00 
    2.0016688814129249E+00 
    1.9710431197210694E+00 
    1.9426279467577050E+00 
    1.9167477554631043E+00 
    1.8936994665383180E+00 
    1.8735736801157108E+00 
    1.8559870689852058E+00 
    1.8417812066075510E+00 
    1.8344939926332335E+00 
    2.1794359004178379E+00 
    2.1649463011698660E+00 
    2.1408575346337266E+00 
    2.1116412080374931E+00 
    2.0800748151818920E+00 
    2.0477247594238306E+00 
    2.0155062026621566E+00 
    1.9840340992710130E+00 
    1.9538133787140046E+00 
    1.9253235564707947E+00 
    1.8990427488664312E+00 
    1.8754004928271193E+00 
    1.8545976567951876E+00 
    1.8363151310240904E+00 
    1.8215318617765053E+00 
    1.8139485424406496E+00 
    2.1328246988165658E+00 
    2.1225827490301827E+00 
    2.1041379172777726E+00 
    2.0800748151821713E+00 
    2.0524999988351729E+00 
    2.0229203791483599E+00 
    1.9924022615919996E+00 
    1.9617537864709740E+00 
    1.9316608301047151E+00 
    1.9027667841142684E+00 
    1.8757047612692868E+00 
    1.8510587589646388E+00 
    1.8291701585586979E+00 
    1.8098331693018808E+00 
    1.7941663053996961E+00 
    1.7861108396043792E+00 
    2.0916759355485555E+00 
    2.0836139028713045E+00 
    2.0684551813179479E+00 
    2.0477247594243404E+00 
    2.0229203791486015E+00 
    1.9953059890203457E+00 
    1.9659096781481302E+00 
    1.9355971198239463E+00 
    1.9051535662063444E+00 
    1.8753447304339690E+00 
    1.8469483646288722E+00 
    1.8207171086423219E+00 
    1.7971741071462970E+00 
    1.7762704230782587E+00 
    1.7592690336138233E+00 
    1.7504906810756453E+00 
    2.0543797862642790E+00 
    2.0474901425895613E+00 
    2.0342193845190888E+00 
    2.0155062026628587E+00 
    1.9924022615924504E+00 
    1.9659096781483487E+00 
    1.9369369998957311E+00 
    1.9063223524164907E+00 
    1.8748844158538631E+00 
    1.8434690415861603E+00 
    1.8129830067004504E+00 
    1.7843617292491161E+00 
    1.7583651222838350E+00 
    1.7351676125805311E+00 
    1.7162176644312004E+00 
    1.7063816983903675E+00 
    2.0201907585622081E+00 
    2.0139207224265387E+00 
    2.0016688814140231E+00 
    1.9840340992718724E+00 
    1.9617537864716053E+00 
    1.9355971198243627E+00 
    1.9063223524167003E+00 
    1.8746868568781156E+00 
    1.8414877405969043E+00 
    1.8076066418996226E+00 
    1.7740547357101597E+00 
    1.7419623034682092E+00 
    1.7123861620319776E+00 
    1.6858435453524907E+00 
    1.6640666126284664E+00 
    1.6526999438157639E+00 
    1.9888224583140404E+00 
    1.9828407445327081E+00 
    1.9710431197220784E+00 
    1.9538133787148393E+00 
    1.9316608301053872E+00 
    1.9051535662068633E+00 
    1.8748844158542317E+00 
    1.8414877405971124E+00 
    1.8056846899033931E+00 
    1.7683373483761602E+00 
    1.7305163260110379E+00 
    1.6935391756055616E+00 
    1.6588162443763725E+00 
    1.6273722318621280E+00 
    1.6014024879793540E+00 
    1.5877417415672972E+00 
    1.9602517006173967E+00 
    1.9543481188643919E+00 
    1.9426279467584793E+00 
    1.9253235564714792E+00 
    1.9027667841148792E+00 
    1.8753447304345192E+00 
    1.8434690415866553E+00 
    1.8076066419000532E+00 
    1.7683373483764371E+00 
    1.7264225050401931E+00 
    1.6829064010268997E+00 
    1.6392348810677444E+00 
    1.5972001065486592E+00 
    1.5585131220219224E+00 
    1.5261640002191421E+00 
    1.5088795447008490E+00 
    1.9345974832890860E+00 
    1.9286376124892932E+00 
    1.9167477554636638E+00 
    1.8990427488669783E+00 
    1.8757047612698465E+00 
    1.8469483646294664E+00 
    1.8129830067010959E+00 
    1.7740547357108569E+00 
    1.7305163260116621E+00 
    1.6829064010272632E+00 
    1.6320847472700921E+00 
    1.5794639776143593E+00 
    1.5271364744034330E+00 
    1.4776394955448147E+00 
    1.4352969668016666E+00 
    1.4118402523220901E+00 
    1.9120020307291192E+00 
    1.9059063416541759E+00 
    1.8936994665386944E+00 
    1.8754004928275536E+00 
    1.8510587589651684E+00 
    1.8207171086429841E+00 
    1.7843617292499454E+00 
    1.7419623034692278E+00 
    1.6935391756066129E+00 
    1.6392348810685715E+00 
    1.5794639776148443E+00 
    1.5152588028859852E+00 
    1.4486550729616028E+00 
    1.3828973090368339E+00 
    1.3241561645915894E+00 
    1.2890089713389676E+00 
    1.8924394131328190E+00 
    1.8861673742713796E+00 
    1.8735736801159393E+00 
    1.8545976567955398E+00 
    1.8291701585592250E+00 
    1.7971741071470559E+00 
    1.7583651222848846E+00 
    1.7123861620333725E+00 
    1.6588162443779326E+00 
    1.5972001065500521E+00 
    1.5271364744045308E+00 
    1.4486550729622507E+00 
    1.3628502048499842E+00 
    1.2727736301463222E+00 
    1.1861914108818237E+00 
    1.1271791955799524E+00 
    1.8754967724248202E+00 
    1.8690128818848746E+00 
    1.8559870689853259E+00 
    1.8363151310243937E+00 
    1.8098331693024357E+00 
    1.7762704230791437E+00 
    1.7351676125818345E+00 
    1.6858435453543081E+00 
    1.6273722318642596E+00 
    1.5585131220239592E+00 
    1.4776394955466323E+00 
    1.3828973090382801E+00 
    1.2727736301471768E+00 
    1.1475016529021222E+00 
    1.0134320380415696E+00 
    9.0369418907601573E-01 
    1.8618351018286992E+00 
    1.8551706294089445E+00 
    1.8417812066076784E+00 
    1.8215318617768590E+00 
    1.7941663054003649E+00 
    1.7592690336149064E+00 
    1.7162176644328155E+00 
    1.6640666126307500E+00 
    1.6014024879820790E+00 
    1.5261640002218126E+00 
    1.4352969668041540E+00 
    1.3241561645937308E+00 
    1.1861914108833516E+00 
    1.0134320380420947E+00 
    7.9945883189357969E-01 
    5.7074149826263321E-01 
    1.8548085470145415E+00 
    1.8480599192684819E+00 
    1.8344939926334110E+00 
    1.8139485424410904E+00 
    1.7861108396051886E+00 
    1.7504906810769441E+00 
    1.7063816983922993E+00 
    1.6526999438184968E+00 
    1.5877417415705726E+00 
    1.5088795447040939E+00 
    1.4118402523251747E+00 
    1.2890089713417221E+00 
    1.1271791955820174E+00 
    9.0369418907665910E-01 
    5.7074149826185483E-01 
    0.0000000000000000E+00 

SCALARS Saturarion double 1 
LOOKUP_TABLE default 

    1.0000000000000000E+00 
    9.4465962543764936E-01 
    8.9789386207095678E-01 
    8.4989037878966578E-01 
    8.0258921829507801E-01 
    7.5735079272733885E-01 
    7.1408737274632639E-01 
    6.7251650223580661E-01 
    6.3180700035392234E-01 
    5.9116368017567955E-01 
    5.4869782101183884E-01 
    5.0095469040498986E-01 
    4.3794291549825581E-01 
    3.3370742784770407E-01 
    1.3397086125970120E-01 
    5.1951170972728737E-03 
    9.4465962543795778E-01 
    9.0871066696981240E-01 
    8.6799781428155909E-01 
    8.2560771092075402E-01 
    7.8307778878702605E-01 
    7.4173245165594270E-01 
    7.0161122286594946E-01 
    6.6263681519171702E-01 
    6.2407947129366048E-01 
    5.8518937087605416E-01 
    5.4415551012089547E-01 
    4.9755566717674710E-01 
    4.3521025975984112E-01 
    3.3010711702500573E-01 
    1.2807525159130129E-01 
    4.5090650371130622E-03 
    8.9789386207159716E-01 
    8.6799781428187084E-01 
    8.3300234333261902E-01 
    7.9620404805368850E-01 
    7.5880643348229482E-01 
    7.2185605615007042E-01 
    6.8549911745916692E-01 
    6.4978328879293612E-01 
    6.1407881054951030E-01 
    5.7752878324875156E-01 
    5.3845786479274338E-01 
    4.9344996741184127E-01 
    4.3229388289578730E-01 
    3.2633512216597171E-01 
    1.2205128608190699E-01 
    3.8862224317233541E-03 
    8.4989037879059925E-01 
    8.2560771092137974E-01 
    7.9620404805400324E-01 
    7.6471338096705244E-01 
    7.3234778422048497E-01 
    6.9995511971894653E-01 
    6.6769113937206470E-01 
    6.3549081652301365E-01 
    6.0289671364970476E-01 
    5.6903387685825302E-01 
    5.3233386193312948E-01 
    4.8911892772718707E-01 
    4.2962566998267371E-01 
    3.2239098253053811E-01 
    1.1626822918339208E-01 
    3.3681398894955259E-03 
    8.0258921829635543E-01 
    7.8307778878784051E-01 
    7.5880643348288501E-01 
    7.3234778422071256E-01 
    7.0479308447255862E-01 
    6.7681458441817011E-01 
    6.4857366955314155E-01 
    6.2011860579180833E-01 
    5.9090301301906800E-01 
    5.6023136725156852E-01 
    5.2636688318869918E-01 
    4.8588751443933875E-01 
    4.2795763933923164E-01 
    3.2349437830076877E-01 
    1.2027495586299336E-01 
    3.8489345895147730E-03 
    7.5735079272872829E-01 
    7.4173245165691171E-01 
    7.2185605615081438E-01 
    6.9995511971944702E-01 
    6.7681458441837983E-01 
    6.5312730699986987E-01 
    6.2884425610029893E-01 
    6.0411126035075435E-01 
    5.7830628019343067E-01 
    5.5088808303297887E-01 
    5.2006306906187127E-01 
    4.8243125217115584E-01 
    4.2700552058105939E-01 
    3.2477012862854676E-01 
    1.2307986274724594E-01 
    4.0972251572376885E-03 
    7.1408737274791556E-01 
    7.0161122286721778E-01 
    6.8549911746013248E-01 
    6.6769113937275915E-01 
    6.4857366955355211E-01 
    6.2884425610047423E-01 
    6.0839105049456144E-01 
    5.8738240770783545E-01 
    5.6515468685829795E-01 
    5.4109754892911699E-01 
    5.1351993612280289E-01 
    4.7903221374711752E-01 
    4.2690828507793915E-01 
    3.2744025338161997E-01 
    1.2844569279525533E-01 
    4.7439039641137227E-03 
    6.7251650223760773E-01 
    6.6263681519320095E-01 
    6.4978328879411174E-01 
    6.3549081652386297E-01 
    6.2011860579237332E-01 
    6.0411126035108875E-01 
    5.8738240770799544E-01 
    5.7000226341102711E-01 
    5.5142208462020725E-01 
    5.3092335123226075E-01 
    5.0689036980600632E-01 
    4.7583259256480770E-01 
    4.2784385835317279E-01 
    3.3192862034221166E-01 
    1.3851335071754689E-01 
    6.2212221085991993E-03 
    6.3180700035530879E-01 
    6.2407947129490660E-01 
    6.1407881055048630E-01 
    6.0289671365042918E-01 
    5.9090301301958348E-01 
    5.7830628019377173E-01 
    5.6515468685848091E-01 
    5.5142208462028330E-01 
    5.3665172585956833E-01 
    5.2002085523882846E-01 
    5.0000678318138569E-01 
    4.7330291647823081E-01 
    4.3005390240338437E-01 
    3.4191434314517805E-01 
    1.6175053339941226E-01 
    1.1339722466225539E-02 
    5.9116368017681020E-01 
    5.8518937087702327E-01 
    5.7752878324951529E-01 
    5.6903387685883644E-01 
    5.6023136725201050E-01 
    5.5088808303329451E-01 
    5.4109754892929018E-01 
    5.3092335123235668E-01 
    5.2002085523886143E-01 
    5.0750388269776281E-01 
    4.9190590305159748E-01 
    4.7015246006656192E-01 
    4.3308049561365797E-01 
    3.5420670877397614E-01 
    1.9027755550894349E-01 
    2.0773262789601871E-02 
    5.4869782101266673E-01 
    5.4415551012159646E-01 
    5.3845786479330349E-01 
    5.3233386193355769E-01 
    5.2636688318901959E-01 
    5.2006306906208877E-01 
    5.1351993612292890E-01 
    5.0689036980606628E-01 
    5.0000678318137526E-01 
    4.9190590305156418E-01 
    4.8124989182333600E-01 
    4.6526852381141220E-01 
    4.3581429206760475E-01 
    3.6874182877537770E-01 
    2.2387654115715391E-01 
    4.0088238937149023E-02 
    5.0095469040552043E-01 
    4.9755566717717836E-01 
    4.9344996741218267E-01 
    4.8911892772743054E-01 
    4.8588751443950418E-01 
    4.8243125217123878E-01 
    4.7903221374713190E-01 
    4.7583259256476529E-01 
    4.7330291647812744E-01 
    4.7015246006643402E-01 
    4.6526852381131778E-01 
    4.5621540082281314E-01 
    4.3597203749181745E-01 
    3.8355766926530083E-01 
    2.6083778357677212E-01 
    7.6842816396144431E-02 
    4.3794291549842157E-01 
    4.3521025975995553E-01 
    4.3229388289584075E-01 
    4.2962566998267654E-01 
    4.2795763933917180E-01 
    4.2700552058093233E-01 
    4.2690828507774642E-01 
    4.2784385835291444E-01 
    4.3005390240305869E-01 
    4.3308049561331541E-01 
    4.3581429206730876E-01 
    4.3597203749163721E-01 
    4.2774199923606282E-01 
    3.9400251001641723E-01 
    2.9882819534312455E-01 
    1.3396653797476549E-01 
    3.3370742784734186E-01 
    3.3010711702464240E-01 
    3.2633512216559579E-01 
    3.2239098253014126E-01 
    3.2349437830033290E-01 
    3.2477012862804816E-01 
    3.2744025338103033E-01 
    3.3192862034149839E-01 
    3.4191434314438934E-01 
    3.5420670877318616E-01 
    3.6874182877468037E-01 
    3.8355766926478169E-01 
    3.9400251001615749E-01 
    3.8609231399304761E-01 
    3.2741907421961236E-01 
    1.9484272560229707E-01 
    1.3397086125974392E-01 
    1.2807525159130456E-01 
    1.2205128608187613E-01 
    1.1626822918328762E-01 
    1.2027495586276338E-01 
    1.2307986274683411E-01 
    1.2844569279457208E-01 
    1.3851335071651000E-01 
    1.6175053339809653E-01 
    1.9027755550749353E-01 
    2.2387654115578604E-01 
    2.6083778357563892E-01 
    2.9882819534234861E-01 
    3.2741907421922184E-01 
    3.2095173511135855E-01 
    2.4114857908248785E-01 
    5.1951170972904248E-03 
    4.5090650371234315E-03 
    3.8862224317283943E-03 
    3.3681398894919831E-03 
    3.8489345894969283E-03 
    4.0972251571977838E-03 
    4.7439039640336756E-03 
    6.2212221084429224E-03 
    1.1339722465865650E-02 
    2.0773262788939865E-02 
    4.0088238936073953E-02 
    7.6842816394747743E-02 
    1.3396653797365404E-01 
    1.9484272560177798E-01 
    2.4114857908218001E-01 
    2.3781082813013896E-01 
