# vtk DataFile Version 2.0
Pressure Field Data 
ASCII 
DATASET UNSTRUCTURED_GRID 

POINTS 289 double 

    0.0000000000000000E+00     0.0000000000000000E+00     0.0000000000000000E+00 
    1.0000000000000000E+00     0.0000000000000000E+00     0.0000000000000000E+00 
    1.0000000000000000E+00     1.0000000000000000E+00     0.0000000000000000E+00 
    0.0000000000000000E+00     1.0000000000000000E+00     0.0000000000000000E+00 
    6.2499999999872928E-02     0.0000000000000000E+00     0.0000000000000000E+00 
    1.2499999999977310E-01     0.0000000000000000E+00     0.0000000000000000E+00 
    1.8749999999959341E-01     0.0000000000000000E+00     0.0000000000000000E+00 
    2.4999999999941089E-01     0.0000000000000000E+00     0.0000000000000000E+00 
    3.1249999999922851E-01     0.0000000000000000E+00     0.0000000000000000E+00 
    3.7499999999904610E-01     0.0000000000000000E+00     0.0000000000000000E+00 
    4.3749999999886358E-01     0.0000000000000000E+00     0.0000000000000000E+00 
    4.9999999999869210E-01     0.0000000000000000E+00     0.0000000000000000E+00 
    5.6249999999884603E-01     0.0000000000000000E+00     0.0000000000000000E+00 
    6.2499999999901090E-01     0.0000000000000000E+00     0.0000000000000000E+00 
    6.8749999999917577E-01     0.0000000000000000E+00     0.0000000000000000E+00 
    7.4999999999934064E-01     0.0000000000000000E+00     0.0000000000000000E+00 
    8.1249999999950551E-01     0.0000000000000000E+00     0.0000000000000000E+00 
    8.7499999999967026E-01     0.0000000000000000E+00     0.0000000000000000E+00 
    9.3749999999983513E-01     0.0000000000000000E+00     0.0000000000000000E+00 
    1.0000000000000000E+00     6.2499999999872928E-02     0.0000000000000000E+00 
    1.0000000000000000E+00     1.2499999999977310E-01     0.0000000000000000E+00 
    1.0000000000000000E+00     1.8749999999959341E-01     0.0000000000000000E+00 
    1.0000000000000000E+00     2.4999999999941089E-01     0.0000000000000000E+00 
    1.0000000000000000E+00     3.1249999999922851E-01     0.0000000000000000E+00 
    1.0000000000000000E+00     3.7499999999904610E-01     0.0000000000000000E+00 
    1.0000000000000000E+00     4.3749999999886358E-01     0.0000000000000000E+00 
    1.0000000000000000E+00     4.9999999999869210E-01     0.0000000000000000E+00 
    1.0000000000000000E+00     5.6249999999884603E-01     0.0000000000000000E+00 
    1.0000000000000000E+00     6.2499999999901090E-01     0.0000000000000000E+00 
    1.0000000000000000E+00     6.8749999999917577E-01     0.0000000000000000E+00 
    1.0000000000000000E+00     7.4999999999934064E-01     0.0000000000000000E+00 
    1.0000000000000000E+00     8.1249999999950551E-01     0.0000000000000000E+00 
    1.0000000000000000E+00     8.7499999999967026E-01     0.0000000000000000E+00 
    1.0000000000000000E+00     9.3749999999983513E-01     0.0000000000000000E+00 
    9.3749999999973976E-01     1.0000000000000000E+00     0.0000000000000000E+00 
    8.7499999999950118E-01     1.0000000000000000E+00     0.0000000000000000E+00 
    8.1249999999991318E-01     1.0000000000000000E+00     0.0000000000000000E+00 
    7.5000000000034706E-01     1.0000000000000000E+00     0.0000000000000000E+00 
    6.8750000000078049E-01     1.0000000000000000E+00     0.0000000000000000E+00 
    6.2500000000121403E-01     1.0000000000000000E+00     0.0000000000000000E+00 
    5.6250000000164757E-01     1.0000000000000000E+00     0.0000000000000000E+00 
    5.0000000000205946E-01     1.0000000000000000E+00     0.0000000000000000E+00 
    4.3750000000182099E-01     1.0000000000000000E+00     0.0000000000000000E+00 
    3.7500000000156092E-01     1.0000000000000000E+00     0.0000000000000000E+00 
    3.1250000000130068E-01     1.0000000000000000E+00     0.0000000000000000E+00 
    2.5000000000104050E-01     1.0000000000000000E+00     0.0000000000000000E+00 
    1.8750000000078040E-01     1.0000000000000000E+00     0.0000000000000000E+00 
    1.2500000000052031E-01     1.0000000000000000E+00     0.0000000000000000E+00 
    6.2500000000260125E-02     1.0000000000000000E+00     0.0000000000000000E+00 
    0.0000000000000000E+00     9.3749999999973976E-01     0.0000000000000000E+00 
    0.0000000000000000E+00     8.7499999999950118E-01     0.0000000000000000E+00 
    0.0000000000000000E+00     8.1249999999991318E-01     0.0000000000000000E+00 
    0.0000000000000000E+00     7.5000000000034706E-01     0.0000000000000000E+00 
    0.0000000000000000E+00     6.8750000000078049E-01     0.0000000000000000E+00 
    0.0000000000000000E+00     6.2500000000121403E-01     0.0000000000000000E+00 
    0.0000000000000000E+00     5.6250000000164757E-01     0.0000000000000000E+00 
    0.0000000000000000E+00     5.0000000000205946E-01     0.0000000000000000E+00 
    0.0000000000000000E+00     4.3750000000182099E-01     0.0000000000000000E+00 
    0.0000000000000000E+00     3.7500000000156092E-01     0.0000000000000000E+00 
    0.0000000000000000E+00     3.1250000000130068E-01     0.0000000000000000E+00 
    0.0000000000000000E+00     2.5000000000104050E-01     0.0000000000000000E+00 
    0.0000000000000000E+00     1.8750000000078040E-01     0.0000000000000000E+00 
    0.0000000000000000E+00     1.2500000000052031E-01     0.0000000000000000E+00 
    0.0000000000000000E+00     6.2500000000260125E-02     0.0000000000000000E+00 
    6.2499999999897131E-02     6.2500000000235922E-02     0.0000000000000000E+00 
    6.2499999999921327E-02     1.2500000000047351E-01     0.0000000000000000E+00 
    6.2499999999945530E-02     1.8750000000070621E-01     0.0000000000000000E+00 
    6.2499999999969733E-02     2.5000000000093858E-01     0.0000000000000000E+00 
    6.2499999999993928E-02     3.1250000000117117E-01     0.0000000000000000E+00 
    6.2500000000018124E-02     3.7500000000140382E-01     0.0000000000000000E+00 
    6.2500000000042327E-02     4.3750000000163619E-01     0.0000000000000000E+00 
    6.2500000000066530E-02     5.0000000000184897E-01     0.0000000000000000E+00 
    6.2500000000090733E-02     5.6250000000147260E-01     0.0000000000000000E+00 
    6.2500000000114922E-02     6.2500000000107636E-01     0.0000000000000000E+00 
    6.2500000000139125E-02     6.8750000000068034E-01     0.0000000000000000E+00 
    6.2500000000163328E-02     7.5000000000028411E-01     0.0000000000000000E+00 
    6.2500000000187531E-02     8.1249999999988787E-01     0.0000000000000000E+00 
    6.2500000000211720E-02     8.7499999999951172E-01     0.0000000000000000E+00 
    6.2500000000235922E-02     9.3749999999974565E-01     0.0000000000000000E+00 
    1.2499999999981980E-01     6.2500000000211733E-02     0.0000000000000000E+00 
    1.2499999999986650E-01     1.2500000000042691E-01     0.0000000000000000E+00 
    1.2499999999991319E-01     1.8750000000063199E-01     0.0000000000000000E+00 
    1.2499999999995989E-01     2.5000000000083678E-01     0.0000000000000000E+00 
    1.2500000000000661E-01     3.1250000000104172E-01     0.0000000000000000E+00 
    1.2500000000005329E-01     3.7500000000124661E-01     0.0000000000000000E+00 
    1.2500000000010000E-01     4.3750000000145117E-01     0.0000000000000000E+00 
    1.2500000000014669E-01     5.0000000000163858E-01     0.0000000000000000E+00 
    1.2500000000019340E-01     5.6250000000129741E-01     0.0000000000000000E+00 
    1.2500000000024011E-01     6.2500000000093847E-01     0.0000000000000000E+00 
    1.2500000000028680E-01     6.8750000000057998E-01     0.0000000000000000E+00 
    1.2500000000033351E-01     7.5000000000022127E-01     0.0000000000000000E+00 
    1.2500000000038020E-01     8.1249999999986211E-01     0.0000000000000000E+00 
    1.2500000000042691E-01     8.7499999999952238E-01     0.0000000000000000E+00 
    1.2500000000047359E-01     9.3749999999975164E-01     0.0000000000000000E+00 
    1.8749999999966760E-01     6.2500000000187531E-02     0.0000000000000000E+00 
    1.8749999999974179E-01     1.2500000000038020E-01     0.0000000000000000E+00 
    1.8749999999981601E-01     1.8750000000055780E-01     0.0000000000000000E+00 
    1.8749999999989009E-01     2.5000000000073502E-01     0.0000000000000000E+00 
    1.8749999999996431E-01     3.1250000000091221E-01     0.0000000000000000E+00 
    1.8750000000003850E-01     3.7500000000108941E-01     0.0000000000000000E+00 
    1.8750000000011269E-01     4.3750000000126649E-01     0.0000000000000000E+00 
    1.8750000000018691E-01     5.0000000000142808E-01     0.0000000000000000E+00 
    1.8750000000026110E-01     5.6250000000112244E-01     0.0000000000000000E+00 
    1.8750000000033529E-01     6.2500000000080080E-01     0.0000000000000000E+00 
    1.8750000000040951E-01     6.8750000000047962E-01     0.0000000000000000E+00 
    1.8750000000048361E-01     7.5000000000015843E-01     0.0000000000000000E+00 
    1.8750000000055780E-01     8.1249999999983680E-01     0.0000000000000000E+00 
    1.8750000000063199E-01     8.7499999999953304E-01     0.0000000000000000E+00 
    1.8750000000070621E-01     9.3749999999975764E-01     0.0000000000000000E+00 
    2.4999999999951281E-01     6.2500000000163314E-02     0.0000000000000000E+00 
    2.4999999999961461E-01     1.2500000000033351E-01     0.0000000000000000E+00 
    2.4999999999971650E-01     1.8750000000048361E-01     0.0000000000000000E+00 
    2.4999999999981831E-01     2.5000000000063310E-01     0.0000000000000000E+00 
    2.4999999999992020E-01     3.1250000000078260E-01     0.0000000000000000E+00 
    2.5000000000002198E-01     3.7500000000093209E-01     0.0000000000000000E+00 
    2.5000000000012390E-01     4.3750000000108180E-01     0.0000000000000000E+00 
    2.5000000000022571E-01     5.0000000000121769E-01     0.0000000000000000E+00 
    2.5000000000032763E-01     5.6250000000094724E-01     0.0000000000000000E+00 
    2.5000000000042938E-01     6.2500000000066314E-01     0.0000000000000000E+00 
    2.5000000000053119E-01     6.8750000000037925E-01     0.0000000000000000E+00 
[...]
CELL_DATA 256 
SCALARS Pressure double 1 
LOOKUP_TABLE default 

    1.6657261583680891E+00 
    1.5610422565385826E+00 
    1.4937769214564047E+00 
    1.4440018047632646E+00 
    1.4036161226717097E+00 
    1.3690065009332593E+00 
    1.3384245281938687E+00 
    1.3109975888403700E+00 
    1.2863161741288851E+00 
    1.2642403166507232E+00 
    1.2447949572958477E+00 
    1.2281022807649860E+00 
    1.2143264626164565E+00 
    1.2036220952958181E+00 
    1.1960444891360749E+00 
    1.1915974230419930E+00 
    1.5610422565391351E+00 
    1.5178502215373912E+00 
    1.4722516212029679E+00 
    1.4312448402682776E+00 
    1.3949096929172686E+00 
    1.3623713363941619E+00 
    1.3329122725069720E+00 
    1.3060978463248736E+00 
    1.2817282540830452E+00 
    1.2597756151427104E+00 
    1.2403326366331404E+00 
    1.2235689478723466E+00 
    1.2096865762815436E+00 
    1.1988702159387679E+00 
    1.1911986200437474E+00 
    1.1866912352043519E+00 
    1.4937769214571701E+00 
    1.4722516212033334E+00 
    1.4422309494014729E+00 
    1.4104570129740770E+00 
    1.3794568252285837E+00 
    1.3500252936658663E+00 
    1.3223752544161218E+00 
    1.2965785786332731E+00 
    1.2727212860200843E+00 
    1.2509472325540676E+00 
    1.2314627808244347E+00 
    1.2145223049371614E+00 
    1.2003987713098758E+00 
    1.1893355189462265E+00 
    1.1814588058521831E+00 
    1.1768204780190041E+00 
    1.4440018047641732E+00 
    1.4312448402688842E+00 
    1.4104570129743612E+00 
    1.3857580933345719E+00 
    1.3596147097260238E+00 
    1.3333435321859850E+00 
    1.3076525190655610E+00 
    1.2829747819928374E+00 
    1.2596446255478249E+00 
    1.2379800261455958E+00 
    1.2183182526530967E+00 
    1.2010216569570440E+00 
    1.1864591935070763E+00 
    1.1749607047353081E+00 
    1.1667284877080997E+00 
    1.1618653639043177E+00 
    1.4036161226727311E+00 
    1.3949096929180422E+00 
    1.3794568252290780E+00 
    1.3596147097262530E+00 
    1.3372476495721231E+00 
    1.3136409082087994E+00 
    1.2896609222202433E+00 
    1.2659290918922839E+00 
    1.2429480942444413E+00 
    1.2211795351177674E+00 
    1.2010874674377123E+00 
    1.1831536264755302E+00 
    1.1678635548677692E+00 
    1.1556642257567717E+00 
    1.1468660707783331E+00 
    1.1416445286906327E+00 
    1.3690065009343750E+00 
    1.3623713363950589E+00 
    1.3500252936665180E+00 
    1.3333435321863953E+00 
    1.3136409082089919E+00 
    1.2919956052545547E+00 
    1.2692537397258765E+00 
    1.2460984451910511E+00 
    1.2231244156436802E+00 
    1.2008964617903408E+00 
    1.1799906596305225E+00 
    1.1610124601913088E+00 
    1.1445866471478248E+00 
    1.1313128381332300E+00 
    1.1216486068417169E+00 
    1.1158751848888753E+00 
    1.3384245281950637E+00 
    1.3329122725079656E+00 
    1.3223752544168956E+00 
    1.3076525190661170E+00 
    1.2896609222205970E+00 
    1.2692537397260457E+00 
    1.2471821949885218E+00 
    1.2241147169737299E+00 
    1.2006790127336102E+00 
    1.1775044625918965E+00 
    1.1552608098547241E+00 
    1.1346795267440364E+00 
    1.1165504096651717E+00 
    1.1016700943143600E+00 
    1.0907047271207160E+00 
    1.0840989044979503E+00 
    1.3109975888416221E+00 
    1.3060978463259367E+00 
    1.2965785786341373E+00 
    1.2829747819935069E+00 
    1.2659290918927721E+00 
    1.2460984451913708E+00 
    1.2241147169738893E+00 
    1.2005880028281906E+00 
    1.1761344226767956E+00 
    1.1514118327856242E+00 
    1.1271615143395253E+00 
    1.1042407493308126E+00 
    1.0836316191489102E+00 
    1.0663898476599984E+00 
    1.0534881941572469E+00 
    1.0456314034271468E+00 
    1.2863161741299640E+00 
    1.2817282540839754E+00 
    1.2727212860208659E+00 
    1.2596446255484672E+00 
    1.2429480942449556E+00 
    1.2231244156440744E+00 
    1.2006790127338876E+00 
    1.1761344226769497E+00 
    1.1500564389820676E+00 
    1.1230921024691303E+00 
    1.0960221904355238E+00 
    1.0698187364531950E+00 
    1.0456814738462541E+00 
    1.0250100986366499E+00 
    1.0092328982493184E+00 
    9.9948173404127472E-01 
    1.2642403166514946E+00 
    1.2597756151433865E+00 
    1.2509472325546587E+00 
    1.2379800261461158E+00 
    1.2211795351182302E+00 
    1.2008964617907545E+00 
    1.1775044625922646E+00 
    1.1514118327859391E+00 
    1.1230921024693310E+00 
    1.0931294243830287E+00 
    1.0622900170927623E+00 
    1.0316215532101241E+00 
    1.0025487097715176E+00 
    9.7691246597877801E-01 
    9.5682115343975904E-01 
    9.4414318616605042E-01 
    1.2447949572963508E+00 
    1.2403326366335927E+00 
    1.2314627808248551E+00 
    1.2183182526535066E+00 
    1.2010874674381309E+00 
    1.1799906596309644E+00 
    1.1552608098551980E+00 
    1.1271615143400300E+00 
    1.0960221904359713E+00 
    1.0622900170930201E+00 
    1.0266227758445308E+00 
    9.9004691558900570E-01 
    9.5415551251329178E-01 
    9.2129941869835785E-01 
    8.9459123574761668E-01 
    8.7722770643008063E-01 
    1.2281022807652664E+00 
    1.2235689478726137E+00 
    1.2145223049374412E+00 
    1.2010216569573673E+00 
    1.1831536264759241E+00 
    1.1610124601917973E+00 
    1.1346795267446412E+00 
    1.1042407493315465E+00 
    1.0698187364539433E+00 
    1.0316215532107047E+00 
    9.9004691558934099E-01 
    9.4589958196600954E-01 
    9.0073143758625396E-01 
    8.5732395175655873E-01 
    8.2015231406792288E-01 
    7.9485006328658059E-01 
    1.2143264626165622E+00 
    1.2096865762816660E+00 
    1.2003987713100490E+00 
    1.1864591935073412E+00 
    1.1678635548681628E+00 
    1.1445866471483852E+00 
    1.1165504096659367E+00 
    1.0836316191499131E+00 
    1.0456814738473590E+00 
    1.0025487097724886E+00 
    9.5415551251404396E-01 
    9.0073143758668883E-01 
    8.4327873764916172E-01 
    7.8447464110005116E-01 
    7.3016867244395434E-01 
    6.9029506281615627E-01 
    1.2036220952958028E+00 
    1.1988702159387923E+00 
    1.1893355189463328E+00 
    1.1749607047355484E+00 
    1.1556642257571956E+00 
    1.1313128381338899E+00 
    1.1016700943153133E+00 
    1.0663898476613050E+00 
    1.0250100986381576E+00 
    9.7691246598019288E-01 
    9.2129941869959242E-01 
    8.5732395175751486E-01 
    7.8447464110060106E-01 
    7.0371189086914732E-01 
    6.2049545877427248E-01 
    5.5070043587034745E-01 
    1.1960444891360433E+00 
    1.1911986200437661E+00 
    1.1814588058523028E+00 
    1.1667284877083839E+00 
    1.1468660707788438E+00 
    1.1216486068425222E+00 
    1.0907047271218939E+00 
    1.0534881941588836E+00 
    1.0092328982512435E+00 
    9.5682115344161245E-01 
    8.9459123574930266E-01 
    8.2015231406933209E-01 
    7.3016867244493178E-01 
    6.2049545877460854E-01 
    4.8867397785339539E-01 
    3.4756840493768709E-01 
    1.1915974230419746E+00 
    1.1866912352043903E+00 
    1.1768204780191587E+00 
    1.1618653639046637E+00 
    1.1416445286912444E+00 
    1.1158751848898358E+00 
    1.0840989044993559E+00 
    1.0456314034291074E+00 
    9.9948173404360163E-01 
    9.4414318616831805E-01 
    8.7722770643218140E-01 
    7.9485006328838381E-01 
    6.9029506281745157E-01 
    5.5070043587074724E-01 
    3.4756840493722274E-01 
    0.0000000000000000E+00 

SCALARS Saturarion double 1 
LOOKUP_TABLE default 

    1.0000000000000000E+00 
    9.6796880757754922E-01 
    9.3815469218712355E-01 
    9.0507857428121208E-01 
    8.7034783877418109E-01 
    8.3535139664728308E-01 
    8.0055280931556672E-01 
    7.6613433440183931E-01 
    7.3181129052454952E-01 
    6.9728486881817409E-01 
    6.6165708584221428E-01 
    6.2367027776326989E-01 
    5.8048789300287451E-01 
    5.2668081838596659E-01 
    4.4384397724914165E-01 
    2.5975222030291295E-01 
    9.6796880757770276E-01 
    9.4536755167855024E-01 
    9.1804622036176076E-01 
    8.8774630369941099E-01 
    8.5572125790926779E-01 
    8.2318151978678800E-01 
    7.9054529455837441E-01 
    7.5805057463317937E-01 
    7.2543097684372604E-01 
    6.9238670416079029E-01 
    6.5805865902871685E-01 
    6.2122604272222692E-01 
    5.7908097720969931E-01 
    5.2608356177177662E-01 
    4.4389706304005372E-01 
    2.6027147450684790E-01 
    9.3815469218756087E-01 
    9.1804622036196215E-01 
    8.9333939204087087E-01 
    8.6600199530956445E-01 
    8.3704249993849100E-01 
    8.0740126201324314E-01 
    7.7745693191005827E-01 
    7.4745523929277979E-01 
    7.1714355068225688E-01 
    6.8611094009567486E-01 
    6.5357018646892640E-01 
    6.1831335568202284E-01 
    5.7762446348834950E-01 
    5.2568898807247966E-01 
    4.4443545184985767E-01 
    2.6181470741690271E-01 
    9.0507857428193017E-01 
    8.8774630369988616E-01 
    8.6600199530980237E-01 
    8.4177605273648182E-01 
    8.1605131264623254E-01 
    7.8959069698472706E-01 
    7.6270007829145914E-01 
    7.3549100523365107E-01 
    7.0777548175405280E-01 
    6.7909357288264860E-01 
    6.4870621242249116E-01 
    6.1526408972824220E-01 
    5.7635435584852135E-01 
    5.2556484449233209E-01 
    4.4560079908086742E-01 
    2.6463273854227876E-01 
    8.7034783877512722E-01 
    8.5572125790998210E-01 
    8.3704249993894886E-01 
    8.1605131264645547E-01 
    7.9363961992256438E-01 
    7.7042978135675844E-01 
    7.4667732230729256E-01 
    7.2252254845387454E-01 
    6.9767516595816093E-01 
    6.7175475035956078E-01 
    6.4386631417487172E-01 
    6.1277711035822358E-01 
    5.7564526107378688E-01 
    5.2702925197293493E-01 
    4.4869883953797030E-01 
    2.7030631908879132E-01 
    8.3535139664838154E-01 
    8.2318151978768261E-01 
    8.0740126201387874E-01 
    7.8959069698512840E-01 
    7.7042978135695450E-01 
    7.5053230007189731E-01 
    7.2998125595340047E-01 
    7.0894959470522056E-01 
    6.8706630999582818E-01 
    6.6402134962755099E-01 
    6.3884827002731626E-01 
    6.1027424512044659E-01 
    5.7543103992536748E-01 
    5.2888241707639982E-01 
    4.5270960510506036E-01 
    2.7782364789865421E-01 
    8.0055280931689698E-01 
    7.9054529455947642E-01 
    7.7745693191088983E-01 
    7.6270007829203257E-01 
    7.4667732230765127E-01 
    7.2998125595355301E-01 
    7.1262897871929831E-01 
    6.9478505109963196E-01 
    6.7602950444309595E-01 
    6.5598172816572076E-01 
    6.3371520222012356E-01 
    6.0790680054759716E-01 
    5.7576259398915441E-01 
    5.3156868259550272E-01 
    4.5802655089331473E-01 
    2.8756367749757439E-01 
    7.6613433440336487E-01 
    7.5805057463443604E-01 
    7.4745523929375757E-01 
    7.3549100523439082E-01 
    7.2252254845436992E-01 
    7.0894959470552199E-01 
    6.9478505109976274E-01 
    6.8010885315119540E-01 
    6.6455992100263273E-01 
    6.4766816109803782E-01 
    6.2852765365384233E-01 
    6.0571266095662957E-01 
    5.7665422873439454E-01 
    5.3516509988290650E-01 
    4.6487781896890623E-01 
    2.9973189000883937E-01 
    7.3181129052576610E-01 
    7.2543097684474567E-01 
    7.1714355068309110E-01 
    7.0777548175468519E-01 
    6.9767516595859291E-01 
    6.8706630999611151E-01 
    6.7602950444323395E-01 
    6.6455992100268735E-01 
    6.5233980561477012E-01 
    6.3881477063914149E-01 
    6.2309204220583803E-01 
    6.0375770814592034E-01 
    5.7807429602120441E-01 
    5.4038893705994639E-01 
    4.7421475469277136E-01 
    3.1548677757218341E-01 
    6.9728486881912011E-01 
    6.9238670416157322E-01 
    6.8611094009633389E-01 
    6.7909357288313477E-01 
    6.7175475035991639E-01 
    6.6402134962781523E-01 
    6.5598172816581757E-01 
    6.4766816109809611E-01 
    6.3881477063914682E-01 
    6.2882382885207866E-01 
    6.1679068218665978E-01 
    6.0131094721040579E-01 
    5.7966813853812460E-01 
    5.4628890575492628E-01 
    4.8534783301117035E-01 
    3.3425414990681562E-01 
    6.6165708584291860E-01 
    6.5805865902930760E-01 
    6.5357018646940102E-01 
    6.4870621242284754E-01 
    6.4386631417512674E-01 
    6.3884827002748545E-01 
    6.3371520222020739E-01 
    6.2852765365389429E-01 
    6.2309204220582803E-01 
    6.1679068218662647E-01 
    6.0875996554401446E-01 
    5.9762654014867866E-01 
    5.8074819382832854E-01 
    5.5262711864424041E-01 
    4.9832850977861071E-01 
    3.5660628600907768E-01 
    6.2367027776374206E-01 
    6.2122604272262638E-01 
    6.1831335568232548E-01 
    6.1526408972846591E-01 
    6.1277711035836313E-01 
    6.1027424512051787E-01 
    6.0790680054760893E-01 
    6.0571266095659659E-01 
    6.0375770814583074E-01 
    6.0131094721030742E-01 
    5.9762654014860639E-01 
    5.9140092537311462E-01 
    5.8010214066786747E-01 
    5.5847261792444836E-01 
    5.1258472099531405E-01 
    3.8261768629195020E-01 
    5.8048789300305026E-01 
    5.7908097720983998E-01 
    5.7762446348843655E-01 
    5.7635435584856298E-01 
    5.7564526107377578E-01 
    5.7543103992529987E-01 
    5.7576259398903407E-01 
    5.7665422873422578E-01 
    5.7807429602099447E-01 
    5.7966813853791255E-01 
    5.8074819382814713E-01 
    5.8010214066776156E-01 
    5.7543492175456112E-01 
    5.6191760391829848E-01 
    5.2691887823464789E-01 
    4.1311336199295623E-01 
    5.2668081838576186E-01 
    5.2608356177157134E-01 
    5.2568898807226894E-01 
    5.2556484449210006E-01 
    5.2702925197267525E-01 
    5.2888241707610373E-01 
    5.3156868259516921E-01 
    5.3516509988252614E-01 
    5.4038893705955648E-01 
    5.4628890575454725E-01 
    5.5262711864391645E-01 
    5.5847261792421388E-01 
    5.6191760391818568E-01 
    5.5861892291141069E-01 
    5.3760551476916207E-01 
    4.4649594843342877E-01 
    4.4384397724900304E-01 
    4.4389706303990589E-01 
    4.4443545184971667E-01 
    4.4560079908070122E-01 
    4.4869883953776707E-01 
    4.5270960510480146E-01 
    4.5802655089298078E-01 
    4.6487781896847491E-01 
    4.7421475469231344E-01 
    4.8534783301070611E-01 
    4.9832850977818660E-01 
    5.1258472099496755E-01 
    5.2691887823442063E-01 
    5.3760551476906382E-01 
    5.3550505110907154E-01 
    4.7744968991416958E-01 
    2.5975222030288164E-01 
    2.6027147450680793E-01 
    2.6181470741685942E-01 
    2.6463273854221075E-01 
    2.7030631908866420E-01 
    2.7782364789842723E-01 
    2.8756367749721690E-01 
    2.9973189000831574E-01 
    3.1548677757165705E-01 
    3.3425414990631547E-01 
    3.5660628600864441E-01 
    3.8261768629162674E-01 
    4.1311336199280085E-01 
    4.4649594843347878E-01 
    4.7744968991419456E-01 
    4.7669288562544210E-01 
