# vtk DataFile Version 2.0
Pressure Field Data 
ASCII 
DATASET UNSTRUCTURED_GRID 

POINTS 289 double 

    0.0000000000000000E+00     0.0000000000000000E+00     0.0000000000000000E+00 
    1.0000000000000000E+00     0.0000000000000000E+00     0.0000000000000000E+00 
    1.0000000000000000E+00     1.0000000000000000E+00     0.0000000000000000E+00 
    0.0000000000000000E+00     1.0000000000000000E+00     0.0000000000000000E+00 
    6.2499999999872928E-02     0.0000000000000000E+00     0.0000000000000000E+00 
    1.2499999999977310E-01     0.0000000000000000E+00     0.0000000000000000E+00 
    1.8749999999959341E-01     0.0000000000000000E+00     0.0000000000000000E+00 
    2.4999999999941089E-01     0.0000000000000000E+00     0.0000000000000000E+00 
    3.1249999999922851E-01     0.0000000000000000E+00     0.0000000000000000E+00 
    3.7499999999904610E-01     0.0000000000000000E+00     0.0000000000000000E+00 
    4.3749999999886358E-01     0.0000000000000000E+00     0.0000000000000000E+00 
    4.9999999999869210E-01     0.0000000000000000E+00     0.0000000000000000E+00 
    5.6249999999884603E-01     0.0000000000000000E+00     0.0000000000000000E+00 
    6.2499999999901090E-01     0.0000000000000000E+00     0.0000000000000000E+00 
    6.8749999999917577E-01     0.0000000000000000E+00     0.0000000000000000E+00 
    7.4999999999934064E-01     0.0000000000000000E+00     0.0000000000000000E+00 
    8.1249999999950551E-01     0.0000000000000000E+00     0.0000000000000000E+00 
    8.7499999999967026E-01     0.0000000000000000E+00     0.0000000000000000E+00 
    9.3749999999983513E-01     0.0000000000000000E+00     0.0000000000000000E+00 
    1.0000000000000000E+00     6.2499999999872928E-02     0.0000000000000000E+00 
    1.0000000000000000E+00     1.2499999999977310E-01     0.0000000000000000E+00 
    1.0000000000000000E+00     1.8749999999959341E-01     0.0000000000000000E+00 
    1.0000000000000000E+00     2.4999999999941089E-01     0.0000000000000000E+00 
    1.0000000000000000E+00     3.1249999999922851E-01     0.0000000000000000E+00 
    1.0000000000000000E+00     3.7499999999904610E-01     0.0000000000000000E+00 
    1.0000000000000000E+00     4.3749999999886358E-01     0.0000000000000000E+00 
    1.0000000000000000E+00     4.9999999999869210E-01     0.0000000000000000E+00 
    1.0000000000000000E+00     5.6249999999884603E-01     0.0000000000000000E+00 
    1.0000000000000000E+00     6.2499999999901090E-01     0.0000000000000000E+00 
    1.0000000000000000E+00     6.8749999999917577E-01     0.0000000000000000E+00 
    1.0000000000000000E+00     7.4999999999934064E-01     0.0000000000000000E+00 
    1.0000000000000000E+00     8.1249999999950551E-01     0.0000000000000000E+00 
    1.0000000000000000E+00     8.7499999999967026E-01     0.0000000000000000E+00 
    1.0000000000000000E+00     9.3749999999983513E-01     0.0000000000000000E+00 
    9.3749999999973976E-01     1.0000000000000000E+00     0.0000000000000000E+00 
    8.7499999999950118E-01     1.0000000000000000E+00     0.0000000000000000E+00 
    8.1249999999991318E-01     1.0000000000000000E+00     0.0000000000000000E+00 
    7.5000000000034706E-01     1.0000000000000000E+00     0.0000000000000000E+00 
    6.8750000000078049E-01     1.0000000000000000E+00     0.0000000000000000E+00 
    6.2500000000121403E-01     1.0000000000000000E+00     0.0000000000000000E+00 
    5.6250000000164757E-01     1.0000000000000000E+00     0.0000000000000000E+00 
    5.0000000000205946E-01     1.0000000000000000E+00     0.0000000000000000E+00 
    4.3750000000182099E-01     1.0000000000000000E+00     0.0000000000000000E+00 
    3.7500000000156092E-01     1.0000000000000000E+00     0.0000000000000000E+00 
    3.1250000000130068E-01     1.0000000000000000E+00     0.0000000000000000E+00 
    2.5000000000104050E-01     1.0000000000000000E+00     0.0000000000000000E+00 
    1.8750000000078040E-01     1.0000000000000000E+00     0.0000000000000000E+00 
    1.2500000000052031E-01     1.0000000000000000E+00     0.0000000000000000E+00 
    6.2500000000260125E-02     1.0000000000000000E+00     0.0000000000000000E+00 
    0.0000000000000000E+00     9.3749999999973976E-01     0.0000000000000000E+00 
    0.0000000000000000E+00     8.7499999999950118E-01     0.0000000000000000E+00 
    0.0000000000000000E+00     8.1249999999991318E-01     0.0000000000000000E+00 
    0.0000000000000000E+00     7.5000000000034706E-01     0.0000000000000000E+00 
    0.0000000000000000E+00     6.8750000000078049E-01     0.0000000000000000E+00 
    0.0000000000000000E+00     6.2500000000121403E-01     0.0000000000000000E+00 
    0.0000000000000000E+00     5.6250000000164757E-01     0.0000000000000000E+00 
    0.0000000000000000E+00     5.0000000000205946E-01     0.0000000000000000E+00 
    0.0000000000000000E+00     4.3750000000182099E-01     0.0000000000000000E+00 
    0.0000000000000000E+00     3.7500000000156092E-01     0.0000000000000000E+00 
    0.0000000000000000E+00     3.1250000000130068E-01     0.0000000000000000E+00 
    0.0000000000000000E+00     2.5000000000104050E-01     0.0000000000000000E+00 
    0.0000000000000000E+00     1.8750000000078040E-01     0.0000000000000000E+00 
    0.0000000000000000E+00     1.2500000000052031E-01     0.0000000000000000E+00 
    0.0000000000000000E+00     6.2500000000260125E-02     0.0000000000000000E+00 
    6.2499999999897131E-02     6.2500000000235922E-02     0.0000000000000000E+00 
    6.2499999999921327E-02     1.2500000000047351E-01     0.0000000000000000E+00 
    6.2499999999945530E-02     1.8750000000070621E-01     0.0000000000000000E+00 
    6.2499999999969733E-02     2.5000000000093858E-01     0.0000000000000000E+00 
    6.2499999999993928E-02     3.1250000000117117E-01     0.0000000000000000E+00 
    6.2500000000018124E-02     3.7500000000140382E-01     0.0000000000000000E+00 
    6.2500000000042327E-02     4.3750000000163619E-01     0.0000000000000000E+00 
    6.2500000000066530E-02     5.0000000000184897E-01     0.0000000000000000E+00 
    6.2500000000090733E-02     5.6250000000147260E-01     0.0000000000000000E+00 
    6.2500000000114922E-02     6.2500000000107636E-01     0.0000000000000000E+00 
    6.2500000000139125E-02     6.8750000000068034E-01     0.0000000000000000E+00 
    6.2500000000163328E-02     7.5000000000028411E-01     0.0000000000000000E+00 
    6.2500000000187531E-02     8.1249999999988787E-01     0.0000000000000000E+00 
    6.2500000000211720E-02     8.7499999999951172E-01     0.0000000000000000E+00 
    6.2500000000235922E-02     9.3749999999974565E-01     0.0000000000000000E+00 
    1.2499999999981980E-01     6.2500000000211733E-02     0.0000000000000000E+00 
    1.2499999999986650E-01     1.2500000000042691E-01     0.0000000000000000E+00 
    1.2499999999991319E-01     1.8750000000063199E-01     0.0000000000000000E+00 
    1.2499999999995989E-01     2.5000000000083678E-01     0.0000000000000000E+00 
    1.2500000000000661E-01     3.1250000000104172E-01     0.0000000000000000E+00 
    1.2500000000005329E-01     3.7500000000124661E-01     0.0000000000000000E+00 
    1.2500000000010000E-01     4.3750000000145117E-01     0.0000000000000000E+00 
    1.2500000000014669E-01     5.0000000000163858E-01     0.0000000000000000E+00 
    1.2500000000019340E-01     5.6250000000129741E-01     0.0000000000000000E+00 
    1.2500000000024011E-01     6.2500000000093847E-01     0.0000000000000000E+00 
    1.2500000000028680E-01     6.8750000000057998E-01     0.0000000000000000E+00 
    1.2500000000033351E-01     7.5000000000022127E-01     0.0000000000000000E+00 
    1.2500000000038020E-01     8.1249999999986211E-01     0.0000000000000000E+00 
    1.2500000000042691E-01     8.7499999999952238E-01     0.0000000000000000E+00 
    1.2500000000047359E-01     9.3749999999975164E-01     0.0000000000000000E+00 
    1.8749999999966760E-01     6.2500000000187531E-02     0.0000000000000000E+00 
    1.8749999999974179E-01     1.2500000000038020E-01     0.0000000000000000E+00 
    1.8749999999981601E-01     1.8750000000055780E-01     0.0000000000000000E+00 
    1.8749999999989009E-01     2.5000000000073502E-01     0.0000000000000000E+00 
    1.8749999999996431E-01     3.1250000000091221E-01     0.0000000000000000E+00 
    1.8750000000003850E-01     3.7500000000108941E-01     0.0000000000000000E+00 
    1.8750000000011269E-01     4.3750000000126649E-01     0.0000000000000000E+00 
    1.8750000000018691E-01     5.0000000000142808E-01     0.0000000000000000E+00 
    1.8750000000026110E-01     5.6250000000112244E-01     0.0000000000000000E+00 
    1.8750000000033529E-01     6.2500000000080080E-01     0.0000000000000000E+00 
    1.8750000000040951E-01     6.8750000000047962E-01     0.0000000000000000E+00 
    1.8750000000048361E-01     7.5000000000015843E-01     0.0000000000000000E+00 
    1.8750000000055780E-01     8.1249999999983680E-01     0.0000000000000000E+00 
    1.8750000000063199E-01     8.7499999999953304E-01     0.0000000000000000E+00 
    1.8750000000070621E-01     9.3749999999975764E-01     0.0000000000000000E+00 
    2.4999999999951281E-01     6.2500000000163314E-02     0.0000000000000000E+00 
    2.4999999999961461E-01     1.2500000000033351E-01     0.0000000000000000E+00 
    2.4999999999971650E-01     1.8750000000048361E-01     0.0000000000000000E+00 
    2.4999999999981831E-01     2.5000000000063310E-01     0.0000000000000000E+00 
    2.4999999999992020E-01     3.1250000000078260E-01     0.0000000000000000E+00 
    2.5000000000002198E-01     3.7500000000093209E-01     0.0000000000000000E+00 
    2.5000000000012390E-01     4.3750000000108180E-01     0.0000000000000000E+00 
    2.5000000000022571E-01     5.0000000000121769E-01     0.0000000000000000E+00 
    2.5000000000032763E-01     5.6250000000094724E-01     0.0000000000000000E+00 
    2.5000000000042938E-01     6.2500000000066314E-01     0.0000000000000000E+00 
    2.5000000000053119E-01     6.8750000000037925E-01     0.0000000000000000E+00 
[...]
CELL_DATA 256 
SCALARS Pressure double 1 
LOOKUP_TABLE default 

    2.1879333631346545E+00 
    2.0807245921001400E+00 
    2.0097680325099003E+00 
    1.9557962133011482E+00 
    1.9108712387333509E+00 
    1.8714985107738109E+00 
    1.8360368313301914E+00 
    1.8037139135122662E+00 
    1.7742193868719358E+00 
    1.7475108402430319E+00 
    1.7237008022138054E+00 
    1.7029624197184512E+00 
    1.6854041646700830E+00 
    1.6709070092384251E+00 
    1.6592916973834835E+00 
    1.6529045255972135E+00 
    2.0807245921007151E+00 
    2.0355665946411157E+00 
    1.9867233207981079E+00 
    1.9417694498020197E+00 
    1.9010355309442279E+00 
    1.8638095994381259E+00 
    1.8295027917748328E+00 
    1.7977931117419470E+00 
    1.7685886602013188E+00 
    1.7419660051048080E+00 
    1.7181119569949868E+00 
    1.6972542528846835E+00 
    1.6795455062345874E+00 
    1.6648931043146928E+00 
    1.6531323936346169E+00 
    1.6466655081180110E+00 
    2.0097680325107214E+00 
    1.9867233207985049E+00 
    1.9539421599393860E+00 
    1.9185627434395238E+00 
    1.8833824061410462E+00 
    1.8493865962439791E+00 
    1.8169381184661866E+00 
    1.7862380782026939E+00 
    1.7574942486271150E+00 
    1.7309674085041438E+00 
    1.7069709729944369E+00 
    1.6858315977102547E+00 
    1.6677866835851614E+00 
    1.6528008573410307E+00 
    1.6407470446629366E+00 
    1.6341247315158163E+00 
    1.9557962133021485E+00 
    1.9417694498026936E+00 
    1.9185627434398436E+00 
    1.8905530760414970E+00 
    1.8604362558692416E+00 
    1.8297155198881871E+00 
    1.7992560900284051E+00 
    1.7696317134343349E+00 
    1.7413115119936124E+00 
    1.7147455975800980E+00 
    1.6903967017214148E+00 
    1.6687213094322249E+00 
    1.6500744022414666E+00 
    1.6345164276429469E+00 
    1.6219978266758175E+00 
    1.6151383394486152E+00 
    1.9108712387344995E+00 
    1.9010355309451035E+00 
    1.8833824061416116E+00 
    1.8604362558695065E+00 
    1.8342408080488015E+00 
    1.8062474270879358E+00 
    1.7774745341470453E+00 
    1.7486879791034167E+00 
    1.7205350010313034E+00 
    1.6936251623287069E+00 
    1.6685705490364098E+00 
    1.6459768715824645E+00 
    1.6263468372469330E+00 
    1.6098839925839918E+00 
    1.5966567786068246E+00 
    1.5894268223865888E+00 
    1.8714985107750919E+00 
    1.8638095994391606E+00 
    1.8493865962447373E+00 
    1.8297155198886703E+00 
    1.8062474270881645E+00 
    1.7802003856073287E+00 
    1.7525594607219952E+00 
    1.7241493507758214E+00 
    1.6957151246812312E+00 
    1.6679843652669788E+00 
    1.6417067874825106E+00 
    1.6176493255738562E+00 
    1.5965009553960896E+00 
    1.5786623862415028E+00 
    1.5643582827399225E+00 
    1.5565443424137235E+00 
    1.8360368313315891E+00 
    1.8295027917759989E+00 
    1.8169381184671007E+00 
    1.7992560900290684E+00 
    1.7774745341474718E+00 
    1.7525594607222017E+00 
    1.7253829410477068E+00 
    1.6967456601197897E+00 
    1.6674262488188640E+00 
    1.6382287569735616E+00 
    1.6100235752345826E+00 
    1.5837493106119374E+00 
    1.5603276816796947E+00 
    1.5404273134513826E+00 
    1.5245158655554625E+00 
    1.5158343562552179E+00 
    1.8037139135137525E+00 
    1.7977931117432124E+00 
    1.7862380782037286E+00 
    1.7696317134351436E+00 
    1.7486879791040120E+00 
    1.7241493507762145E+00 
    1.6967456601199873E+00 
    1.6672028067715612E+00 
    1.6362805800196289E+00 
    1.6048170294271504E+00 
    1.5737784200533880E+00 
    1.5442814544519061E+00 
    1.5175278842668587E+00 
    1.4945566999810360E+00 
    1.4762408511780836E+00 
    1.4662502386114766E+00 
    1.7742193868732306E+00 
    1.7685886602024372E+00 
    1.7574942486280611E+00 
    1.7413115119943960E+00 
    1.7205350010319351E+00 
    1.6957151246817199E+00 
    1.6674262488192106E+00 
    1.6362805800198239E+00 
    1.6029686659552784E+00 
    1.5683112492344302E+00 
    1.5333282192611737E+00 
    1.4993023157183991E+00 
    1.4677558877665891E+00 
    1.4402289851805647E+00 
    1.4182144064867570E+00 
    1.4060680238408354E+00 
    1.7475108402439683E+00 
    1.7419660051056309E+00 
    1.7309674085048676E+00 
    1.7147455975807400E+00 
    1.6936251623292811E+00 
    1.6679843652674968E+00 
    1.6382287569740270E+00 
    1.6048170294275552E+00 
    1.5683112492346911E+00 
    1.5294416304613909E+00 
    1.4892047777966384E+00 
    1.4489931481880980E+00 
    1.4106598195830280E+00 
    1.3763771027561935E+00 
    1.3485236948446317E+00 
    1.3326217108045770E+00 
    1.7237008022144245E+00 
    1.7181119569955452E+00 
    1.7069709729949594E+00 
    1.6903967017219268E+00 
    1.6685705490369356E+00 
    1.6417067874830700E+00 
    1.6100235752351890E+00 
    1.5737784200540423E+00 
    1.5333282192617583E+00 
    1.4892047777969784E+00 
    1.4422444566409682E+00 
    1.3938081396396602E+00 
    1.3459939114199997E+00 
    1.3016843835175722E+00 
    1.2645168526427319E+00 
    1.2420360146431944E+00 
    1.7029624197188018E+00 
    1.6972542528850174E+00 
    1.6858315977106058E+00 
    1.6687213094326325E+00 
    1.6459768715829637E+00 
    1.6176493255744810E+00 
    1.5837493106127174E+00 
    1.5442814544528616E+00 
    1.4993023157193823E+00 
    1.4489931481888683E+00 
    1.3938081396401087E+00 
    1.3347875260497595E+00 
    1.2739719498127555E+00 
    1.2148265023922185E+00 
    1.1626510478227359E+00 
    1.1284956068073166E+00 
    1.6854041646702167E+00 
    1.6795455062347413E+00 
    1.6677866835853792E+00 
    1.6500744022418017E+00 
    1.6263468372474339E+00 
    1.5965009553968093E+00 
    1.5603276816806839E+00 
    1.5175278842681676E+00 
    1.4677558877680468E+00 
    1.4106598195843230E+00 
    1.3459939114210135E+00 
    1.2739719498133475E+00 
    1.1958640686183566E+00 
    1.1149745583361850E+00 
    1.0382124337792829E+00 
    9.8246939184135473E-01 
    1.6709070092383977E+00 
    1.6648931043147155E+00 
    1.6528008573411574E+00 
    1.6345164276432445E+00 
    1.6098839925845259E+00 
    1.5786623862423455E+00 
    1.5404273134526139E+00 
    1.4945566999827420E+00 
    1.4402289851825580E+00 
    1.3763771027580884E+00 
    1.3016843835192475E+00 
    1.2148265023935314E+00 
    1.1149745583369479E+00 
    1.0030671812414687E+00 
    8.8517097768186814E-01 
    7.8573590813917593E-01 
    1.6592916973834315E+00 
    1.6531323936346292E+00 
    1.6407470446630770E+00 
    1.6219978266761688E+00 
    1.5966567786074675E+00 
    1.5643582827409497E+00 
    1.5245158655569810E+00 
    1.4762408511802185E+00 
    1.4182144064893005E+00 
    1.3485236948471200E+00 
    1.2645168526450321E+00 
    1.1626510478246821E+00 
    1.0382124337806427E+00 
    8.8517097768233499E-01 
    6.9849660730787233E-01 
    4.9688588693010494E-01 
    1.6529045255971804E+00 
    1.6466655081180497E+00 
    1.6341247315160023E+00 
    1.6151383394490455E+00 
    1.5894268223873596E+00 
    1.5565443424149461E+00 
    1.5158343562570249E+00 
    1.4662502386140277E+00 
    1.4060680238438983E+00 
    1.3326217108076217E+00 
    1.2420360146460734E+00 
    1.1284956068098249E+00 
    9.8246939184317028E-01 
    7.8573590813972805E-01 
    4.9688588692942259E-01 
    0.0000000000000000E+00 

SCALARS Saturarion double 1 
LOOKUP_TABLE default 

    1.0000000000000000E+00 
    9.5088683491301995E-01 
    9.0837609551949094E-01 
    8.6393086409453845E-01 
    8.1950115283278557E-01 
    7.7652603418719512E-01 
    7.3510017270304184E-01 
    6.9508331995147898E-01 
    6.5580432974940972E-01 
    6.1663828357656059E-01 
    5.7606926001147940E-01 
    5.3160813978229327E-01 
    4.7653769808177554E-01 
    3.9472856352849756E-01 
    2.3658953416712136E-01 
    3.1426749610051312E-02 
    9.5088683491327008E-01 
    9.1830867784392656E-01 
    8.8083784003912213E-01 
    8.4125501181335838E-01 
    8.0108429734253428E-01 
    7.6166799386445228E-01 
    7.2317092538263561E-01 
    6.8561497019719508E-01 
    6.4840736934318999E-01 
    6.1095742419121934E-01 
    5.7182303745075225E-01 
    5.2857006948611385E-01 
    4.7445074290084727E-01 
    3.9290524195038706E-01 
    2.3360564334200365E-01 
    2.9894847383401021E-02 
    9.0837609552007159E-01 
    8.8083784003941512E-01 
    8.4824699114100155E-01 
    8.1358933994642746E-01 
    7.7805738636213750E-01 
    7.4270067021639685E-01 
    7.0774379308438995E-01 
    6.7329909745828420E-01 
    6.3884966219227080E-01 
    6.0369705506700788E-01 
    5.6652505751758686E-01 
    5.2493123906519268E-01 
    4.7227013211119984E-01 
    3.9122960047433736E-01 
    2.3110818579314035E-01 
    2.8714987911049070E-02 
    8.6393086409539377E-01 
    8.4125501181395068E-01 
    8.1358933994670857E-01 
    7.8371223759799902E-01 
    7.5280376611337185E-01 
    7.2170997923340929E-01 
    6.9063759377776712E-01 
    6.5957735442881060E-01 
    6.2815660555973174E-01 
    5.9564922080600324E-01 
    5.6083704628251663E-01 
    5.2112432159837674E-01 
    4.7035015613510023E-01 
    3.8976253670702765E-01 
    2.2944796679613075E-01 
    2.8065550107286574E-02 
    8.1950115283390002E-01 
    8.0108429734334941E-01 
    7.7805738636269817E-01 
    7.5280376611361444E-01 
    7.2638301547470530E-01 
    6.9946806430116393E-01 
    6.7225326313280620E-01 
    6.4481854519123161E-01 
    6.1669765852935998E-01 
    5.8731538578653519E-01 
    5.5528564827091575E-01 
    5.1823108420440611E-01 
    4.6929611762286777E-01 
    3.9157610764130812E-01 
    2.3410351781345395E-01 
    3.1629220193403355E-02 
    7.7652603418852706E-01 
    7.6166799386542228E-01 
    7.4270067021713637E-01 
    7.2170997923386837E-01 
    6.9946806430137343E-01 
    6.7665658309416021E-01 
    6.5326712682641319E-01 
    6.2945854441371518E-01 
    6.0468864385460164E-01 
    5.7851246231614284E-01 
    5.4948665378911776E-01 
    5.1524510619383346E-01 
    4.6893709607422090E-01 
    3.9384488435118664E-01 
    2.4059033421998080E-01 
    3.5568300343916455E-02 
    7.3510017270457872E-01 
    7.2317092538385763E-01 
    7.0774379308532998E-01 
    6.9063759377842937E-01 
    6.7225326313320133E-01 
    6.5326712682658161E-01 
    6.3360645842039209E-01 
    6.1344202789456626E-01 
    5.9218859644176136E-01 
    5.6933176915715455E-01 
    5.4351706410734979E-01 
    5.1238356741807822E-01 
    4.6934473685743067E-01 
    3.9742252913331932E-01 
    2.4945964897790310E-01 
    4.1808733797815870E-02 
    6.9508331995321926E-01 
    6.8561497019861561E-01 
    6.7329909745940175E-01 
    6.5957735442963472E-01 
    6.4481854519177062E-01 
    6.2945854441402749E-01 
    6.1344202789469771E-01 
    5.9684393462949081E-01 
    5.7917679391952470E-01 
    5.5982254215760585E-01 
    5.3748668651726150E-01 
    5.0973182383664550E-01 
    4.7058333644951378E-01 
    4.0246701303467641E-01 
    2.6128723586064606E-01 
    5.2112957856166917E-02 
    6.5580432975076020E-01 
    6.4840736934436449E-01 
    6.3884966219320594E-01 
    6.2815660556043340E-01 
    6.1669765852984804E-01 
    6.0468864385490562E-01 
    5.9218859644193267E-01 
    5.7917679391959309E-01 
    5.6524126415036446E-01 
    5.4966292372238057E-01 
    5.3120346015893538E-01 
    5.0754182192017661E-01 
    4.7271284229850674E-01 
    4.1082537530993840E-01 
    2.7897070688607617E-01 
    7.3108586847035126E-02 
    6.1663828357763550E-01 
    6.1095742419214183E-01 
    6.0369705506777360E-01 
    5.9564922080656446E-01 
    5.8731538578694065E-01 
    5.7851246231639741E-01 
    5.6933176915732486E-01 
    5.5982254215769911E-01 
    5.4966292372240211E-01 
    5.3807870228064980E-01 
    5.2385076214602155E-01 
    5.0477911894120453E-01 
    4.7529947910626552E-01 
    4.2050100265817825E-01 
    3.0035865383093285E-01 
    1.0290973402707825E-01 
    5.7606926001227488E-01 
    5.7182303745142804E-01 
    5.6652505751813786E-01 
    5.6083704628293218E-01 
    5.5528564827121263E-01 
    5.4948665378931549E-01 
    5.4351706410746525E-01 
    5.3748668651731646E-01 
    5.3120346015892717E-01 
    5.2385076214599502E-01 
    5.1429527945469977E-01 
    5.0049137383165598E-01 
    4.7740975477909475E-01 
    4.3132255238427536E-01 
    3.2553820665270378E-01 
    1.4213936089112331E-01 
    5.3160813978280153E-01 
    5.2857006948653162E-01 
    5.2493123906552019E-01 
    5.2112432159861433E-01 
    5.1823108420455755E-01 
    5.1524510619390484E-01 
    5.1238356741809099E-01 
    5.0973182383660698E-01 
    5.0754182192007335E-01 
    5.0477911894108130E-01 
    5.0049137383156950E-01 
    4.9281787453048775E-01 
    4.7729380802171739E-01 
    4.4182906851767390E-01 
    3.5325436761207774E-01 
    1.8699997545095182E-01 
    4.7653769808192981E-01 
    4.7445074290095401E-01 
    4.7227013211125041E-01 
    4.7035015613509346E-01 
    4.6929611762280082E-01 
    4.6893709607408834E-01 
    4.6934473685724382E-01 
    4.7058333644927364E-01 
    4.7271284229821892E-01 
    4.7529947910597514E-01 
    4.7740975477885139E-01 
    4.7729380802157401E-01 
    4.7113568780411391E-01 
    4.4884624664909240E-01 
    3.8152431889767452E-01 
    2.3635805845252822E-01 
    3.9472856352812952E-01 
    3.9290524195002002E-01 
    3.9122960047396493E-01 
    3.8976253670663757E-01 
    3.9157610764089024E-01 
    3.9384488435072768E-01 
    3.9742252913280285E-01 
    4.0246701303408411E-01 
    4.1082537530931995E-01 
    4.2050100265758689E-01 
    4.3132255238376976E-01 
    4.4182906851731441E-01 
    4.4884624664892098E-01 
    4.4388923060493374E-01 
    4.0311012125932982E-01 
    2.8612495590430681E-01 
    2.3658953416702472E-01 
    2.3360564334188766E-01 
    2.3110818579300721E-01 
    2.2944796679594739E-01 
    2.3410351781317634E-01 
    2.4059033421956721E-01 
    2.4945964897730843E-01 
    2.6128723585983099E-01 
    2.7897070688519154E-01 
    3.0035865383004623E-01 
    3.2553820665189837E-01 
    3.5325436761142903E-01 
    3.8152431889725952E-01 
    4.0311012125915363E-01 
    3.9957802925650032E-01 
    3.2737752203199866E-01 
    3.1426749610064197E-02 
    2.9894847383402701E-02 
    2.8714987911040005E-02 
    2.8065550107246547E-02 
    3.1629220193296753E-02 
    3.5568300343699157E-02 
    4.1808733797413941E-02 
    5.2112957855458483E-02 
    7.3108586845979304E-02 
    1.0290973402580912E-01 
    1.4213936088995716E-01 
    1.8699997545008382E-01 
    2.3635805845204177E-01 
    2.8612495590419834E-01 
    3.2737752203192266E-01 
    3.2615372478568183E-01 
