# vtk DataFile Version 2.0
Pressure Field Data 
ASCII 
DATASET UNSTRUCTURED_GRID 

POINTS 289 double 

    0.0000000000000000E+00     0.0000000000000000E+00     0.0000000000000000E+00 
    1.0000000000000000E+00     0.0000000000000000E+00     0.0000000000000000E+00 
    1.0000000000000000E+00     1.0000000000000000E+00     0.0000000000000000E+00 
    0.0000000000000000E+00     1.0000000000000000E+00     0.0000000000000000E+00 
    6.2499999999872928E-02     0.0000000000000000E+00     0.0000000000000000E+00 
    1.2499999999977310E-01     0.0000000000000000E+00     0.0000000000000000E+00 
    1.8749999999959341E-01     0.0000000000000000E+00     0.0000000000000000E+00 
    2.4999999999941089E-01     0.0000000000000000E+00     0.0000000000000000E+00 
    3.1249999999922851E-01     0.0000000000000000E+00     0.0000000000000000E+00 
    3.7499999999904610E-01     0.0000000000000000E+00     0.0000000000000000E+00 
    4.3749999999886358E-01     0.0000000000000000E+00     0.0000000000000000E+00 
    4.9999999999869210E-01     0.0000000000000000E+00     0.0000000000000000E+00 
    5.6249999999884603E-01     0.0000000000000000E+00     0.0000000000000000E+00 
    6.2499999999901090E-01     0.0000000000000000E+00     0.0000000000000000E+00 
    6.8749999999917577E-01     0.0000000000000000E+00     0.0000000000000000E+00 
    7.4999999999934064E-01     0.0000000000000000E+00     0.0000000000000000E+00 
    8.1249999999950551E-01     0.0000000000000000E+00     0.0000000000000000E+00 
    8.7499999999967026E-01     0.0000000000000000E+00     0.0000000000000000E+00 
    9.3749999999983513E-01     0.0000000000000000E+00     0.0000000000000000E+00 
    1.0000000000000000E+00     6.2499999999872928E-02     0.0000000000000000E+00 
    1.0000000000000000E+00     1.2499999999977310E-01     0.0000000000000000E+00 
    1.0000000000000000E+00     1.8749999999959341E-01     0.0000000000000000E+00 
    1.0000000000000000E+00     2.4999999999941089E-01     0.0000000000000000E+00 
    1.0000000000000000E+00     3.1249999999922851E-01     0.0000000000000000E+00 
    1.0000000000000000E+00     3.7499999999904610E-01     0.0000000000000000E+00 
    1.0000000000000000E+00     4.3749999999886358E-01     0.0000000000000000E+00 
    1.0000000000000000E+00     4.9999999999869210E-01     0.0000000000000000E+00 
    1.0000000000000000E+00     5.6249999999884603E-01     0.0000000000000000E+00 
    1.0000000000000000E+00     6.2499999999901090E-01     0.0000000000000000E+00 
    1.0000000000000000E+00     6.8749999999917577E-01     0.0000000000000000E+00 
    1.0000000000000000E+00     7.4999999999934064E-01     0.0000000000000000E+00 
    1.0000000000000000E+00     8.1249999999950551E-01     0.0000000000000000E+00 
    1.0000000000000000E+00     8.7499999999967026E-01     0.0000000000000000E+00 
    1.0000000000000000E+00     9.3749999999983513E-01     0.0000000000000000E+00 
    9.3749999999973976E-01     1.0000000000000000E+00     0.0000000000000000E+00 
    8.7499999999950118E-01     1.0000000000000000E+00     0.0000000000000000E+00 
    8.1249999999991318E-01     1.0000000000000000E+00     0.0000000000000000E+00 
    7.5000000000034706E-01     1.0000000000000000E+00     0.0000000000000000E+00 
    6.8750000000078049E-01     1.0000000000000000E+00     0.0000000000000000E+00 
    6.2500000000121403E-01     1.0000000000000000E+00     0.0000000000000000E+00 
    5.6250000000164757E-01     1.0000000000000000E+00     0.0000000000000000E+00 
    5.0000000000205946E-01     1.0000000000000000E+00     0.0000000000000000E+00 
    4.3750000000182099E-01     1.0000000000000000E+00     0.0000000000000000E+00 
    3.7500000000156092E-01     1.0000000000000000E+00     0.0000000000000000E+00 
    3.1250000000130068E-01     1.0000000000000000E+00     0.0000000000000000E+00 
    2.5000000000104050E-01     1.0000000000000000E+00     0.0000000000000000E+00 
    1.8750000000078040E-01     1.0000000000000000E+00     0.0000000000000000E+00 
    1.2500000000052031E-01     1.0000000000000000E+00     0.0000000000000000E+00 
    6.2500000000260125E-02     1.0000000000000000E+00     0.0000000000000000E+00 
    0.0000000000000000E+00     9.3749999999973976E-01     0.0000000000000000E+00 
    0.0000000000000000E+00     8.7499999999950118E-01     0.0000000000000000E+00 
    0.0000000000000000E+00     8.1249999999991318E-01     0.0000000000000000E+00 
    0.0000000000000000E+00     7.5000000000034706E-01     0.0000000000000000E+00 
    0.0000000000000000E+00     6.8750000000078049E-01     0.0000000000000000E+00 
    0.0000000000000000E+00     6.2500000000121403E-01     0.0000000000000000E+00 
    0.0000000000000000E+00     5.6250000000164757E-01     0.0000000000000000E+00 
    0.0000000000000000E+00     5.0000000000205946E-01     0.0000000000000000E+00 
    0.0000000000000000E+00     4.3750000000182099E-01     0.0000000000000000E+00 
    0.0000000000000000E+00     3.7500000000156092E-01     0.0000000000000000E+00 
    0.0000000000000000E+00     3.1250000000130068E-01     0.0000000000000000E+00 
    0.0000000000000000E+00     2.5000000000104050E-01     0.0000000000000000E+00 
    0.0000000000000000E+00     1.8750000000078040E-01     0.0000000000000000E+00 
    0.0000000000000000E+00     1.2500000000052031E-01     0.0000000000000000E+00 
    0.0000000000000000E+00     6.2500000000260125E-02     0.0000000000000000E+00 
    6.2499999999897131E-02     6.2500000000235922E-02     0.0000000000000000E+00 
    6.2499999999921327E-02     1.2500000000047351E-01     0.0000000000000000E+00 
    6.2499999999945530E-02     1.8750000000070621E-01     0.0000000000000000E+00 
    6.2499999999969733E-02     2.5000000000093858E-01     0.0000000000000000E+00 
    6.2499999999993928E-02     3.1250000000117117E-01     0.0000000000000000E+00 
    6.2500000000018124E-02     3.7500000000140382E-01     0.0000000000000000E+00 
    6.2500000000042327E-02     4.3750000000163619E-01     0.0000000000000000E+00 
    6.2500000000066530E-02     5.0000000000184897E-01     0.0000000000000000E+00 
    6.2500000000090733E-02     5.6250000000147260E-01     0.0000000000000000E+00 
    6.2500000000114922E-02     6.2500000000107636E-01     0.0000000000000000E+00 
    6.2500000000139125E-02     6.8750000000068034E-01     0.0000000000000000E+00 
    6.2500000000163328E-02     7.5000000000028411E-01     0.0000000000000000E+00 
    6.2500000000187531E-02     8.1249999999988787E-01     0.0000000000000000E+00 
    6.2500000000211720E-02     8.7499999999951172E-01     0.0000000000000000E+00 
    6.2500000000235922E-02     9.3749999999974565E-01     0.0000000000000000E+00 
    1.2499999999981980E-01     6.2500000000211733E-02     0.0000000000000000E+00 
    1.2499999999986650E-01     1.2500000000042691E-01     0.0000000000000000E+00 
    1.2499999999991319E-01     1.8750000000063199E-01     0.0000000000000000E+00 
    1.2499999999995989E-01     2.5000000000083678E-01     0.0000000000000000E+00 
    1.2500000000000661E-01     3.1250000000104172E-01     0.0000000000000000E+00 
    1.2500000000005329E-01     3.7500000000124661E-01     0.0000000000000000E+00 
    1.2500000000010000E-01     4.3750000000145117E-01     0.0000000000000000E+00 
    1.2500000000014669E-01     5.0000000000163858E-01     0.0000000000000000E+00 
    1.2500000000019340E-01     5.6250000000129741E-01     0.0000000000000000E+00 
    1.2500000000024011E-01     6.2500000000093847E-01     0.0000000000000000E+00 
    1.2500000000028680E-01     6.8750000000057998E-01     0.0000000000000000E+00 
    1.2500000000033351E-01     7.5000000000022127E-01     0.0000000000000000E+00 
    1.2500000000038020E-01     8.1249999999986211E-01     0.0000000000000000E+00 
    1.2500000000042691E-01     8.7499999999952238E-01     0.0000000000000000E+00 
    1.2500000000047359E-01     9.3749999999975164E-01     0.0000000000000000E+00 
    1.8749999999966760E-01     6.2500000000187531E-02     0.0000000000000000E+00 
    1.8749999999974179E-01     1.2500000000038020E-01     0.0000000000000000E+00 
    1.8749999999981601E-01     1.8750000000055780E-01     0.0000000000000000E+00 
    1.8749999999989009E-01     2.5000000000073502E-01     0.0000000000000000E+00 
    1.8749999999996431E-01     3.1250000000091221E-01     0.0000000000000000E+00 
    1.8750000000003850E-01     3.7500000000108941E-01     0.0000000000000000E+00 
    1.8750000000011269E-01     4.3750000000126649E-01     0.0000000000000000E+00 
    1.8750000000018691E-01     5.0000000000142808E-01     0.0000000000000000E+00 
    1.8750000000026110E-01     5.6250000000112244E-01     0.0000000000000000E+00 
    1.8750000000033529E-01     6.2500000000080080E-01     0.0000000000000000E+00 
    1.8750000000040951E-01     6.8750000000047962E-01     0.0000000000000000E+00 
    1.8750000000048361E-01     7.5000000000015843E-01     0.0000000000000000E+00 
    1.8750000000055780E-01     8.1249999999983680E-01     0.0000000000000000E+00 
    1.8750000000063199E-01     8.7499999999953304E-01     0.0000000000000000E+00 
    1.8750000000070621E-01     9.3749999999975764E-01     0.0000000000000000E+00 
    2.4999999999951281E-01     6.2500000000163314E-02     0.0000000000000000E+00 
    2.4999999999961461E-01     1.2500000000033351E-01     0.0000000000000000E+00 
    2.4999999999971650E-01     1.8750000000048361E-01     0.0000000000000000E+00 
    2.4999999999981831E-01     2.5000000000063310E-01     0.0000000000000000E+00 
    2.4999999999992020E-01     3.1250000000078260E-01     0.0000000000000000E+00 
    2.5000000000002198E-01     3.7500000000093209E-01     0.0000000000000000E+00 
    2.5000000000012390E-01     4.3750000000108180E-01     0.0000000000000000E+00 
    2.5000000000022571E-01     5.0000000000121769E-01     0.0000000000000000E+00 
    2.5000000000032763E-01     5.6250000000094724E-01     0.0000000000000000E+00 
    2.5000000000042938E-01     6.2500000000066314E-01     0.0000000000000000E+00 
    2.5000000000053119E-01     6.8750000000037925E-01     0.0000000000000000E+00 
[...]
CELL_DATA 256 
SCALARS Pressure double 1 
LOOKUP_TABLE default 

    2.1031269474179579E+00 
    1.9962956681622330E+00 
    1.9258944863247900E+00 
    1.8725528979147039E+00 
    1.8283090985038501E+00 
    1.7896520694756073E+00 
    1.7549263458199065E+00 
    1.7233468116737420E+00 
    1.6945908969352201E+00 
    1.6686050398166863E+00 
    1.6454938821359271E+00 
    1.6254327469468737E+00 
    1.6085605390467932E+00 
    1.5948424103401866E+00 
    1.5840643114104527E+00 
    1.5780037475252200E+00 
    1.9962956681628043E+00 
    1.9514324823730573E+00 
    1.9030768142825212E+00 
    1.8587147660755430E+00 
    1.8186398857022734E+00 
    1.7821171750105902E+00 
    1.7485402907517464E+00 
    1.7175725587214730E+00 
    1.6891085774742005E+00 
    1.6632127715353968E+00 
    1.6400631993569768E+00 
    1.6198890022890191E+00 
    1.6028732391293063E+00 
    1.5890109952852869E+00 
    1.5781022026081029E+00 
    1.5719675564356721E+00 
    1.9258944863256036E+00 
    1.9030768142829158E+00 
    1.8707084167422836E+00 
    1.8358674499811671E+00 
    1.8013112113574765E+00 
    1.7679978598670865E+00 
    1.7362694693263516E+00 
    1.7063099651231646E+00 
    1.6783115679167546E+00 
    1.6525211268373503E+00 
    1.6292415776876525E+00 
    1.6087994510682768E+00 
    1.5914621864040013E+00 
    1.5772872655739640E+00 
    1.5661123662521845E+00 
    1.5598334896794639E+00 
    1.8725528979156922E+00 
    1.8587147660762089E+00 
    1.8358674499814829E+00 
    1.8083494209947932E+00 
    1.7788227809892616E+00 
    1.7487640613488833E+00 
    1.7190166400762508E+00 
    1.6901353749744943E+00 
    1.6625719254492961E+00 
    1.6367603056615603E+00 
    1.6131502721962983E+00 
    1.5921956228007996E+00 
    1.5742803541957051E+00 
    1.5595623376979342E+00 
    1.5479596865271870E+00 
    1.5414609578350416E+00 
    1.8283090985049804E+00 
    1.8186398857031341E+00 
    1.8013112113580318E+00 
    1.7788227809895214E+00 
    1.7531922311491830E+00 
    1.7258473242618422E+00 
    1.6977854447206102E+00 
    1.6697529973271152E+00 
    1.6423783368540339E+00 
    1.6162526279802429E+00 
    1.5919717895806575E+00 
    1.5701349681017784E+00 
    1.5512717432772289E+00 
    1.5356855937802960E+00 
    1.5234213057386703E+00 
    1.5165749261755186E+00 
    1.7896520694768630E+00 
    1.7821171750116040E+00 
    1.7679978598678283E+00 
    1.7487640613493545E+00 
    1.7258473242620647E+00 
    1.7004460886555193E+00 
    1.6735263678464467E+00 
    1.6458938654837314E+00 
    1.6182738844271658E+00 
    1.5913733259481624E+00 
    1.5659218226128298E+00 
    1.5426743441634001E+00 
    1.5223417542792759E+00 
    1.5054248923125604E+00 
    1.4921400546931851E+00 
    1.4847314560148708E+00 
    1.7549263458212732E+00 
    1.7485402907528864E+00 
    1.7362694693272440E+00 
    1.7190166400768971E+00 
    1.6977854447210243E+00 
    1.6735263678466463E+00 
    1.6470951875183610E+00 
    1.6192750323848411E+00 
    1.5908246493147353E+00 
    1.5625254083521112E+00 
    1.5352230772272619E+00 
    1.5098368695705757E+00 
    1.4873006847794623E+00 
    1.4683786183986032E+00 
    1.4535445647351442E+00 
    1.4452729412323453E+00 
    1.7233468116751929E+00 
    1.7175725587227073E+00 
    1.7063099651241729E+00 
    1.6901353749752814E+00 
    1.6697529973276928E+00 
    1.6458938654841127E+00 
    1.6192750323850327E+00 
    1.5906074375846850E+00 
    1.5606321166003012E+00 
    1.5301633617538763E+00 
    1.5001382910384786E+00 
    1.4716445551150035E+00 
    1.4458806539872353E+00 
    1.4239656771693343E+00 
    1.4067762899581244E+00 
    1.3971558412752072E+00 
    1.6945908969364829E+00 
    1.6891085774752908E+00 
    1.6783115679176752E+00 
    1.6625719254500575E+00 
    1.6423783368546474E+00 
    1.6182738844276399E+00 
    1.5908246493150726E+00 
    1.5606321166004908E+00 
    1.5283712286634188E+00 
    1.4948399588990522E+00 
    1.4610260436201263E+00 
    1.4281725893745461E+00 
    1.3977777810653582E+00 
    1.3714322198281073E+00 
    1.3506035771280664E+00 
    1.3387457111818608E+00 
    1.6686050398175978E+00 
    1.6632127715361971E+00 
    1.6525211268380529E+00 
    1.6367603056621833E+00 
    1.6162526279808007E+00 
    1.5913733259486653E+00 
    1.5625254083525626E+00 
    1.5301633617542674E+00 
    1.4948399588993035E+00 
    1.4572676416255592E+00 
    1.4184121798759932E+00 
    1.3796185473835711E+00 
    1.3426922592035351E+00 
    1.3098164049587357E+00 
    1.2832982338888370E+00 
    1.2676396714484890E+00 
    1.6454938821365288E+00 
    1.6400631993575192E+00 
    1.6292415776881588E+00 
    1.6131502721967959E+00 
    1.5919717895811685E+00 
    1.5659218226133729E+00 
    1.5352230772278497E+00 
    1.5001382910391114E+00 
    1.4610260436206908E+00 
    1.4184121798763207E+00 
    1.3731125295647835E+00 
    1.3264417165277200E+00 
    1.2804324321945257E+00 
    1.2379375444094753E+00 
    1.2024779607875657E+00 
    1.1803958611593415E+00 
    1.6254327469472147E+00 
    1.6198890022893444E+00 
    1.6087994510686194E+00 
    1.5921956228011969E+00 
    1.5701349681022647E+00 
    1.5426743441640069E+00 
    1.5098368695713313E+00 
    1.4716445551159278E+00 
    1.4281725893754960E+00 
    1.3796185473843146E+00 
    1.3264417165281519E+00 
    1.2696561075877755E+00 
    1.2112382630437788E+00 
    1.1545957202667863E+00 
    1.1048849809136019E+00 
    1.0716928960251462E+00 
    1.6085605390469253E+00 
    1.6028732391294582E+00 
    1.5914621864042160E+00 
    1.5742803541960333E+00 
    1.5512717432777183E+00 
    1.5223417542799749E+00 
    1.4873006847804213E+00 
    1.4458806539885032E+00 
    1.3977777810667680E+00 
    1.3426922592047839E+00 
    1.2804324321955003E+00 
    1.2112382630443468E+00 
    1.1363561212863156E+00 
    1.0590421707268558E+00 
    9.8606619489050218E-01 
    9.3251438753357174E-01 
    1.5948424103401657E+00 
    1.5890109952853146E+00 
    1.5772872655740924E+00 
    1.5595623376982286E+00 
    1.5356855937808198E+00 
    1.5054248923133808E+00 
    1.4683786183997989E+00 
    1.4239656771709879E+00 
    1.3714322198300348E+00 
    1.3098164049605623E+00 
    1.2379375444110836E+00 
    1.1545957202680424E+00 
    1.0590421707275828E+00 
    9.5227107882144668E-01 
    8.4032958822817494E-01 
    7.4552792814856461E-01 
    1.5840643114104080E+00 
    1.5781022026081204E+00 
    1.5661123662523271E+00 
    1.5479596865275329E+00 
    1.5234213057392991E+00 
    1.4921400546941848E+00 
    1.4535445647366190E+00 
    1.4067762899601950E+00 
    1.3506035771305289E+00 
    1.2832982338912364E+00 
    1.2024779607897713E+00 
    1.1048849809154602E+00 
    9.8606619489179692E-01 
    8.4032958822862003E-01 
    6.6315877816661239E-01 
    4.7155969973681544E-01 
    1.5780037475251925E+00 
    1.5719675564357145E+00 
    1.5598334896796497E+00 
    1.5414609578354637E+00 
    1.5165749261762704E+00 
    1.4847314560160594E+00 
    1.4452729412341012E+00 
    1.3971558412776859E+00 
    1.3387457111848333E+00 
    1.2676396714514293E+00 
    1.1803958611621017E+00 
    1.0716928960275374E+00 
    9.3251438753529692E-01 
    7.4552792814909119E-01 
    4.7155969973617101E-01 
    0.0000000000000000E+00 

SCALARS Saturarion double 1 
LOOKUP_TABLE default 

    1.0000000000000000E+00 
    9.5342838406425323E-01 
    9.1270697170156267E-01 
    8.6979317521157995E-01 
    8.2662147892934423E-01 
    7.8465021172925209E-01 
    7.4404269216734831E-01 
    7.0471348517959109E-01 
    6.6605298280412473E-01 
    6.2749503452503486E-01 
    5.8764392780921726E-01 
    5.4429386646306410E-01 
    4.9165950684425724E-01 
    4.1628375934434375E-01 
    2.7474269617886476E-01 
    5.1945917589211257E-02 
    9.5342838406449237E-01 
    9.2226418667172927E-01 
    8.8617952956519808E-01 
    8.4781869856647385E-01 
    8.0868850105967427E-01 
    7.7012996853877924E-01 
    7.3235509401134868E-01 
    6.9542336590681741E-01 
    6.5879413429199318E-01 
    6.2193032996271025E-01 
    5.8350636044260995E-01 
    5.4137291827661815E-01 
    4.8974288940697180E-01 
    4.1484328665334080E-01 
    2.7276629899533700E-01 
    5.0347966020273721E-02 
    9.1270697170214266E-01 
    8.8617952956547641E-01 
    8.5463280415330922E-01 
    8.2091684197688397E-01 
    7.8621219986222179E-01 
    7.5156414689784745E-01 
    7.1722649220079437E-01 
    6.8333547992540145E-01 
    6.4941648716334321E-01 
    6.1482392024277288E-01 
    5.7835169235427741E-01 
    5.3788360934420421E-01 
    4.8775040273368281E-01 
    4.1358796969082284E-01 
    2.7135557752314737E-01 
    4.9316837540918555E-02 
    8.6979317521243515E-01 
    8.4781869856705927E-01 
    8.2091684197715598E-01 
    7.9175419453174090E-01 
    7.6149257974090623E-01 
    7.3097366219694793E-01 
    7.0042291936444567E-01 
    6.6985168262396344E-01 
    6.3891783450143169E-01 
    6.0694418480806345E-01 
    5.7281684643879249E-01 
    5.3424087119414709E-01 
    4.8601167833865172E-01 
    4.1258558111939414E-01 
    2.7080317682896909E-01 
    4.9101394154868444E-02 
    8.2662147893041649E-01 
    8.0868850106046597E-01 
    7.8621219986274593E-01 
    7.6149257974113627E-01 
    7.3557249908165412E-01 
    7.0912267875559321E-01 
    6.8234922667137565E-01 
    6.5534299919057537E-01 
    6.2766630512186905E-01 
    5.9878156638067670E-01 
    5.6740687032677406E-01 
    5.3144839915920272E-01 
    4.8508276085570806E-01 
    4.1443401223351684E-01 
    2.7505188384541363E-01 
    5.4327202179952627E-02 
    7.8465021173055871E-01 
    7.7012996853975990E-01 
    7.5156414689858320E-01 
    7.3097366219740745E-01 
    7.0912267875578561E-01 
    6.8668646418385448E-01 
    6.6367174509941962E-01 
    6.4024087107838368E-01 
    6.1587957952720274E-01 
    5.9017073104036299E-01 
    5.6177263491102758E-01 
    5.2859224772116442E-01 
    4.8482161082577235E-01 
    4.1674074477480055E-01 
    2.8110635024042413E-01 
    6.0511756489981042E-02 
    7.4404269216887375E-01 
    7.3235509401256949E-01 
    7.1722649220172319E-01 
    7.0042291936509082E-01 
    6.8234922667176612E-01 
    6.6367174509959115E-01 
    6.4433217427078271E-01 
    6.2450096904976271E-01 
    6.0362001815686739E-01 
    5.8120213528075815E-01 
    5.5598679782141680E-01 
    5.2587489975387547E-01 
    4.8529160023457674E-01 
    4.2026912659778032E-01 
    2.8943145845281865E-01 
    6.9756860181813762E-02 
    7.0471348518129973E-01 
    6.9542336590822895E-01 
    6.8333547992650379E-01 
    6.6985168262478090E-01 
    6.5534299919111605E-01 
    6.4024087107869410E-01 
    6.2450096904989272E-01 
    6.0819903283759646E-01 
    5.9086834774723052E-01 
    5.7191985951332880E-01 
    5.5014617000252886E-01 
    5.2336745562561260E-01 
    4.8653735596418951E-01 
    4.2515316545218790E-01 
    3.0037358559890787E-01 
    8.3889246650651228E-02 
    6.6605298280544567E-01 
    6.5879413429313516E-01 
    6.4941648716427069E-01 
    6.3891783450213313E-01 
    6.2766630512234933E-01 
    6.1587957952750561E-01 
    6.0362001815702382E-01 
    5.9086834774729502E-01 
    5.7722756286884724E-01 
    5.6200947146101721E-01 
    5.4405270679506068E-01 
    5.2127009090173981E-01 
    4.8858404214219292E-01 
    4.3290792648785353E-01 
    3.1616836770860141E-01 
    1.0848473681074866E-01 
    6.2749503452609712E-01 
    6.2193032996360720E-01 
    6.1482392024351307E-01 
    6.0694418480863244E-01 
    5.9878156638107150E-01 
    5.9017073104060913E-01 
    5.8120213528091591E-01 
    5.7191985951341784E-01 
    5.6200947146103775E-01 
    5.5072940180031726E-01 
    5.3692850615840415E-01 
    5.1861107078236390E-01 
    4.9100577991111877E-01 
    4.4179696552672276E-01 
    3.3520029473178536E-01 
    1.4008487709789269E-01 
    5.8764392780999986E-01 
    5.8350636044327808E-01 
    5.7835169235481643E-01 
    5.7281684643920583E-01 
    5.6740687032706494E-01 
    5.6177263491120955E-01 
    5.5598679782152882E-01 
    5.5014617000258170E-01 
    5.4405270679505180E-01 
    5.3692850615837395E-01 
    5.2769636988714397E-01 
    5.1447962462512420E-01 
    4.9291677323701505E-01 
    4.5160133630367960E-01 
    3.5760231028018763E-01 
    1.7775877874234039E-01 
    5.4429386646356381E-01 
    5.4137291827703582E-01 
    5.3788360934453128E-01 
    5.3424087119438413E-01 
    5.3144839915934594E-01 
    5.2859224772123037E-01 
    5.2587489975387980E-01 
    5.2336745562556830E-01 
    5.2127009090164544E-01 
    5.1861107078224811E-01 
    5.1447962462503938E-01 
    5.0715036920877365E-01 
    4.9269548314811495E-01 
    4.6097565669481461E-01 
    3.8226762355338145E-01 
    2.1943281168306719E-01 
    4.9165950684441034E-01 
    4.8974288940707589E-01 
    4.8775040273373499E-01 
    4.8601167833864833E-01 
    4.8508276085564289E-01 
    4.8482161082564545E-01 
    4.8529160023439250E-01 
    4.8653735596395609E-01 
    4.8858404214192136E-01 
    4.9100577991084549E-01 
    4.9291677323678706E-01 
    4.9269548314798106E-01 
    4.8694411748538502E-01 
    4.6708362080654653E-01 
    4.0736806342987958E-01 
    2.6536301798397927E-01 
    4.1628375934399270E-01 
    4.1484328665299047E-01 
    4.1358796969047101E-01 
    4.1258558111902227E-01 
    4.1443401223311632E-01 
    4.1674074477435907E-01 
    4.2026912659728644E-01 
    4.2515316545162957E-01 
    4.3290792648728182E-01 
    4.4179696552617959E-01 
    4.5160133630321631E-01 
    4.6097565669448420E-01 
    4.6708362080638993E-01 
    4.6262844526606034E-01 
    4.2653282292545036E-01 
    3.1232426193237756E-01 
    2.7474269617873676E-01 
    2.7276629899519489E-01 
    2.7135557752299355E-01 
    2.7080317682877936E-01 
    2.7505188384515122E-01 
    2.8110635024004710E-01 
    2.8943145845229362E-01 
    3.0037358559819710E-01 
    3.1616836770782697E-01 
    3.3520029473100887E-01 
    3.5760231027948203E-01 
    3.8226762355281241E-01 
    4.0736806342951737E-01 
    4.2653282292530098E-01 
    4.2339578674276063E-01 
    3.5228433809280602E-01 
    5.1945917589213381E-02 
    5.0347966020265082E-02 
    4.9316837540899182E-02 
    4.9101394154809547E-02 
    5.4327202179812378E-02 
    6.0511756489690531E-02 
    6.9756860181290792E-02 
    8.3889246649773333E-02 
    1.0848473680964790E-01 
    1.4008487709674622E-01 
    1.7775877874135734E-01 
    2.1943281168234594E-01 
    2.6536301798358736E-01 
    3.1232426193232299E-01 
    3.5228433809276277E-01 
    3.5122180925321178E-01 
