# vtk DataFile Version 2.0
Pressure Field Data 
ASCII 
DATASET UNSTRUCTURED_GRID 

POINTS 289 double 

    0.0000000000000000E+00     0.0000000000000000E+00     0.0000000000000000E+00 
    1.0000000000000000E+00     0.0000000000000000E+00     0.0000000000000000E+00 
    1.0000000000000000E+00     1.0000000000000000E+00     0.0000000000000000E+00 
    0.0000000000000000E+00     1.0000000000000000E+00     0.0000000000000000E+00 
    6.2499999999872928E-02     0.0000000000000000E+00     0.0000000000000000E+00 
    1.2499999999977310E-01     0.0000000000000000E+00     0.0000000000000000E+00 
    1.8749999999959341E-01     0.0000000000000000E+00     0.0000000000000000E+00 
    2.4999999999941089E-01     0.0000000000000000E+00     0.0000000000000000E+00 
    3.1249999999922851E-01     0.0000000000000000E+00     0.0000000000000000E+00 
    3.7499999999904610E-01     0.0000000000000000E+00     0.0000000000000000E+00 
    4.3749999999886358E-01     0.0000000000000000E+00     0.0000000000000000E+00 
    4.9999999999869210E-01     0.0000000000000000E+00     0.0000000000000000E+00 
    5.6249999999884603E-01     0.0000000000000000E+00     0.0000000000000000E+00 
    6.2499999999901090E-01     0.0000000000000000E+00     0.0000000000000000E+00 
    6.8749999999917577E-01     0.0000000000000000E+00     0.0000000000000000E+00 
    7.4999999999934064E-01     0.0000000000000000E+00     0.0000000000000000E+00 
    8.1249999999950551E-01     0.0000000000000000E+00     0.0000000000000000E+00 
    8.7499999999967026E-01     0.0000000000000000E+00     0.0000000000000000E+00 
    9.3749999999983513E-01     0.0000000000000000E+00     0.0000000000000000E+00 
    1.0000000000000000E+00     6.2499999999872928E-02     0.0000000000000000E+00 
    1.0000000000000000E+00     1.2499999999977310E-01     0.0000000000000000E+00 
    1.0000000000000000E+00     1.8749999999959341E-01     0.0000000000000000E+00 
    1.0000000000000000E+00     2.4999999999941089E-01     0.0000000000000000E+00 
    1.0000000000000000E+00     3.1249999999922851E-01     0.0000000000000000E+00 
    1.0000000000000000E+00     3.7499999999904610E-01     0.0000000000000000E+00 
    1.0000000000000000E+00     4.3749999999886358E-01     0.0000000000000000E+00 
    1.0000000000000000E+00     4.9999999999869210E-01     0.0000000000000000E+00 
    1.0000000000000000E+00     5.6249999999884603E-01     0.0000000000000000E+00 
    1.0000000000000000E+00     6.2499999999901090E-01     0.0000000000000000E+00 
    1.0000000000000000E+00     6.8749999999917577E-01     0.0000000000000000E+00 
    1.0000000000000000E+00     7.4999999999934064E-01     0.0000000000000000E+00 
    1.0000000000000000E+00     8.1249999999950551E-01     0.0000000000000000E+00 
    1.0000000000000000E+00     8.7499999999967026E-01     0.0000000000000000E+00 
    1.0000000000000000E+00     9.3749999999983513E-01     0.0000000000000000E+00 
    9.3749999999973976E-01     1.0000000000000000E+00     0.0000000000000000E+00 
    8.7499999999950118E-01     1.0000000000000000E+00     0.0000000000000000E+00 
    8.1249999999991318E-01     1.0000000000000000E+00     0.0000000000000000E+00 
    7.5000000000034706E-01     1.0000000000000000E+00     0.0000000000000000E+00 
    6.8750000000078049E-01     1.0000000000000000E+00     0.0000000000000000E+00 
    6.2500000000121403E-01     1.0000000000000000E+00     0.0000000000000000E+00 
    5.6250000000164757E-01     1.0000000000000000E+00     0.0000000000000000E+00 
    5.0000000000205946E-01     1.0000000000000000E+00     0.0000000000000000E+00 
    4.3750000000182099E-01     1.0000000000000000E+00     0.0000000000000000E+00 
    3.7500000000156092E-01     1.0000000000000000E+00     0.0000000000000000E+00 
    3.1250000000130068E-01     1.0000000000000000E+00     0.0000000000000000E+00 
    2.5000000000104050E-01     1.0000000000000000E+00     0.0000000000000000E+00 
    1.8750000000078040E-01     1.0000000000000000E+00     0.0000000000000000E+00 
    1.2500000000052031E-01     1.0000000000000000E+00     0.0000000000000000E+00 
    6.2500000000260125E-02     1.0000000000000000E+00     0.0000000000000000E+00 
    0.0000000000000000E+00     9.3749999999973976E-01     0.0000000000000000E+00 
    0.0000000000000000E+00     8.7499999999950118E-01     0.0000000000000000E+00 
    0.0000000000000000E+00     8.1249999999991318E-01     0.0000000000000000E+00 
    0.0000000000000000E+00     7.5000000000034706E-01     0.0000000000000000E+00 
    0.0000000000000000E+00     6.8750000000078049E-01     0.0000000000000000E+00 
    0.0000000000000000E+00     6.2500000000121403E-01     0.0000000000000000E+00 
    0.0000000000000000E+00     5.6250000000164757E-01     0.0000000000000000E+00 
    0.0000000000000000E+00     5.0000000000205946E-01     0.0000000000000000E+00 
    0.0000000000000000E+00     4.3750000000182099E-01     0.0000000000000000E+00 
    0.0000000000000000E+00     3.7500000000156092E-01     0.0000000000000000E+00 
    0.0000000000000000E+00     3.1250000000130068E-01     0.0000000000000000E+00 
    0.0000000000000000E+00     2.5000000000104050E-01     0.0000000000000000E+00 
    0.0000000000000000E+00     1.8750000000078040E-01     0.0000000000000000E+00 
    0.0000000000000000E+00     1.2500000000052031E-01     0.0000000000000000E+00 
    0.0000000000000000E+00     6.2500000000260125E-02     0.0000000000000000E+00 
    6.2499999999897131E-02     6.2500000000235922E-02     0.0000000000000000E+00 
    6.2499999999921327E-02     1.2500000000047351E-01     0.0000000000000000E+00 
    6.2499999999945530E-02     1.8750000000070621E-01     0.0000000000000000E+00 
    6.2499999999969733E-02     2.5000000000093858E-01     0.0000000000000000E+00 
    6.2499999999993928E-02     3.1250000000117117E-01     0.0000000000000000E+00 
    6.2500000000018124E-02     3.7500000000140382E-01     0.0000000000000000E+00 
    6.2500000000042327E-02     4.3750000000163619E-01     0.0000000000000000E+00 
    6.2500000000066530E-02     5.0000000000184897E-01     0.0000000000000000E+00 
    6.2500000000090733E-02     5.6250000000147260E-01     0.0000000000000000E+00 
    6.2500000000114922E-02     6.2500000000107636E-01     0.0000000000000000E+00 
    6.2500000000139125E-02     6.8750000000068034E-01     0.0000000000000000E+00 
    6.2500000000163328E-02     7.5000000000028411E-01     0.0000000000000000E+00 
    6.2500000000187531E-02     8.1249999999988787E-01     0.0000000000000000E+00 
    6.2500000000211720E-02     8.7499999999951172E-01     0.0000000000000000E+00 
    6.2500000000235922E-02     9.3749999999974565E-01     0.0000000000000000E+00 
    1.2499999999981980E-01     6.2500000000211733E-02     0.0000000000000000E+00 
    1.2499999999986650E-01     1.2500000000042691E-01     0.0000000000000000E+00 
    1.2499999999991319E-01     1.8750000000063199E-01     0.0000000000000000E+00 
    1.2499999999995989E-01     2.5000000000083678E-01     0.0000000000000000E+00 
    1.2500000000000661E-01     3.1250000000104172E-01     0.0000000000000000E+00 
    1.2500000000005329E-01     3.7500000000124661E-01     0.0000000000000000E+00 
    1.2500000000010000E-01     4.3750000000145117E-01     0.0000000000000000E+00 
    1.2500000000014669E-01     5.0000000000163858E-01     0.0000000000000000E+00 
    1.2500000000019340E-01     5.6250000000129741E-01     0.0000000000000000E+00 
    1.2500000000024011E-01     6.2500000000093847E-01     0.0000000000000000E+00 
    1.2500000000028680E-01     6.8750000000057998E-01     0.0000000000000000E+00 
    1.2500000000033351E-01     7.5000000000022127E-01     0.0000000000000000E+00 
    1.2500000000038020E-01     8.1249999999986211E-01     0.0000000000000000E+00 
    1.2500000000042691E-01     8.7499999999952238E-01     0.0000000000000000E+00 
    1.2500000000047359E-01     9.3749999999975164E-01     0.0000000000000000E+00 
    1.8749999999966760E-01     6.2500000000187531E-02     0.0000000000000000E+00 
    1.8749999999974179E-01     1.2500000000038020E-01     0.0000000000000000E+00 
    1.8749999999981601E-01     1.8750000000055780E-01     0.0000000000000000E+00 
    1.8749999999989009E-01     2.5000000000073502E-01     0.0000000000000000E+00 
    1.8749999999996431E-01     3.1250000000091221E-01     0.0000000000000000E+00 
    1.8750000000003850E-01     3.7500000000108941E-01     0.0000000000000000E+00 
    1.8750000000011269E-01     4.3750000000126649E-01     0.0000000000000000E+00 
    1.8750000000018691E-01     5.0000000000142808E-01     0.0000000000000000E+00 
    1.8750000000026110E-01     5.6250000000112244E-01     0.0000000000000000E+00 
    1.8750000000033529E-01     6.2500000000080080E-01     0.0000000000000000E+00 
    1.8750000000040951E-01     6.8750000000047962E-01     0.0000000000000000E+00 
    1.8750000000048361E-01     7.5000000000015843E-01     0.0000000000000000E+00 
    1.8750000000055780E-01     8.1249999999983680E-01     0.0000000000000000E+00 
    1.8750000000063199E-01     8.7499999999953304E-01     0.0000000000000000E+00 
    1.8750000000070621E-01     9.3749999999975764E-01     0.0000000000000000E+00 
    2.4999999999951281E-01     6.2500000000163314E-02     0.0000000000000000E+00 
    2.4999999999961461E-01     1.2500000000033351E-01     0.0000000000000000E+00 
    2.4999999999971650E-01     1.8750000000048361E-01     0.0000000000000000E+00 
    2.4999999999981831E-01     2.5000000000063310E-01     0.0000000000000000E+00 
    2.4999999999992020E-01     3.1250000000078260E-01     0.0000000000000000E+00 
    2.5000000000002198E-01     3.7500000000093209E-01     0.0000000000000000E+00 
    2.5000000000012390E-01     4.3750000000108180E-01     0.0000000000000000E+00 
    2.5000000000022571E-01     5.0000000000121769E-01     0.0000000000000000E+00 
    2.5000000000032763E-01     5.6250000000094724E-01     0.0000000000000000E+00 
    2.5000000000042938E-01     6.2500000000066314E-01     0.0000000000000000E+00 
    2.5000000000053119E-01     6.8750000000037925E-01     0.0000000000000000E+00 
[...]
CELL_DATA 256 
SCALARS Pressure double 1 
LOOKUP_TABLE default 

    2.4174872155905525E+00 
    2.3090684208180297E+00 
    2.2363211480623209E+00 
    2.1803171391364811E+00 
    2.1331929009216339E+00 
    2.0915016770323240E+00 
    2.0536415284790088E+00 
    2.0188729931275571E+00 
    1.9869142904298733E+00 
    1.9577445331230143E+00 
    1.9314793269958757E+00 
    1.9082412557571196E+00 
    1.8879401575537023E+00 
    1.8700566066565900E+00 
    1.8558315767070748E+00 
    1.8486703586634750E+00 
    2.3090684208186145E+00 
    2.2629628096446095E+00 
    2.2125483649256972E+00 
    2.1656884406174330E+00 
    2.1228298099877367E+00 
    2.0833295468207815E+00 
    2.0466482697244968E+00 
    2.0125025489201920E+00 
    1.9808329007862686E+00 
    1.9517399780586693E+00 
    1.9254152614932885E+00 
    1.9020355432282119E+00 
    1.8815457540156753E+00 
    1.8634220273297142E+00 
    1.8490082745482292E+00 
    1.8417649902086120E+00 
    2.2363211480631686E+00 
    2.2125483649261102E+00 
    2.1784422305989053E+00 
    2.1413345318740133E+00 
    2.1041489315504323E+00 
    2.0679538338793186E+00 
    2.0331719360504659E+00 
    2.0000506119041943E+00 
    1.9688359038339573E+00 
    1.9398171233064323E+00 
    1.9133155893834779E+00 
    1.8896066730179062E+00 
    1.8687065685533413E+00 
    1.8501010429929472E+00 
    1.8353062054974270E+00 
    1.8278859135295853E+00 
    2.1803171391375238E+00 
    2.1656884406181383E+00 
    2.1413345318743495E+00 
    2.1117554757647796E+00 
    2.0797528889422656E+00 
    2.0469111756123497E+00 
    2.0141589161413012E+00 
    1.9821211276334643E+00 
    1.9513102399943512E+00 
    1.9222099262748700E+00 
    1.8952954932309378E+00 
    1.8709736733424331E+00 
    1.8493631267296182E+00 
    1.8299973016766689E+00 
    1.8145939006149174E+00 
    1.8068676900907426E+00 
    2.1331929009228454E+00 
    2.1228298099886618E+00 
    2.1041489315510300E+00 
    2.0797528889425472E+00 
    2.0517666919032980E+00 
    2.0217130012444962E+00 
    1.9906709041981512E+00 
    1.9594587727415631E+00 
    1.9287704334737388E+00 
    1.8992539882562618E+00 
    1.8715400100618840E+00 
    1.8461884375857180E+00 
    1.8234484715604016E+00 
    1.8029451379987596E+00 
    1.7866036452570471E+00 
    1.7783855426031705E+00 
    2.0915016770336865E+00 
    2.0833295468218824E+00 
    2.0679538338801251E+00 
    2.0469111756128640E+00 
    2.0217130012447404E+00 
    1.9936362162877908E+00 
    1.9637202866542272E+00 
    1.9328406253119350E+00 
    1.9017905156097097E+00 
    1.8713407998036373E+00 
    1.8422670450005159E+00 
    1.8152962104228587E+00 
    1.7908473928422870E+00 
    1.7686681322739597E+00 
    1.7509070013315140E+00 
    1.7419335318098155E+00 
    2.0536415284805041E+00 
    2.0466482697257438E+00 
    2.0331719360514433E+00 
    2.0141589161420108E+00 
    1.9906709041986088E+00 
    1.9637202866544485E+00 
    1.9342252363960464E+00 
    1.9030326263420054E+00 
    1.8709688809477578E+00 
    1.8388852190912899E+00 
    1.8076867513464241E+00 
    1.7782817343892130E+00 
    1.7513144827470644E+00 
    1.7267116568939822E+00 
    1.7068805769829518E+00 
    1.6967825744120157E+00 
    2.0188729931291580E+00 
    2.0125025489215531E+00 
    2.0000506119053081E+00 
    1.9821211276343353E+00 
    1.9594587727422041E+00 
    1.9328406253123580E+00 
    1.9030326263422184E+00 
    1.8707995070015808E+00 
    1.8369454193495585E+00 
    1.8023572875295695E+00 
    1.7680451089472577E+00 
    1.7351116611765058E+00 
    1.7044886157801540E+00 
    1.6764024105907680E+00 
    1.6535620212280577E+00 
    1.6417950761851725E+00 
    1.9869142904312784E+00 
    1.9808329007874819E+00 
    1.9688359038349832E+00 
    1.9513102399952003E+00 
    1.9287704334744229E+00 
    1.9017905156102393E+00 
    1.8709688809481344E+00 
    1.8369454193497705E+00 
    1.8004472221431980E+00 
    1.7623411995732676E+00 
    1.7236968903686911E+00 
    1.6858049295029784E+00 
    1.6499420150185917E+00 
    1.6167987317836809E+00 
    1.5894649675133943E+00 
    1.5751772388344563E+00 
    1.9577445331240400E+00 
    1.9517399780595694E+00 
    1.9398171233072223E+00 
    1.9222099262755679E+00 
    1.8992539882568849E+00 
    1.8713407998041993E+00 
    1.8388852190917950E+00 
    1.8023572875300082E+00 
    1.7623411995735501E+00 
    1.7196021853366137E+00 
    1.6751828022621753E+00 
    1.6305025103382893E+00 
    1.5872126544255061E+00 
    1.5466361951710987E+00 
    1.5124538969830297E+00 
    1.4942528281047129E+00 
    1.9314793269965609E+00 
    1.9254152614939049E+00 
    1.9133155893840512E+00 
    1.8952954932314969E+00 
    1.8715400100624549E+00 
    1.8422670450011218E+00 
    1.8076867513470802E+00 
    1.7680451089479670E+00 
    1.7236968903693248E+00 
    1.6751828022625435E+00 
    1.6233586451893891E+00 
    1.5696107515458999E+00 
    1.5158887919576149E+00 
    1.4642898277205065E+00 
    1.4195181823701699E+00 
    1.3949306043729954E+00 
    1.9082412557575112E+00 
    1.9020355432285834E+00 
    1.8896066730182923E+00 
    1.8709736733428772E+00 
    1.8461884375862574E+00 
    1.8152962104235317E+00 
    1.7782817343900541E+00 
    1.7351116611775392E+00 
    1.6858049295040440E+00 
    1.6305025103391251E+00 
    1.5696107515463877E+00 
    1.5041333349943247E+00 
    1.4359646419146748E+00 
    1.3678833240773882E+00 
    1.3061626789629779E+00 
    1.2701668858993937E+00 
    1.8879401575538501E+00 
    1.8815457540158436E+00 
    1.8687065685535753E+00 
    1.8493631267299757E+00 
    1.8234484715609367E+00 
    1.7908473928430553E+00 
    1.7513144827481260E+00 
    1.7044886157815660E+00 
    1.6499420150201689E+00 
    1.5872126544269101E+00 
    1.5158887919587198E+00 
    1.4359646419153251E+00 
    1.3483781378468236E+00 
    1.2556960691031531E+00 
    1.1656570452753674E+00 
    1.1068758639734932E+00 
    1.8700566066565463E+00 
    1.8634220273297242E+00 
    1.8501010429930682E+00 
    1.8299973016769739E+00 
    1.8029451379993204E+00 
    1.7686681322748536E+00 
    1.7267116568952989E+00 
    1.6764024105926045E+00 
    1.6167987317858326E+00 
    1.5466361951731500E+00 
    1.4642898277223324E+00 
    1.3678833240788357E+00 
    1.2556960691040073E+00 
    1.1272662382389087E+00 
    9.8857511637241735E-01 
    8.8008470207176259E-01 
    1.8558315767069942E+00 
    1.8490082745482186E+00 
    1.8353062054975564E+00 
    1.8145939006152765E+00 
    1.7866036452577245E+00 
    1.7509070013326113E+00 
    1.7068805769845887E+00 
    1.6535620212303728E+00 
    1.5894649675161565E+00 
    1.5124538969857315E+00 
    1.4195181823726719E+00 
    1.3061626789651086E+00 
    1.1656570452768709E+00 
    9.8857511637291995E-01 
    7.6715538854962495E-01 
    5.4142005069348009E-01 
    1.8486703586634143E+00 
    1.8417649902086310E+00 
    1.8278859135297667E+00 
    1.8068676900911900E+00 
    1.7783855426039916E+00 
    1.7419335318111342E+00 
    1.6967825744139786E+00 
    1.6417950761879530E+00 
    1.5751772388377900E+00 
    1.4942528281080036E+00 
    1.3949306043760905E+00 
    1.2701668859021076E+00 
    1.1068758639755059E+00 
    8.8008470207240441E-01 
    5.4142005069277843E-01 
    0.0000000000000000E+00 

SCALARS Saturarion double 1 
LOOKUP_TABLE default 

    1.0000000000000000E+00 
    9.4300865441988080E-01 
    8.9514400801416705E-01 
    8.4623987439931825E-01 
    7.9822265050002084E-01 
    7.5242500843424798E-01 
    7.0870782021079048E-01 
    6.6674895268934398E-01 
    6.2567181861757892E-01 
    5.8462786014620671E-01 
    5.4160457568585196E-01 
    4.9280382967491615E-01 
    4.2703467250114724E-01 
    3.1464430181544945E-01 
    1.0728437142138079E-01 
    2.6263459858525641E-03 
    9.4300865442018167E-01 
    9.0618744021865716E-01 
    8.6464946678294952E-01 
    8.2155574201216597E-01 
    7.7844072370513051E-01 
    7.3661949862127907E-01 
    6.9609621164332069E-01 
    6.5676542882105049E-01 
    6.1785798366271183E-01 
    5.7857311289376989E-01 
    5.3697518942579436E-01 
    4.8928520759021010E-01 
    4.2404653305919748E-01 
    3.1023625464851651E-01 
    1.0092326711421913E-01 
    2.1813898784843505E-03 
    8.9514400801480720E-01 
    8.6464946678325405E-01 
    8.2905018168110656E-01 
    7.9172014219918130E-01 
    7.5386175501438746E-01 
    7.1651782304709355E-01 
    6.7981213151967190E-01 
    6.4377345949407672E-01 
    6.0773898244116231E-01 
    5.7080045863822004E-01 
    5.3115836097880187E-01 
    4.8502376630165112E-01 
    4.2082950460673985E-01 
    3.0545331339090881E-01 
    9.4247543901359129E-02 
    1.7766676439462019E-03 
    8.4623987440027038E-01 
    8.2155574201280024E-01 
    7.9172014219949804E-01 
    7.5983072402685770E-01 
    7.2710526661604846E-01 
    6.9439008492749144E-01 
    6.6182609223248379E-01 
    6.2933177329412326E-01 
    5.9642380015734464E-01 
    5.6217820525849382E-01 
    5.2490264988442115E-01 
    4.8051524484974778E-01 
    4.1784082747112811E-01 
    3.0025680582165210E-01 
    8.7615959312493122E-02 
    1.4375148567062686E-03 
    7.9822265050135577E-01 
    7.7844072370595863E-01 
    7.5386175501498509E-01 
    7.2710526661626929E-01 
    6.9926883665187356E-01 
    6.7102308103662245E-01 
    6.4251942146201590E-01 
    6.1379604519737141E-01 
    5.8428163908733011E-01 
    5.5323910512654095E-01 
    5.1880619196481781E-01 
    4.7716166381163783E-01 
    4.1587282096144607E-01 
    3.0084939518420689E-01 
    9.0407601298593515E-02 
    1.6034962888502706E-03 
    7.5242500843564453E-01 
    7.3661949862225118E-01 
    7.1651782304784006E-01 
    6.9439008492799348E-01 
    6.7102308103683017E-01 
    6.4711148084765668E-01 
    6.2259432185845609E-01 
    5.9761237372920295E-01 
    5.7151826615769064E-01 
    5.4373496562375323E-01 
    5.1234010445054579E-01 
    4.7352576123465534E-01 
    4.1459689230924202E-01 
    3.0128088835680311E-01 
    9.0809160124021765E-02 
    1.5965374399027844E-03 
    7.0870782021238399E-01 
    6.9609621164460678E-01 
    6.7981213152064734E-01 
    6.6182609223317845E-01 
    6.4251942146241892E-01 
    6.2259432185862174E-01 
    6.0192728330690148E-01 
    5.8068471191316529E-01 
    5.5817788744612240E-01 
    5.3375999262095253E-01 
    5.0561174535246445E-01 
    4.6992039518181944E-01 
    4.1419397479991921E-01 
    3.0301071008803498E-01 
    9.3537101053056515E-02 
    1.7511090443476924E-03 
    6.6674895269116419E-01 
    6.5676542882256328E-01 
    6.4377345949526321E-01 
    6.2933177329498013E-01 
    6.1379604519793951E-01 
    5.9761237372954590E-01 
    5.8068471191332471E-01 
    5.6308077585020588E-01 
    5.4423173824133397E-01 
    5.2338126233267035E-01 
    4.9878814331954185E-01 
    4.6650999128282533E-01 
    4.1490005368973792E-01 
    3.0668443811844104E-01 
    1.0055244525283243E-01 
    2.2166864713441229E-03 
    6.2567181861900412E-01 
    6.1785798366396050E-01 
    6.0773898244214819E-01 
    5.9642380015807317E-01 
    5.8428163908785991E-01 
    5.7151826615804269E-01 
    5.5817788744631303E-01 
    5.4423173824141524E-01 
    5.2920798021118998E-01 
    5.1224562707683641E-01 
    4.9171041808815719E-01 
    4.6386012243742569E-01 
    4.1704613152124537E-01 
    3.1707951777654136E-01 
    1.2254386064543553E-01 
    4.3442406444789928E-03 
    5.8462786014735835E-01 
    5.7857311289474378E-01 
    5.7080045863899254E-01 
    5.6217820525908413E-01 
    5.5323910512699137E-01 
    5.4373496562402790E-01 
    5.3375999262112772E-01 
    5.2338126233277227E-01 
    5.1224562707687216E-01 
    4.9942433668884056E-01 
    4.8335419520525619E-01 
    4.6056474850486823E-01 
    4.2016445507124695E-01 
    3.3028859156501678E-01 
    1.4972184190631319E-01 
    8.3647062235509325E-03 
    5.4160457568668552E-01 
    5.3697518942650024E-01 
    5.3115836097936164E-01 
    5.2490264988485313E-01 
    5.1880619196514388E-01 
    5.1234010445076605E-01 
    5.0561174535259523E-01 
    4.9878814331961108E-01 
    4.9171041808814930E-01 
    4.8335419520522432E-01 
    4.7230065026018891E-01 
    4.5544424880042028E-01 
    4.2308107696139524E-01 
    3.4618095335221571E-01 
    1.8399837479532966E-01 
    1.7542444827227006E-02 
    4.9280382967545427E-01 
    4.8928520759064581E-01 
    4.8502376630199806E-01 
    4.8051524484999841E-01 
    4.7716166381180897E-01 
    4.7352576123474505E-01 
    4.6992039518184214E-01 
    4.6650999128278647E-01 
    4.6386012243732533E-01 
    4.6056474850473950E-01 
    4.5544424880032464E-01 
    4.4579421687356163E-01 
    4.2327127112637647E-01 
    3.6257310713107094E-01 
    2.2333808420164716E-01 
    3.7595097666661657E-02 
    4.2703467250132138E-01 
    4.2404653305932410E-01 
    4.2082950460680346E-01 
    4.1784082747113532E-01 
    4.1587282096139144E-01 
    4.1459689230911984E-01 
    4.1419397479973014E-01 
    4.1490005368946692E-01 
    4.1704613152090281E-01 
    4.2016445507088207E-01 
    4.2308107696107339E-01 
    4.2327127112617957E-01 
    4.1386975773578838E-01 
    3.7413355592743819E-01 
    2.6420646042697915E-01 
    7.6746019946400998E-02 
    3.1464430181511088E-01 
    3.1023625464817189E-01 
    3.0545331339055570E-01 
    3.0025680582127423E-01 
    3.0084939518378151E-01 
    3.0128088835630057E-01 
    3.0301071008742170E-01 
    3.0668443811767737E-01 
    3.1707951777567001E-01 
    3.3028859156412516E-01 
    3.4618095335140575E-01 
    3.6257310713044794E-01 
    3.7413355592710790E-01 
    3.6402619130067537E-01 
    2.9441681803095798E-01 
    1.2913955060080839E-01 
    1.0728437142146663E-01 
    1.0092326711426128E-01 
    9.4247543901365097E-02 
    8.7615959312426453E-02 
    9.0407601298408025E-02 
    9.0809160123669339E-02 
    9.3537101052446059E-02 
    1.0055244525187497E-01 
    1.2254386064404564E-01 
    1.4972184190462198E-01 
    1.8399837479362871E-01 
    2.2333808420018866E-01 
    2.6420646042592755E-01 
    2.9441681803036429E-01 
    2.8408617979037082E-01 
    1.6550564309201132E-01 
    2.6263459858656018E-03 
    2.1813898784925506E-03 
    1.7766676439506756E-03 
    1.4375148567058042E-03 
    1.6034962888429247E-03 
    1.5965374398858043E-03 
    1.7511090443138421E-03 
    2.2166864712785225E-03 
    4.3442406443066775E-03 
    8.3647062232005947E-03 
    1.7542444826573064E-02 
    3.7595097665598445E-02 
    7.6746019945084828E-02 
    1.2913955059968937E-01 
    1.6550564309155241E-01 
    4.2700186494424135E-02 
