# vtk DataFile Version 2.0
Pressure Field Data 
ASCII 
DATASET UNSTRUCTURED_GRID 

POINTS 289 double 

    0.0000000000000000E+00     0.0000000000000000E+00     0.0000000000000000E+00 
    1.0000000000000000E+00     0.0000000000000000E+00     0.0000000000000000E+00 
    1.0000000000000000E+00     1.0000000000000000E+00     0.0000000000000000E+00 
    0.0000000000000000E+00     1.0000000000000000E+00     0.0000000000000000E+00 
    6.2499999999872928E-02     0.0000000000000000E+00     0.0000000000000000E+00 
    1.2499999999977310E-01     0.0000000000000000E+00     0.0000000000000000E+00 
    1.8749999999959341E-01     0.0000000000000000E+00     0.0000000000000000E+00 
    2.4999999999941089E-01     0.0000000000000000E+00     0.0000000000000000E+00 
    3.1249999999922851E-01     0.0000000000000000E+00     0.0000000000000000E+00 
    3.7499999999904610E-01     0.0000000000000000E+00     0.0000000000000000E+00 
    4.3749999999886358E-01     0.0000000000000000E+00     0.0000000000000000E+00 
    4.9999999999869210E-01     0.0000000000000000E+00     0.0000000000000000E+00 
    5.6249999999884603E-01     0.0000000000000000E+00     0.0000000000000000E+00 
    6.2499999999901090E-01     0.0000000000000000E+00     0.0000000000000000E+00 
    6.8749999999917577E-01     0.0000000000000000E+00     0.0000000000000000E+00 
    7.4999999999934064E-01     0.0000000000000000E+00     0.0000000000000000E+00 
    8.1249999999950551E-01     0.0000000000000000E+00     0.0000000000000000E+00 
    8.7499999999967026E-01     0.0000000000000000E+00     0.0000000000000000E+00 
    9.3749999999983513E-01     0.0000000000000000E+00     0.0000000000000000E+00 
    1.0000000000000000E+00     6.2499999999872928E-02     0.0000000000000000E+00 
    1.0000000000000000E+00     1.2499999999977310E-01     0.0000000000000000E+00 
    1.0000000000000000E+00     1.8749999999959341E-01     0.0000000000000000E+00 
    1.0000000000000000E+00     2.4999999999941089E-01     0.0000000000000000E+00 
    1.0000000000000000E+00     3.1249999999922851E-01     0.0000000000000000E+00 
    1.0000000000000000E+00     3.7499999999904610E-01     0.0000000000000000E+00 
    1.0000000000000000E+00     4.3749999999886358E-01     0.0000000000000000E+00 
    1.0000000000000000E+00     4.9999999999869210E-01     0.0000000000000000E+00 
    1.0000000000000000E+00     5.6249999999884603E-01     0.0000000000000000E+00 
    1.0000000000000000E+00     6.2499999999901090E-01     0.0000000000000000E+00 
    1.0000000000000000E+00     6.8749999999917577E-01     0.0000000000000000E+00 
    1.0000000000000000E+00     7.4999999999934064E-01     0.0000000000000000E+00 
    1.0000000000000000E+00     8.1249999999950551E-01     0.0000000000000000E+00 
    1.0000000000000000E+00     8.7499999999967026E-01     0.0000000000000000E+00 
    1.0000000000000000E+00     9.3749999999983513E-01     0.0000000000000000E+00 
    9.3749999999973976E-01     1.0000000000000000E+00     0.0000000000000000E+00 
    8.7499999999950118E-01     1.0000000000000000E+00     0.0000000000000000E+00 
    8.1249999999991318E-01     1.0000000000000000E+00     0.0000000000000000E+00 
    7.5000000000034706E-01     1.0000000000000000E+00     0.0000000000000000E+00 
    6.8750000000078049E-01     1.0000000000000000E+00     0.0000000000000000E+00 
    6.2500000000121403E-01     1.0000000000000000E+00     0.0000000000000000E+00 
    5.6250000000164757E-01     1.0000000000000000E+00     0.0000000000000000E+00 
    5.0000000000205946E-01     1.0000000000000000E+00     0.0000000000000000E+00 
    4.3750000000182099E-01     1.0000000000000000E+00     0.0000000000000000E+00 
    3.7500000000156092E-01     1.0000000000000000E+00     0.0000000000000000E+00 
    3.1250000000130068E-01     1.0000000000000000E+00     0.0000000000000000E+00 
    2.5000000000104050E-01     1.0000000000000000E+00     0.0000000000000000E+00 
    1.8750000000078040E-01     1.0000000000000000E+00     0.0000000000000000E+00 
    1.2500000000052031E-01     1.0000000000000000E+00     0.0000000000000000E+00 
    6.2500000000260125E-02     1.0000000000000000E+00     0.0000000000000000E+00 
    0.0000000000000000E+00     9.3749999999973976E-01     0.0000000000000000E+00 
    0.0000000000000000E+00     8.7499999999950118E-01     0.0000000000000000E+00 
    0.0000000000000000E+00     8.1249999999991318E-01     0.0000000000000000E+00 
    0.0000000000000000E+00     7.5000000000034706E-01     0.0000000000000000E+00 
    0.0000000000000000E+00     6.8750000000078049E-01     0.0000000000000000E+00 
    0.0000000000000000E+00     6.2500000000121403E-01     0.0000000000000000E+00 
    0.0000000000000000E+00     5.6250000000164757E-01     0.0000000000000000E+00 
    0.0000000000000000E+00     5.0000000000205946E-01     0.0000000000000000E+00 
    0.0000000000000000E+00     4.3750000000182099E-01     0.0000000000000000E+00 
    0.0000000000000000E+00     3.7500000000156092E-01     0.0000000000000000E+00 
    0.0000000000000000E+00     3.1250000000130068E-01     0.0000000000000000E+00 
    0.0000000000000000E+00     2.5000000000104050E-01     0.0000000000000000E+00 
    0.0000000000000000E+00     1.8750000000078040E-01     0.0000000000000000E+00 
    0.0000000000000000E+00     1.2500000000052031E-01     0.0000000000000000E+00 
    0.0000000000000000E+00     6.2500000000260125E-02     0.0000000000000000E+00 
    6.2499999999897131E-02     6.2500000000235922E-02     0.0000000000000000E+00 
    6.2499999999921327E-02     1.2500000000047351E-01     0.0000000000000000E+00 
    6.2499999999945530E-02     1.8750000000070621E-01     0.0000000000000000E+00 
    6.2499999999969733E-02     2.5000000000093858E-01     0.0000000000000000E+00 
    6.2499999999993928E-02     3.1250000000117117E-01     0.0000000000000000E+00 
    6.2500000000018124E-02     3.7500000000140382E-01     0.0000000000000000E+00 
    6.2500000000042327E-02     4.3750000000163619E-01     0.0000000000000000E+00 
    6.2500000000066530E-02     5.0000000000184897E-01     0.0000000000000000E+00 
    6.2500000000090733E-02     5.6250000000147260E-01     0.0000000000000000E+00 
    6.2500000000114922E-02     6.2500000000107636E-01     0.0000000000000000E+00 
    6.2500000000139125E-02     6.8750000000068034E-01     0.0000000000000000E+00 
    6.2500000000163328E-02     7.5000000000028411E-01     0.0000000000000000E+00 
    6.2500000000187531E-02     8.1249999999988787E-01     0.0000000000000000E+00 
    6.2500000000211720E-02     8.7499999999951172E-01     0.0000000000000000E+00 
    6.2500000000235922E-02     9.3749999999974565E-01     0.0000000000000000E+00 
    1.2499999999981980E-01     6.2500000000211733E-02     0.0000000000000000E+00 
    1.2499999999986650E-01     1.2500000000042691E-01     0.0000000000000000E+00 
    1.2499999999991319E-01     1.8750000000063199E-01     0.0000000000000000E+00 
    1.2499999999995989E-01     2.5000000000083678E-01     0.0000000000000000E+00 
    1.2500000000000661E-01     3.1250000000104172E-01     0.0000000000000000E+00 
    1.2500000000005329E-01     3.7500000000124661E-01     0.0000000000000000E+00 
    1.2500000000010000E-01     4.3750000000145117E-01     0.0000000000000000E+00 
    1.2500000000014669E-01     5.0000000000163858E-01     0.0000000000000000E+00 
    1.2500000000019340E-01     5.6250000000129741E-01     0.0000000000000000E+00 
    1.2500000000024011E-01     6.2500000000093847E-01     0.0000000000000000E+00 
    1.2500000000028680E-01     6.8750000000057998E-01     0.0000000000000000E+00 
    1.2500000000033351E-01     7.5000000000022127E-01     0.0000000000000000E+00 
    1.2500000000038020E-01     8.1249999999986211E-01     0.0000000000000000E+00 
    1.2500000000042691E-01     8.7499999999952238E-01     0.0000000000000000E+00 
    1.2500000000047359E-01     9.3749999999975164E-01     0.0000000000000000E+00 
    1.8749999999966760E-01     6.2500000000187531E-02     0.0000000000000000E+00 
    1.8749999999974179E-01     1.2500000000038020E-01     0.0000000000000000E+00 
    1.8749999999981601E-01     1.8750000000055780E-01     0.0000000000000000E+00 
    1.8749999999989009E-01     2.5000000000073502E-01     0.0000000000000000E+00 
    1.8749999999996431E-01     3.1250000000091221E-01     0.0000000000000000E+00 
    1.8750000000003850E-01     3.7500000000108941E-01     0.0000000000000000E+00 
    1.8750000000011269E-01     4.3750000000126649E-01     0.0000000000000000E+00 
    1.8750000000018691E-01     5.0000000000142808E-01     0.0000000000000000E+00 
    1.8750000000026110E-01     5.6250000000112244E-01     0.0000000000000000E+00 
    1.8750000000033529E-01     6.2500000000080080E-01     0.0000000000000000E+00 
    1.8750000000040951E-01     6.8750000000047962E-01     0.0000000000000000E+00 
    1.8750000000048361E-01     7.5000000000015843E-01     0.0000000000000000E+00 
    1.8750000000055780E-01     8.1249999999983680E-01     0.0000000000000000E+00 
    1.8750000000063199E-01     8.7499999999953304E-01     0.0000000000000000E+00 
    1.8750000000070621E-01     9.3749999999975764E-01     0.0000000000000000E+00 
    2.4999999999951281E-01     6.2500000000163314E-02     0.0000000000000000E+00 
    2.4999999999961461E-01     1.2500000000033351E-01     0.0000000000000000E+00 
    2.4999999999971650E-01     1.8750000000048361E-01     0.0000000000000000E+00 
    2.4999999999981831E-01     2.5000000000063310E-01     0.0000000000000000E+00 
    2.4999999999992020E-01     3.1250000000078260E-01     0.0000000000000000E+00 
    2.5000000000002198E-01     3.7500000000093209E-01     0.0000000000000000E+00 
    2.5000000000012390E-01     4.3750000000108180E-01     0.0000000000000000E+00 
    2.5000000000022571E-01     5.0000000000121769E-01     0.0000000000000000E+00 
    2.5000000000032763E-01     5.6250000000094724E-01     0.0000000000000000E+00 
    2.5000000000042938E-01     6.2500000000066314E-01     0.0000000000000000E+00 
    2.5000000000053119E-01     6.8750000000037925E-01     0.0000000000000000E+00 
[...]
CELL_DATA 256 
SCALARS Pressure double 1 
LOOKUP_TABLE default 

    2.1680038060602271E+00 
    2.0608824243364054E+00 
    1.9900545626618031E+00 
    1.9362287722490297E+00 
    1.8914616409345359E+00 
    1.8522548160207091E+00 
    1.8169638584047549E+00 
    1.7848135885742338E+00 
    1.7554909075482354E+00 
    1.7289509518348369E+00 
    1.7053046293156240E+00 
    1.6847260027265356E+00 
    1.6673315658829708E+00 
    1.6530235240754267E+00 
    1.6416052237533161E+00 
    1.6352918355286568E+00 
    2.0608824243369792E+00 
    2.0157927096687200E+00 
    1.9670624171899147E+00 
    1.9222456509685362E+00 
    1.8816644148989143E+00 
    1.8446014586965913E+00 
    1.8104639347629023E+00 
    1.7789265277447786E+00 
    1.7498943112459053E+00 
    1.7234411760745680E+00 
    1.6997521212182274E+00 
    1.6790556429228638E+00 
    1.6615124476150545E+00 
    1.6470521672290863E+00 
    1.6354920595898956E+00 
    1.6291002393585052E+00 
    1.9900545626626240E+00 
    1.9670624171903117E+00 
    1.9343768378741231E+00 
    1.8991220986371489E+00 
    1.8640862821285562E+00 
    1.8302485626009184E+00 
    1.7979670077781664E+00 
    1.7674388271953070E+00 
    1.7388682980599630E+00 
    1.7125131189408953E+00 
    1.6886845123032677E+00 
    1.6677095808438207E+00 
    1.6498338374858161E+00 
    1.6350456639408897E+00 
    1.6231992212040351E+00 
    1.6166548017760145E+00 
    1.9362287722500282E+00 
    1.9222456509692090E+00 
    1.8991220986374684E+00 
    1.8712261827122671E+00 
    1.8412459294509649E+00 
    1.8106784368387747E+00 
    1.7803839332936378E+00 
    1.7509318785736838E+00 
    1.7227874656634963E+00 
    1.6963972402083358E+00 
    1.6722211903595590E+00 
    1.6507157083885591E+00 
    1.6322437926432161E+00 
    1.6168910489752562E+00 
    1.6045895142806119E+00 
    1.5978128770680653E+00 
    1.8914616409356801E+00 
    1.8816644148997863E+00 
    1.8640862821291191E+00 
    1.8412459294512287E+00 
    1.8151810694735426E+00 
    1.7873376468744406E+00 
    1.7587292780414949E+00 
    1.7301174018420469E+00 
    1.7021450101220983E+00 
    1.6754175857878566E+00 
    1.6505437662325266E+00 
    1.6281283353074130E+00 
    1.6086816984586607E+00 
    1.5924335009719659E+00 
    1.5794361892433859E+00 
    1.5722961268261726E+00 
    1.8522548160219827E+00 
    1.8446014586976192E+00 
    1.8302485626016720E+00 
    1.8106784368392528E+00 
    1.7873376468746667E+00 
    1.7614397603058620E+00 
    1.7339654978777370E+00 
    1.7057352551726477E+00 
    1.6774896593789053E+00 
    1.6499517038927418E+00 
    1.6238667850838004E+00 
    1.5999997408161217E+00 
    1.5790463171791951E+00 
    1.5614338954984048E+00 
    1.5473757551251837E+00 
    1.5396592865737802E+00 
    1.8169638584061432E+00 
    1.8104639347640592E+00 
    1.7979670077790728E+00 
    1.7803839332942932E+00 
    1.7587292780419155E+00 
    1.7339654978779402E+00 
    1.7069609560387093E+00 
    1.6785123689959716E+00 
    1.6493939048887130E+00 
    1.6204045764014103E+00 
    1.5924094364818111E+00 
    1.5663433614974354E+00 
    1.5431328472380279E+00 
    1.5234728774311184E+00 
    1.5078249803648525E+00 
    1.4992456815010793E+00 
    1.7848135885757088E+00 
    1.7789265277460329E+00 
    1.7674388271963317E+00 
    1.7509318785744836E+00 
    1.7301174018426346E+00 
    1.7057352551730358E+00 
    1.6785123689961661E+00 
    1.6491712720806806E+00 
    1.6184675534117134E+00 
    1.5872339834625515E+00 
    1.5564304589340046E+00 
    1.5271677650068198E+00 
    1.5006490629351004E+00 
    1.4779369775219082E+00 
    1.4599002698089254E+00 
    1.4500065989602597E+00 
    1.7554909075495193E+00 
    1.7498943112470144E+00 
    1.7388682980608996E+00 
    1.7227874656642708E+00 
    1.7021450101227227E+00 
    1.6774896593793884E+00 
    1.6493939048890571E+00 
    1.6184675534119068E+00 
    1.5853976741709213E+00 
    1.5509999580950795E+00 
    1.5162872249024228E+00 
    1.4825338120022125E+00 
    1.4512586318123182E+00 
    1.4240189428500374E+00 
    1.4022983814787553E+00 
    1.3902294327911484E+00 
    1.7289509518357642E+00 
    1.7234411760753829E+00 
    1.7125131189416105E+00 
    1.6963972402089695E+00 
    1.6754175857884239E+00 
    1.6499517038932547E+00 
    1.6204045764018724E+00 
    1.5872339834629525E+00 
    1.5509999580953380E+00 
    1.5124288192148494E+00 
    1.4725104045540269E+00 
    1.4326268447096395E+00 
    1.3946220372425053E+00 
    1.3606758323116821E+00 
    1.3331460032941298E+00 
    1.3173000451395487E+00 
    1.7053046293162362E+00 
    1.6997521212187792E+00 
    1.6886845123037824E+00 
    1.6722211903600646E+00 
    1.6505437662330462E+00 
    1.6238667850843547E+00 
    1.5924094364824122E+00 
    1.5564304589346531E+00 
    1.5162872249030024E+00 
    1.4725104045543640E+00 
    1.4259320701540519E+00 
    1.3779030391750327E+00 
    1.3305076464632377E+00 
    1.2866256804391207E+00 
    1.2498607487783311E+00 
    1.2274555269208085E+00 
    1.6847260027268809E+00 
    1.6790556429231935E+00 
    1.6677095808441675E+00 
    1.6507157083889610E+00 
    1.6281283353079066E+00 
    1.5999997408167403E+00 
    1.5663433614982083E+00 
    1.5271677650077666E+00 
    1.4825338120031868E+00 
    1.4326268447104031E+00 
    1.3779030391754781E+00 
    1.3193975813129659E+00 
    1.2591375924508015E+00 
    1.2005782742250071E+00 
    1.1489791197727692E+00 
    1.1150211007043631E+00 
    1.6673315658831023E+00 
    1.6615124476152066E+00 
    1.6498338374860311E+00 
    1.6322437926435465E+00 
    1.6086816984591563E+00 
    1.5790463171799070E+00 
    1.5431328472390078E+00 
    1.5006490629363984E+00 
    1.4512586318137641E+00 
    1.3946220372437892E+00 
    1.3305076464642425E+00 
    1.2591375924513881E+00 
    1.1817786072495113E+00 
    1.1017273477288563E+00 
    1.0258555704446009E+00 
    9.7059917762172221E-01 
    1.6530235240753999E+00 
    1.6470521672291099E+00 
    1.6350456639410154E+00 
    1.6168910489755515E+00 
    1.5924335009724957E+00 
    1.5614338954992397E+00 
    1.5234728774323383E+00 
    1.4779369775236004E+00 
    1.4240189428520145E+00 
    1.3606758323135597E+00 
    1.2866256804407794E+00 
    1.2005782742263065E+00 
    1.1017273477296103E+00 
    9.9102843832286291E-01 
    8.7454213068170050E-01 
    7.7617833818554238E-01 
    1.6416052237532646E+00 
    1.6354920595899074E+00 
    1.6231992212041744E+00 
    1.6045895142809596E+00 
    1.5794361892440234E+00 
    1.5473757551262006E+00 
    1.5078249803663570E+00 
    1.4599002698110426E+00 
    1.4022983814812777E+00 
    1.3331460032965954E+00 
    1.2498607487806075E+00 
    1.1489791197746937E+00 
    1.0258555704459440E+00 
    8.7454213068216202E-01 
    6.9012919761018154E-01 
    4.9087649524930543E-01 
    1.6352918355286239E+00 
    1.6291002393585439E+00 
    1.6166548017761988E+00 
    1.5978128770684910E+00 
    1.5722961268269362E+00 
    1.5396592865749907E+00 
    1.4992456815028701E+00 
    1.4500065989627906E+00 
    1.3902294327941882E+00 
    1.3173000451425678E+00 
    1.2274555269236580E+00 
    1.1150211007068427E+00 
    9.7059917762351555E-01 
    7.7617833818608795E-01 
    4.9087649524863169E-01 
    0.0000000000000000E+00 

SCALARS Saturarion double 1 
LOOKUP_TABLE default 

    1.0000000000000000E+00 
    9.5147474648888286E-01 
    9.0937509813545259E-01 
    8.6527981226388762E-01 
    8.2113634798965851E-01 
    7.7838893608294402E-01 
    7.3714844731360263E-01 
    6.9728748147598729E-01 
    6.5814928969488407E-01 
    6.1912300917764407E-01 
    5.7872188210303810E-01 
    5.3452701300392358E-01 
    4.8005347924928876E-01 
    3.9984410814761323E-01 
    2.4569670456366943E-01 
    3.5629456792496315E-02 
    9.5147474648913399E-01 
    9.1922163862270057E-01 
    8.8206805179198333E-01 
    8.4276371646264103E-01 
    8.0282937473349314E-01 
    7.6360750294414348E-01 
    7.2527405702444614E-01 
    6.8785975942410460E-01 
    6.5078406400440492E-01 
    6.1346916066986024E-01 
    5.7450134019147536E-01 
    5.3151730758571292E-01 
    4.7800948970366025E-01 
    3.9812134219215117E-01 
    2.4296931948574801E-01 
    3.4062596370354983E-02 
    9.0937509813603001E-01 
    8.8206805179227055E-01 
    8.4971530727791011E-01 
    8.1527172495265143E-01 
    7.7992744946100545E-01 
    7.4473133445378936E-01 
    7.0991488792967983E-01 
    6.7559610010994109E-01 
    6.4126798641835359E-01 
    6.0624483468732260E-01 
    5.6923743051820397E-01 
    5.2791481714233590E-01 
    4.7587657262688410E-01 
    3.9655745022115185E-01 
    2.4075510212871759E-01 
    3.2894077690758437E-02 
    8.6527981226473638E-01 
    8.4276371646322423E-01 
    8.1527172495293831E-01 
    7.8555676765473892E-01 
    7.5479497117513117E-01 
    7.2383157283098831E-01 
    6.9287773244197348E-01 
    6.6192905149836168E-01 
    6.3062010211088382E-01 
    5.9823656478374865E-01 
    5.6358601789233531E-01 
    5.2414801202541295E-01 
    4.7400300584966282E-01 
    3.9521548401497808E-01 
    2.3939219545116916E-01 
    3.2318933081645317E-02 
    8.2113634799077240E-01 
    8.0282937473430349E-01 
    7.7992744946156056E-01 
    7.5479497117537153E-01 
    7.2848785889955225E-01 
    7.0167866406885426E-01 
    6.7456453631376867E-01 
    6.4722801762112381E-01 
    6.1920962052036665E-01 
    5.8994329407368007E-01 
    5.5806863890620295E-01 
    5.2127959808871860E-01 
    4.7298206321158343E-01 
    3.9704442609805451E-01 
    2.4395234135557528E-01 
    3.6272607388698745E-02 
    7.7838893608427417E-01 
    7.6360750294511537E-01 
    7.4473133445452389E-01 
    7.2383157283145538E-01 
    7.0167866406905754E-01 
    6.7895288129485587E-01 
    6.5564937745573393E-01 
    6.3192788167268710E-01 
    6.0725283830425103E-01 
    5.8118615903508564E-01 
    5.5230963795617216E-01 
    5.1832609414593078E-01 
    4.7265017516066299E-01 
    3.9933064760105802E-01 
    2.5037609910792097E-01 
    4.0725059517401428E-02 
    7.3714844731512963E-01 
    7.2527405702566905E-01 
    7.0991488793061919E-01 
    6.9287773244262707E-01 
    6.7456453631416313E-01 
    6.5564937745590357E-01 
    6.3606292692105326E-01 
    6.1597592619104713E-01 
    5.9480959605571826E-01 
    5.7205627791477243E-01 
    5.4638488443261790E-01 
    5.1550092732389519E-01 
    4.7307655596140824E-01 
    4.0290542958774767E-01 
    2.5916104472276763E-01 
    4.7676313864269015E-02 
    6.9728748147771669E-01 
    6.8785975942552080E-01 
    6.7559610011105442E-01 
    6.6192905149918846E-01 
    6.4722801762166571E-01 
    6.3192788167299385E-01 
    6.1597592619118147E-01 
    5.9944730872726115E-01 
    5.8185951635270938E-01 
    5.6260163458626722E-01 
    5.4040096591824538E-01 
    5.1288581639658359E-01 
    4.7432013936421719E-01 
    4.0791987060974921E-01 
    2.7080050286023849E-01 
    5.8941351568552562E-02 
    6.5814928969621733E-01 
    6.5078406400556976E-01 
    6.4126798641928140E-01 
    6.3062010211158659E-01 
    6.1920962052085204E-01 
    6.0725283830455645E-01 
    5.9480959605588735E-01 
    5.8185951635277644E-01 
    5.6799420191719030E-01 
    5.5250212907182306E-01 
    5.3416423919835199E-01 
    5.1071941270433185E-01 
    4.7643160220115799E-01 
    4.1613334532487511E-01 
    2.8800591631832001E-01 
    8.1048961365340150E-02 
    6.1912300917871277E-01 
    6.1346916067077673E-01 
    6.0624483468808688E-01 
    5.9823656478431320E-01 
    5.8994329407407697E-01 
    5.8118615903534410E-01 
    5.7205627791493885E-01 
    5.6260163458635892E-01 
    5.5250212907184104E-01 
    5.4099155161777945E-01 
    5.2686772496557643E-01 
    5.0798308687484850E-01 
    4.7897900053641179E-01 
    4.2561624485600230E-01 
    3.0879564376487117E-01 
    1.1163306611512980E-01 
    5.7872188210383202E-01 
    5.7450134019215049E-01 
    5.6923743051875553E-01 
    5.6358601789275098E-01 
    5.5806863890649572E-01 
    5.5230963795636634E-01 
    5.4638488443273214E-01 
    5.4040096591830056E-01 
    5.3416423919834277E-01 
    5.2686772496554768E-01 
    5.1739205397558752E-01 
    5.0373486293265979E-01 
    4.8104063014139359E-01 
    4.3618419673630160E-01 
    3.3328375400678606E-01 
    1.5069318787077537E-01 
    5.3452701300443028E-01 
    5.3151730758612981E-01 
    5.2791481714266297E-01 
    5.2414801202565220E-01 
    5.2127959808887003E-01 
    5.1832609414600062E-01 
    5.1550092732390496E-01 
    5.1288581639654396E-01 
    5.1071941270423071E-01 
    5.0798308687472971E-01 
    5.0373486293257219E-01 
    4.9614853254340274E-01 
    4.8089918749519922E-01 
    4.4640483758228006E-01 
    3.6025010090005094E-01 
    1.9481136409594987E-01 
    4.8005347924944169E-01 
    4.7800948970376272E-01 
    4.7587657262693350E-01 
    4.7400300584965671E-01 
    4.7298206321151981E-01 
    4.7265017516053048E-01 
    4.7307655596122417E-01 
    4.7432013936397843E-01 
    4.7643160220087344E-01 
    4.7897900053612424E-01 
    4.8104063014115483E-01 
    4.8089918749505789E-01 
    4.7484757800442412E-01 
    4.5319091168586179E-01 
    3.8774486985238910E-01 
    2.4332764885423100E-01 
    3.9984410814724841E-01 
    3.9812134219178846E-01 
    3.9655745022078431E-01 
    3.9521548401459189E-01 
    3.9704442609763962E-01 
    3.9933064760060621E-01 
    4.0290542958723641E-01 
    4.0791987060916585E-01 
    4.1613334532426804E-01 
    4.2561624485542260E-01 
    4.3618419673580805E-01 
    4.4640483758192750E-01 
    4.5319091168569464E-01 
    4.4836771646311041E-01 
    4.0874546770406328E-01 
    2.9240806031238747E-01 
    2.4569670456356513E-01 
    2.4296931948562611E-01 
    2.4075510212857903E-01 
    2.3939219545098336E-01 
    2.4395234135530025E-01 
    2.5037609910751685E-01 
    2.5916104472219109E-01 
    2.7080050285944995E-01 
    2.8800591631746247E-01 
    3.0879564376401258E-01 
    3.3328375400600613E-01 
    3.6025010089942422E-01 
    3.8774486985198958E-01 
    4.0874546770389408E-01 
    4.0531804932651450E-01 
    3.3335858366812199E-01 
    3.5629456792508118E-02 
    3.4062596370354699E-02 
    3.2894077690747238E-02 
    3.2318933081600866E-02 
    3.6272607388582907E-02 
    4.0725059517165353E-02 
    4.7676313863835529E-02 
    5.8941351567796459E-02 
    8.1048961364258959E-02 
    1.1163306611387895E-01 
    1.5069318786965397E-01 
    1.9481136409511932E-01 
    2.4332764885376934E-01 
    2.9240806031229338E-01 
    3.3335858366805454E-01 
    3.3217989072716742E-01 
