# vtk DataFile Version 2.0
Pressure Field Data 
ASCII 
DATASET UNSTRUCTURED_GRID 

POINTS 289 double 

    0.0000000000000000E+00     0.0000000000000000E+00     0.0000000000000000E+00 
    1.0000000000000000E+00     0.0000000000000000E+00     0.0000000000000000E+00 
    1.0000000000000000E+00     1.0000000000000000E+00     0.0000000000000000E+00 
    0.0000000000000000E+00     1.0000000000000000E+00     0.0000000000000000E+00 
    6.2499999999872928E-02     0.0000000000000000E+00     0.0000000000000000E+00 
    1.2499999999977310E-01     0.0000000000000000E+00     0.0000000000000000E+00 
    1.8749999999959341E-01     0.0000000000000000E+00     0.0000000000000000E+00 
    2.4999999999941089E-01     0.0000000000000000E+00     0.0000000000000000E+00 
    3.1249999999922851E-01     0.0000000000000000E+00     0.0000000000000000E+00 
    3.7499999999904610E-01     0.0000000000000000E+00     0.0000000000000000E+00 
    4.3749999999886358E-01     0.0000000000000000E+00     0.0000000000000000E+00 
    4.9999999999869210E-01     0.0000000000000000E+00     0.0000000000000000E+00 
    5.6249999999884603E-01     0.0000000000000000E+00     0.0000000000000000E+00 
    6.2499999999901090E-01     0.0000000000000000E+00     0.0000000000000000E+00 
    6.8749999999917577E-01     0.0000000000000000E+00     0.0000000000000000E+00 
    7.4999999999934064E-01     0.0000000000000000E+00     0.0000000000000000E+00 
    8.1249999999950551E-01     0.0000000000000000E+00     0.0000000000000000E+00 
    8.7499999999967026E-01     0.0000000000000000E+00     0.0000000000000000E+00 
    9.3749999999983513E-01     0.0000000000000000E+00     0.0000000000000000E+00 
    1.0000000000000000E+00     6.2499999999872928E-02     0.0000000000000000E+00 
    1.0000000000000000E+00     1.2499999999977310E-01     0.0000000000000000E+00 
    1.0000000000000000E+00     1.8749999999959341E-01     0.0000000000000000E+00 
    1.0000000000000000E+00     2.4999999999941089E-01     0.0000000000000000E+00 
    1.0000000000000000E+00     3.1249999999922851E-01     0.0000000000000000E+00 
    1.0000000000000000E+00     3.7499999999904610E-01     0.0000000000000000E+00 
    1.0000000000000000E+00     4.3749999999886358E-01     0.0000000000000000E+00 
    1.0000000000000000E+00     4.9999999999869210E-01     0.0000000000000000E+00 
    1.0000000000000000E+00     5.6249999999884603E-01     0.0000000000000000E+00 
    1.0000000000000000E+00     6.2499999999901090E-01     0.0000000000000000E+00 
    1.0000000000000000E+00     6.8749999999917577E-01     0.0000000000000000E+00 
    1.0000000000000000E+00     7.4999999999934064E-01     0.0000000000000000E+00 
    1.0000000000000000E+00     8.1249999999950551E-01     0.0000000000000000E+00 
    1.0000000000000000E+00     8.7499999999967026E-01     0.0000000000000000E+00 
    1.0000000000000000E+00     9.3749999999983513E-01     0.0000000000000000E+00 
    9.3749999999973976E-01     1.0000000000000000E+00     0.0000000000000000E+00 
    8.7499999999950118E-01     1.0000000000000000E+00     0.0000000000000000E+00 
    8.1249999999991318E-01     1.0000000000000000E+00     0.0000000000000000E+00 
    7.5000000000034706E-01     1.0000000000000000E+00     0.0000000000000000E+00 
    6.8750000000078049E-01     1.0000000000000000E+00     0.0000000000000000E+00 
    6.2500000000121403E-01     1.0000000000000000E+00     0.0000000000000000E+00 
    5.6250000000164757E-01     1.0000000000000000E+00     0.0000000000000000E+00 
    5.0000000000205946E-01     1.0000000000000000E+00     0.0000000000000000E+00 
    4.3750000000182099E-01     1.0000000000000000E+00     0.0000000000000000E+00 
    3.7500000000156092E-01     1.0000000000000000E+00     0.0000000000000000E+00 
    3.1250000000130068E-01     1.0000000000000000E+00     0.0000000000000000E+00 
    2.5000000000104050E-01     1.0000000000000000E+00     0.0000000000000000E+00 
    1.8750000000078040E-01     1.0000000000000000E+00     0.0000000000000000E+00 
    1.2500000000052031E-01     1.0000000000000000E+00     0.0000000000000000E+00 
    6.2500000000260125E-02     1.0000000000000000E+00     0.0000000000000000E+00 
    0.0000000000000000E+00     9.3749999999973976E-01     0.0000000000000000E+00 
    0.0000000000000000E+00     8.7499999999950118E-01     0.0000000000000000E+00 
    0.0000000000000000E+00     8.1249999999991318E-01     0.0000000000000000E+00 
    0.0000000000000000E+00     7.5000000000034706E-01     0.0000000000000000E+00 
    0.0000000000000000E+00     6.8750000000078049E-01     0.0000000000000000E+00 
    0.0000000000000000E+00     6.2500000000121403E-01     0.0000000000000000E+00 
    0.0000000000000000E+00     5.6250000000164757E-01     0.0000000000000000E+00 
    0.0000000000000000E+00     5.0000000000205946E-01     0.0000000000000000E+00 
    0.0000000000000000E+00     4.3750000000182099E-01     0.0000000000000000E+00 
    0.0000000000000000E+00     3.7500000000156092E-01     0.0000000000000000E+00 
    0.0000000000000000E+00     3.1250000000130068E-01     0.0000000000000000E+00 
    0.0000000000000000E+00     2.5000000000104050E-01     0.0000000000000000E+00 
    0.0000000000000000E+00     1.8750000000078040E-01     0.0000000000000000E+00 
    0.0000000000000000E+00     1.2500000000052031E-01     0.0000000000000000E+00 
    0.0000000000000000E+00     6.2500000000260125E-02     0.0000000000000000E+00 
    6.2499999999897131E-02     6.2500000000235922E-02     0.0000000000000000E+00 
    6.2499999999921327E-02     1.2500000000047351E-01     0.0000000000000000E+00 
    6.2499999999945530E-02     1.8750000000070621E-01     0.0000000000000000E+00 
    6.2499999999969733E-02     2.5000000000093858E-01     0.0000000000000000E+00 
    6.2499999999993928E-02     3.1250000000117117E-01     0.0000000000000000E+00 
    6.2500000000018124E-02     3.7500000000140382E-01     0.0000000000000000E+00 
    6.2500000000042327E-02     4.3750000000163619E-01     0.0000000000000000E+00 
    6.2500000000066530E-02     5.0000000000184897E-01     0.0000000000000000E+00 
    6.2500000000090733E-02     5.6250000000147260E-01     0.0000000000000000E+00 
    6.2500000000114922E-02     6.2500000000107636E-01     0.0000000000000000E+00 
    6.2500000000139125E-02     6.8750000000068034E-01     0.0000000000000000E+00 
    6.2500000000163328E-02     7.5000000000028411E-01     0.0000000000000000E+00 
    6.2500000000187531E-02     8.1249999999988787E-01     0.0000000000000000E+00 
    6.2500000000211720E-02     8.7499999999951172E-01     0.0000000000000000E+00 
    6.2500000000235922E-02     9.3749999999974565E-01     0.0000000000000000E+00 
    1.2499999999981980E-01     6.2500000000211733E-02     0.0000000000000000E+00 
    1.2499999999986650E-01     1.2500000000042691E-01     0.0000000000000000E+00 
    1.2499999999991319E-01     1.8750000000063199E-01     0.0000000000000000E+00 
    1.2499999999995989E-01     2.5000000000083678E-01     0.0000000000000000E+00 
    1.2500000000000661E-01     3.1250000000104172E-01     0.0000000000000000E+00 
    1.2500000000005329E-01     3.7500000000124661E-01     0.0000000000000000E+00 
    1.2500000000010000E-01     4.3750000000145117E-01     0.0000000000000000E+00 
    1.2500000000014669E-01     5.0000000000163858E-01     0.0000000000000000E+00 
    1.2500000000019340E-01     5.6250000000129741E-01     0.0000000000000000E+00 
    1.2500000000024011E-01     6.2500000000093847E-01     0.0000000000000000E+00 
    1.2500000000028680E-01     6.8750000000057998E-01     0.0000000000000000E+00 
    1.2500000000033351E-01     7.5000000000022127E-01     0.0000000000000000E+00 
    1.2500000000038020E-01     8.1249999999986211E-01     0.0000000000000000E+00 
    1.2500000000042691E-01     8.7499999999952238E-01     0.0000000000000000E+00 
    1.2500000000047359E-01     9.3749999999975164E-01     0.0000000000000000E+00 
    1.8749999999966760E-01     6.2500000000187531E-02     0.0000000000000000E+00 
    1.8749999999974179E-01     1.2500000000038020E-01     0.0000000000000000E+00 
    1.8749999999981601E-01     1.8750000000055780E-01     0.0000000000000000E+00 
    1.8749999999989009E-01     2.5000000000073502E-01     0.0000000000000000E+00 
    1.8749999999996431E-01     3.1250000000091221E-01     0.0000000000000000E+00 
    1.8750000000003850E-01     3.7500000000108941E-01     0.0000000000000000E+00 
    1.8750000000011269E-01     4.3750000000126649E-01     0.0000000000000000E+00 
    1.8750000000018691E-01     5.0000000000142808E-01     0.0000000000000000E+00 
    1.8750000000026110E-01     5.6250000000112244E-01     0.0000000000000000E+00 
    1.8750000000033529E-01     6.2500000000080080E-01     0.0000000000000000E+00 
    1.8750000000040951E-01     6.8750000000047962E-01     0.0000000000000000E+00 
    1.8750000000048361E-01     7.5000000000015843E-01     0.0000000000000000E+00 
    1.8750000000055780E-01     8.1249999999983680E-01     0.0000000000000000E+00 
    1.8750000000063199E-01     8.7499999999953304E-01     0.0000000000000000E+00 
    1.8750000000070621E-01     9.3749999999975764E-01     0.0000000000000000E+00 
    2.4999999999951281E-01     6.2500000000163314E-02     0.0000000000000000E+00 
    2.4999999999961461E-01     1.2500000000033351E-01     0.0000000000000000E+00 
    2.4999999999971650E-01     1.8750000000048361E-01     0.0000000000000000E+00 
    2.4999999999981831E-01     2.5000000000063310E-01     0.0000000000000000E+00 
    2.4999999999992020E-01     3.1250000000078260E-01     0.0000000000000000E+00 
    2.5000000000002198E-01     3.7500000000093209E-01     0.0000000000000000E+00 
    2.5000000000012390E-01     4.3750000000108180E-01     0.0000000000000000E+00 
    2.5000000000022571E-01     5.0000000000121769E-01     0.0000000000000000E+00 
    2.5000000000032763E-01     5.6250000000094724E-01     0.0000000000000000E+00 
    2.5000000000042938E-01     6.2500000000066314E-01     0.0000000000000000E+00 
    2.5000000000053119E-01     6.8750000000037925E-01     0.0000000000000000E+00 
[...]
CELL_DATA 256 
SCALARS Pressure double 1 
LOOKUP_TABLE default 

    1.9617218897421671E+00 
    1.8555516581342726E+00 
    1.7861197443931127E+00 
    1.7338786905043506E+00 
    1.6908243843214412E+00 
    1.6534158616218237E+00 
    1.6199711084978798E+00 
    1.5896806057526482E+00 
    1.5621980575861745E+00 
    1.5374472444368106E+00 
    1.5155141243421737E+00 
    1.4965682554686142E+00 
    1.4807793863499068E+00 
    1.4682172371462090E+00 
    1.4587457917951452E+00 
    1.4532634684032841E+00 
    1.8555516581348381E+00 
    1.8112038730113782E+00 
    1.7636995656686667E+00 
    1.7203716755780614E+00 
    1.6814484676101884E+00 
    1.6461534213691988E+00 
    1.6138480075486827E+00 
    1.5841678823977594E+00 
    1.5569815794090067E+00 
    1.5323290183471701E+00 
    1.5103678496510313E+00 
    1.4913196421233821E+00 
    1.4753970236511567E+00 
    1.4627020703545346E+00 
    1.4531179682552162E+00 
    1.4475689011204418E+00 
    1.7861197443939116E+00 
    1.7636995656690524E+00 
    1.7320534761454924E+00 
    1.6981551165808331E+00 
    1.6646912827555060E+00 
    1.6325712486545012E+00 
    1.6020992285899460E+00 
    1.5734270555436141E+00 
    1.5467171759354648E+00 
    1.5221885813607814E+00 
    1.5001203543600152E+00 
    1.4808278508994923E+00 
    1.4646050543030151E+00 
    1.4516191514065218E+00 
    1.4417982367325584E+00 
    1.4361138831006803E+00 
    1.7338786905053154E+00 
    1.7203716755787091E+00 
    1.6981551165811384E+00 
    1.6715000538708671E+00 
    1.6430090386088478E+00 
    1.6141107429984143E+00 
    1.5856087203477471E+00 
    1.5580226667081163E+00 
    1.5317709409964677E+00 
    1.5072555752827987E+00 
    1.4848975067803343E+00 
    1.4651336363814664E+00 
    1.4483695091270368E+00 
    1.4348728127621424E+00 
    1.4246560497347287E+00 
    1.4187545037338725E+00 
    1.6908243843225381E+00 
    1.6814484676110222E+00 
    1.6646912827560412E+00 
    1.6430090386090972E+00 
    1.6183730355087573E+00 
    1.5921685842043900E+00 
    1.5653546174888580E+00 
    1.5386413120923963E+00 
    1.5126210370857651E+00 
    1.4878485983487941E+00 
    1.4648848512293564E+00 
    1.4443038960776584E+00 
    1.4266491091461149E+00 
    1.4123292641665570E+00 
    1.4014849725099670E+00 
    1.3952321906006380E+00 
    1.6534158616230348E+00 
    1.6461534213701756E+00 
    1.6325712486552137E+00 
    1.6141107429988657E+00 
    1.5921685842046023E+00 
    1.5679077105819030E+00 
    1.5422591323351196E+00 
    1.5159930421159038E+00 
    1.4897970734315371E+00 
    1.4643375249997250E+00 
    1.4403016170397542E+00 
    1.4184085410531369E+00 
    1.3993700198157193E+00 
    1.3837816641132528E+00 
    1.3719570958712684E+00 
    1.3651299746637116E+00 
    1.6199711084991910E+00 
    1.6138480075497750E+00 
    1.6020992285907996E+00 
    1.5856087203483640E+00 
    1.5653546174892530E+00 
    1.5422591323353103E+00 
    1.5171478838924493E+00 
    1.4907709706343841E+00 
    1.4638491994681428E+00 
    1.4371197738770025E+00 
    1.4113780014205239E+00 
    1.3874936674625704E+00 
    1.3663813684563995E+00 
    1.3488796051287357E+00 
    1.3355498742707030E+00 
    1.3278189848417201E+00 
    1.5896806057540329E+00 
    1.5841678823989360E+00 
    1.5734270555445735E+00 
    1.5580226667088648E+00 
    1.5386413120929452E+00 
    1.5159930421162657E+00 
    1.4907709706345660E+00 
    1.4636575335329096E+00 
    1.4353577738331904E+00 
    1.4066400129846770E+00 
    1.3783834177409602E+00 
    1.3516101240168885E+00 
    1.3274721292896199E+00 
    1.3071279340942421E+00 
    1.2915065256458205E+00 
    1.2823549848942422E+00 
    1.5621980575873737E+00 
    1.5569815794100412E+00 
    1.5467171759363383E+00 
    1.5317709409971887E+00 
    1.5126210370863451E+00 
    1.4897970734319850E+00 
    1.4638491994684604E+00 
    1.4353577738333680E+00 
    1.4049671393024046E+00 
    1.3734310356972959E+00 
    1.3416747161403588E+00 
    1.3108598586742795E+00 
    1.2824062543087966E+00 
    1.2578951586145011E+00 
    1.2387929301979026E+00 
    1.2273781908426931E+00 
    1.5374472444376723E+00 
    1.5323290183479266E+00 
    1.5221885813614453E+00 
    1.5072555752833856E+00 
    1.4878485983493179E+00 
    1.4643375250001978E+00 
    1.4371197738774273E+00 
    1.4066400129850440E+00 
    1.3734310356975312E+00 
    1.3381691548469081E+00 
    1.3017599861426239E+00 
    1.2654564762308191E+00 
    1.2309538507249567E+00 
    1.2003704431376871E+00 
    1.1759598387378334E+00 
    1.1609119654685951E+00 
    1.5155141243427384E+00 
    1.5103678496515405E+00 
    1.5001203543604904E+00 
    1.4848975067808001E+00 
    1.4648848512298349E+00 
    1.4403016170402638E+00 
    1.4113780014210757E+00 
    1.3783834177415533E+00 
    1.3416747161408862E+00 
    1.3017599861429292E+00 
    1.2594100771432371E+00 
    1.2158501605716450E+00 
    1.1729800072341059E+00 
    1.1335327481152406E+00 
    1.1009223874882705E+00 
    1.0799588073451740E+00 
    1.4965682554689286E+00 
    1.4913196421236827E+00 
    1.4808278508998098E+00 
    1.4651336363818366E+00 
    1.4443038960781129E+00 
    1.4184085410537051E+00 
    1.3874936674632790E+00 
    1.3516101240177534E+00 
    1.3108598586751661E+00 
    1.2654564762315108E+00 
    1.2158501605720455E+00 
    1.1629933196376459E+00 
    1.1087332370268790E+00 
    1.0563170086429423E+00 
    1.0107347937057833E+00 
    9.7971071422088463E-01 
    1.4807793863500227E+00 
    1.4753970236512923E+00 
    1.4646050543032110E+00 
    1.4483695091273407E+00 
    1.4266491091465714E+00 
    1.3993700198163734E+00 
    1.3663813684572981E+00 
    1.3274721292908056E+00 
    1.2824062543101113E+00 
    1.2309538507261173E+00 
    1.1729800072350085E+00 
    1.1087332370274037E+00 
    1.0393901725739494E+00 
    9.6806161375840194E-01 
    9.0131063414914980E-01 
    8.5190302433675069E-01 
    1.4682172371461832E+00 
    1.4627020703545552E+00 
    1.4516191514066388E+00 
    1.4348728127624171E+00 
    1.4123292641670486E+00 
    1.3837816641140239E+00 
    1.3488796051298575E+00 
    1.3071279340957895E+00 
    1.2578951586162983E+00 
    1.2003704431393822E+00 
    1.1335327481167279E+00 
    1.0563170086440998E+00 
    9.6806161375907029E-01 
    8.6978915027499049E-01 
    7.6748326544064960E-01 
    6.8067334996852247E-01 
    1.4587457917950986E+00 
    1.4531179682552287E+00 
    1.4417982367326900E+00 
    1.4246560497350540E+00 
    1.4014849725105594E+00 
    1.3719570958722100E+00 
    1.3355498742720902E+00 
    1.2915065256477614E+00 
    1.2387929302002012E+00 
    1.1759598387400600E+00 
    1.1009223874903074E+00 
    1.0107347937074935E+00 
    9.0131063415033907E-01 
    7.6748326544105860E-01 
    6.0554103399660419E-01 
    4.3047923058948023E-01 
    1.4532634684032542E+00 
    1.4475689011204784E+00 
    1.4361138831008537E+00 
    1.4187545037342697E+00 
    1.3952321906013472E+00 
    1.3651299746648327E+00 
    1.3278189848433741E+00 
    1.2823549848965703E+00 
    1.2273781908454744E+00 
    1.1609119654713256E+00 
    1.0799588073477204E+00 
    9.7971071422308065E-01 
    8.5190302433833220E-01 
    6.8067334996900808E-01 
    4.3047923058889753E-01 
    0.0000000000000000E+00 

SCALARS Saturarion double 1 
LOOKUP_TABLE default 

    1.0000000000000000E+00 
    9.5789035979000003E-01 
    9.2038973789936596E-01 
    8.8028815232501312E-01 
    8.3946380395366205E-01 
    7.9938851561395718E-01 
    7.6033630511647321E-01 
    7.2231309814916833E-01 
    6.8481346289588552E-01 
    6.4736359046445524E-01 
    6.0874764914846946E-01 
    5.6714917745455418E-01 
    5.1803635162018680E-01 
    4.5144423532477340E-01 
    3.3404217648861639E-01 
    1.0216221512169647E-01 
    9.5789035979020676E-01 
    9.2926532703479525E-01 
    8.9571116375793158E-01 
    8.5961668170839567E-01 
    8.2244015450626495E-01 
    7.8550662220281031E-01 
    7.4910425884071352E-01 
    7.1335453795953663E-01 
    6.7780462494005134E-01 
    6.4200043486552882E-01 
    6.0478798518840649E-01 
    5.6440456393986604E-01 
    5.1634215405627637E-01 
    4.5043408154164838E-01 
    3.3320797449149087E-01 
    1.0096838457313562E-01 
    9.2038973789991529E-01 
    8.9571116375820226E-01 
    8.6609618681799727E-01 
    8.3414349638974650E-01 
    8.0100089499501959E-01 
    7.6769731278474851E-01 
    7.3453340840326187E-01 
    7.0168421250250768E-01 
    6.6874599013200775E-01 
    6.3515462439929604E-01 
    5.9986255266952715E-01 
    5.6113689566754144E-01 
    5.1459159498534790E-01 
    4.4963371174925837E-01 
    3.3294240250956281E-01 
    1.0073009728101240E-01 
    8.8028815232583890E-01 
    8.5961668170894656E-01 
    8.3414349639000618E-01 
    8.0632749526296743E-01 
    7.7729019383920517E-01 
    7.4785972857139205E-01 
    7.1829159289331046E-01 
    6.8863094734231045E-01 
    6.5858570791368243E-01 
    6.2755375686792969E-01 
    5.9456768549738503E-01 
    5.5773240220487619E-01 
    5.1307829930577364E-01 
    4.4911397712055801E-01 
    3.3345790390981850E-01 
    1.0179588218386372E-01 
    8.3946380395464770E-01 
    8.2244015450705177E-01 
    8.0100089499551830E-01 
    7.7729019383945130E-01 
    7.5231548012899929E-01 
    7.2673974539721120E-01 
    7.0078764560380002E-01 
    6.7456732944660824E-01 
    6.4768801578415325E-01 
    6.1966812689658957E-01 
    5.8937339502052699E-01 
    5.5508107424742481E-01 
    5.1228741216049145E-01 
    4.5090354810008831E-01 
    3.3720893255162010E-01 
    1.0903066463747599E-01 
    7.9938851561521307E-01 
    7.8550662220378209E-01 
    7.6769731278545839E-01 
    7.4785972857183480E-01 
    7.2673974539741815E-01 
    7.0499878210094280E-01 
    6.8266856636974027E-01 
    6.5991620839801213E-01 
    6.3627291580660139E-01 
    6.1136110460752635E-01 
    5.8398216604449216E-01 
    5.5239707579031716E-01 
    5.1211228590292668E-01 
    4.5313997667184530E-01 
    3.4236770438757352E-01 
    1.1837509825191599E-01 
    7.6033630511795847E-01 
    7.4910425884188769E-01 
    7.3453340840414627E-01 
    7.1829159289393385E-01 
    7.0078764560417495E-01 
    6.8266856636991069E-01 
    6.6390008789556665E-01 
    6.4465130239309132E-01 
    6.2440802318160449E-01 
    6.0272173050566447E-01 
    5.7846143180991194E-01 
    5.4986326561507570E-01 
    5.1260939958914142E-01 
    4.5646014390842066E-01 
    3.4948062024036469E-01 
    1.3116469640081271E-01 
    7.2231309815082634E-01 
    7.1335453796091175E-01 
    7.0168421250359903E-01 
    6.8863094734309560E-01 
    6.7456732944712983E-01 
    6.5991620839831844E-01 
    6.4465130239321389E-01 
    6.2884929347877183E-01 
    6.1207687074106065E-01 
    5.9378700071177215E-01 
    5.7289050544233133E-01 
    5.4753309073357226E-01 
    5.1380350802503083E-01 
    4.6097100804087865E-01 
    3.5885748196350048E-01 
    1.4843800378747629E-01 
    6.8481346289718625E-01 
    6.7780462494116134E-01 
    6.6874599013289693E-01 
    6.5858570791434623E-01 
    6.4768801578462132E-01 
    6.3627291580689593E-01 
    6.2440802318175181E-01 
    6.1207687074111294E-01 
    5.9890675893693590E-01 
    5.8425541734769304E-01 
    5.6706611723647715E-01 
    5.4554354374934766E-01 
    5.1568322123844734E-01 
    4.6780719998006370E-01 
    3.7209646443605682E-01 
    1.7276711359168989E-01 
    6.4736359046547975E-01 
    6.4200043486639047E-01 
    6.3515462440001291E-01 
    6.2755375686847303E-01 
    6.1966812689698303E-01 
    6.1136110460780169E-01 
    6.0272173050581435E-01 
    5.9378700071184298E-01 
    5.8425541734771091E-01 
    5.7343405032749739E-01 
    5.6026569391509018E-01 
    5.4300912271469093E-01 
    5.1783923071705484E-01 
    4.7555830815673339E-01 
    3.8797641425466739E-01 
    2.0154242372019829E-01 
    6.0874764914923996E-01 
    6.0478798518905141E-01 
    5.9986255267005140E-01 
    5.9456768549778394E-01 
    5.8937339502080954E-01 
    5.8398216604466702E-01 
    5.7846143181000576E-01 
    5.7289050544237452E-01 
    5.6706611723646649E-01 
    5.6026569391505843E-01 
    5.5149101678496493E-01 
    5.3907811933398786E-01 
    5.1945586712864356E-01 
    4.8397111354335254E-01 
    4.0656834807350084E-01 
    2.3452766133902864E-01 
    5.6714917745504667E-01 
    5.6440456394028260E-01 
    5.6113689566786562E-01 
    5.5773240220510878E-01 
    5.5508107424757125E-01 
    5.5239707579037589E-01 
    5.4986326561507559E-01 
    5.4753309073352274E-01 
    5.4554354374924974E-01 
    5.4300912271458068E-01 
    5.3907811933391570E-01 
    5.3219889480621818E-01 
    5.1907888568005900E-01 
    4.9186550442755383E-01 
    4.2697465503118837E-01 
    2.7100812255575651E-01 
    5.1803635162035144E-01 
    5.1634215405639206E-01 
    5.1459159498541929E-01 
    5.1307829930578774E-01 
    5.1228741216044305E-01 
    5.1211228590281166E-01 
    5.1260939958897445E-01 
    5.1380350802481689E-01 
    5.1568322123819843E-01 
    5.1783923071680060E-01 
    5.1945586712843428E-01 
    5.1907888567993510E-01 
    5.1380725472675026E-01 
    4.9681891519727528E-01 
    4.4761633790626143E-01 
    3.1181437811831697E-01 
    4.5144423532446926E-01 
    4.5043408154134107E-01 
    4.4963371174894556E-01 
    4.4911397712022233E-01 
    4.5090354809972910E-01 
    4.5313997667144978E-01 
    4.5646014390797268E-01 
    4.6097100804037305E-01 
    4.6780719997954856E-01 
    4.7555830815624744E-01 
    4.8397111354294658E-01 
    4.9186550442726629E-01 
    4.9681891519713905E-01 
    4.9291544575199187E-01 
    4.6327547838930161E-01 
    3.5447429680042558E-01 
    3.3404217648846224E-01 
    3.3320797449132944E-01 
    3.3294240250939416E-01 
    3.3345790390962493E-01 
    3.3720893255137485E-01 
    3.4236770438724939E-01 
    3.4948062023992010E-01 
    3.5885748196290507E-01 
    3.7209646443541711E-01 
    3.8797641425402740E-01 
    4.0656834807292247E-01 
    4.2697465503072002E-01 
    4.4761633790596050E-01 
    4.6327547838917876E-01 
    4.6060697067431122E-01 
    3.9208470275260460E-01 
    1.0216221512167804E-01 
    1.0096838457310744E-01 
    1.0073009728097676E-01 
    1.0179588218378169E-01 
    1.0903066463730286E-01 
    1.1837509825156385E-01 
    1.3116469640021430E-01 
    1.4843800378656108E-01 
    1.7276711359074159E-01 
    2.0154242371931055E-01 
    2.3452766133828848E-01 
    2.7100812255521745E-01 
    3.1181437811803991E-01 
    3.5447429680043302E-01 
    3.9208470275260032E-01 
    3.9118267830298903E-01 
