# vtk DataFile Version 2.0
Pressure Field Data 
ASCII 
DATASET UNSTRUCTURED_GRID 

POINTS 2860 double 

    0.0000000000000000E+00     0.0000000000000000E+00     0.0000000000000000E+00 
    1.0000000000000000E+00     0.0000000000000000E+00     0.0000000000000000E+00 
    1.0000000000000000E+00     1.0000000000000000E+00     0.0000000000000000E+00 
    0.0000000000000000E+00     1.0000000000000000E+00     0.0000000000000000E+00 
    2.5000000000000000E-01     2.5000000000000000E-01     0.0000000000000000E+00 
    7.5000000000000000E-01     2.5000000000000000E-01     0.0000000000000000E+00 
    7.5000000000000000E-01     7.5000000000000000E-01     0.0000000000000000E+00 
    2.5000000000000000E-01     7.5000000000000000E-01     0.0000000000000000E+00 
    3.1249999999942091E-02     0.0000000000000000E+00     0.0000000000000000E+00 
    6.2499999999873469E-02     0.0000000000000000E+00     0.0000000000000000E+00 
    9.3749999999826514E-02     0.0000000000000000E+00     0.0000000000000000E+00 
    1.2499999999977961E-01     0.0000000000000000E+00     0.0000000000000000E+00 
    1.5624999999968961E-01     0.0000000000000000E+00     0.0000000000000000E+00 
    1.8749999999959971E-01     0.0000000000000000E+00     0.0000000000000000E+00 
    2.1874999999950970E-01     0.0000000000000000E+00     0.0000000000000000E+00 
    2.4999999999941969E-01     0.0000000000000000E+00     0.0000000000000000E+00 
    2.8124999999932920E-01     0.0000000000000000E+00     0.0000000000000000E+00 
    3.1249999999923850E-01     0.0000000000000000E+00     0.0000000000000000E+00 
    3.4374999999914790E-01     0.0000000000000000E+00     0.0000000000000000E+00 
    3.7499999999905720E-01     0.0000000000000000E+00     0.0000000000000000E+00 
    4.0624999999896660E-01     0.0000000000000000E+00     0.0000000000000000E+00 
    4.3749999999887590E-01     0.0000000000000000E+00     0.0000000000000000E+00 
    4.6874999999878530E-01     0.0000000000000000E+00     0.0000000000000000E+00 
    4.9999999999869471E-01     0.0000000000000000E+00     0.0000000000000000E+00 
    5.3124999999877620E-01     0.0000000000000000E+00     0.0000000000000000E+00 
    5.6249999999885780E-01     0.0000000000000000E+00     0.0000000000000000E+00 
    5.9374999999893940E-01     0.0000000000000000E+00     0.0000000000000000E+00 
    6.2499999999902101E-01     0.0000000000000000E+00     0.0000000000000000E+00 
    6.5624999999910261E-01     0.0000000000000000E+00     0.0000000000000000E+00 
    6.8749999999918421E-01     0.0000000000000000E+00     0.0000000000000000E+00 
    7.1874999999926570E-01     0.0000000000000000E+00     0.0000000000000000E+00 
    7.4999999999934730E-01     0.0000000000000000E+00     0.0000000000000000E+00 
    7.8124999999942890E-01     0.0000000000000000E+00     0.0000000000000000E+00 
    8.1249999999951039E-01     0.0000000000000000E+00     0.0000000000000000E+00 
    8.4374999999959199E-01     0.0000000000000000E+00     0.0000000000000000E+00 
    8.7499999999967359E-01     0.0000000000000000E+00     0.0000000000000000E+00 
    9.0624999999975520E-01     0.0000000000000000E+00     0.0000000000000000E+00 
    9.3749999999983680E-01     0.0000000000000000E+00     0.0000000000000000E+00 
    9.6874999999991840E-01     0.0000000000000000E+00     0.0000000000000000E+00 
    1.0000000000000000E+00     3.1249999999942091E-02     0.0000000000000000E+00 
    1.0000000000000000E+00     6.2499999999873469E-02     0.0000000000000000E+00 
    1.0000000000000000E+00     9.3749999999826514E-02     0.0000000000000000E+00 
    1.0000000000000000E+00     1.2499999999977961E-01     0.0000000000000000E+00 
    1.0000000000000000E+00     1.5624999999968961E-01     0.0000000000000000E+00 
    1.0000000000000000E+00     1.8749999999959971E-01     0.0000000000000000E+00 
    1.0000000000000000E+00     2.1874999999950970E-01     0.0000000000000000E+00 
    1.0000000000000000E+00     2.4999999999941969E-01     0.0000000000000000E+00 
    1.0000000000000000E+00     2.8124999999932920E-01     0.0000000000000000E+00 
    1.0000000000000000E+00     3.1249999999923850E-01     0.0000000000000000E+00 
    1.0000000000000000E+00     3.4374999999914790E-01     0.0000000000000000E+00 
    1.0000000000000000E+00     3.7499999999905720E-01     0.0000000000000000E+00 
    1.0000000000000000E+00     4.0624999999896660E-01     0.0000000000000000E+00 
    1.0000000000000000E+00     4.3749999999887590E-01     0.0000000000000000E+00 
    1.0000000000000000E+00     4.6874999999878530E-01     0.0000000000000000E+00 
    1.0000000000000000E+00     4.9999999999869471E-01     0.0000000000000000E+00 
    1.0000000000000000E+00     5.3124999999877620E-01     0.0000000000000000E+00 
    1.0000000000000000E+00     5.6249999999885780E-01     0.0000000000000000E+00 
    1.0000000000000000E+00     5.9374999999893940E-01     0.0000000000000000E+00 
    1.0000000000000000E+00     6.2499999999902101E-01     0.0000000000000000E+00 
    1.0000000000000000E+00     6.5624999999910261E-01     0.0000000000000000E+00 
    1.0000000000000000E+00     6.8749999999918421E-01     0.0000000000000000E+00 
    1.0000000000000000E+00     7.1874999999926570E-01     0.0000000000000000E+00 
    1.0000000000000000E+00     7.4999999999934730E-01     0.0000000000000000E+00 
    1.0000000000000000E+00     7.8124999999942890E-01     0.0000000000000000E+00 
    1.0000000000000000E+00     8.1249999999951039E-01     0.0000000000000000E+00 
    1.0000000000000000E+00     8.4374999999959199E-01     0.0000000000000000E+00 
    1.0000000000000000E+00     8.7499999999967359E-01     0.0000000000000000E+00 
    1.0000000000000000E+00     9.0624999999975520E-01     0.0000000000000000E+00 
    1.0000000000000000E+00     9.3749999999983680E-01     0.0000000000000000E+00 
    1.0000000000000000E+00     9.6874999999991840E-01     0.0000000000000000E+00 
    9.6875000000003686E-01     1.0000000000000000E+00     0.0000000000000000E+00 
    9.3750000000011691E-01     1.0000000000000000E+00     0.0000000000000000E+00 
    9.0625000000015765E-01     1.0000000000000000E+00     0.0000000000000000E+00 
    8.7500000000017863E-01     1.0000000000000000E+00     0.0000000000000000E+00 
    8.4375000000028044E-01     1.0000000000000000E+00     0.0000000000000000E+00 
    8.1250000000040856E-01     1.0000000000000000E+00     0.0000000000000000E+00 
    7.8125000000054956E-01     1.0000000000000000E+00     0.0000000000000000E+00 
    7.5000000000066480E-01     1.0000000000000000E+00     0.0000000000000000E+00 
    7.1875000000086831E-01     1.0000000000000000E+00     0.0000000000000000E+00 
    6.8750000000102829E-01     1.0000000000000000E+00     0.0000000000000000E+00 
    6.5625000000114431E-01     1.0000000000000000E+00     0.0000000000000000E+00 
    6.2500000000129829E-01     1.0000000000000000E+00     0.0000000000000000E+00 
    5.9375000000147926E-01     1.0000000000000000E+00     0.0000000000000000E+00 
    5.6250000000168354E-01     1.0000000000000000E+00     0.0000000000000000E+00 
    5.3125000000188671E-01     1.0000000000000000E+00     0.0000000000000000E+00 
    5.0000000000205835E-01     1.0000000000000000E+00     0.0000000000000000E+00 
    4.6875000000192979E-01     1.0000000000000000E+00     0.0000000000000000E+00 
    4.3750000000180111E-01     1.0000000000000000E+00     0.0000000000000000E+00 
    4.0625000000167238E-01     1.0000000000000000E+00     0.0000000000000000E+00 
    3.7500000000154382E-01     1.0000000000000000E+00     0.0000000000000000E+00 
    3.4375000000141509E-01     1.0000000000000000E+00     0.0000000000000000E+00 
    3.1250000000128642E-01     1.0000000000000000E+00     0.0000000000000000E+00 
    2.8125000000115769E-01     1.0000000000000000E+00     0.0000000000000000E+00 
    2.5000000000102918E-01     1.0000000000000000E+00     0.0000000000000000E+00 
    2.1875000000090050E-01     1.0000000000000000E+00     0.0000000000000000E+00 
    1.8750000000077180E-01     1.0000000000000000E+00     0.0000000000000000E+00 
    1.5625000000064329E-01     1.0000000000000000E+00     0.0000000000000000E+00 
    1.2500000000051459E-01     1.0000000000000000E+00     0.0000000000000000E+00 
    9.3750000000385914E-02     1.0000000000000000E+00     0.0000000000000000E+00 
    6.2500000000257239E-02     1.0000000000000000E+00     0.0000000000000000E+00 
    3.1250000000128557E-02     1.0000000000000000E+00     0.0000000000000000E+00 
    0.0000000000000000E+00     9.6875000000003686E-01     0.0000000000000000E+00 
    0.0000000000000000E+00     9.3750000000011691E-01     0.0000000000000000E+00 
    0.0000000000000000E+00     9.0625000000015765E-01     0.0000000000000000E+00 
    0.0000000000000000E+00     8.7500000000017863E-01     0.0000000000000000E+00 
    0.0000000000000000E+00     8.4375000000028044E-01     0.0000000000000000E+00 
    0.0000000000000000E+00     8.1250000000040856E-01     0.0000000000000000E+00 
    0.0000000000000000E+00     7.8125000000054956E-01     0.0000000000000000E+00 
    0.0000000000000000E+00     7.5000000000066480E-01     0.0000000000000000E+00 
    0.0000000000000000E+00     7.1875000000086831E-01     0.0000000000000000E+00 
    0.0000000000000000E+00     6.8750000000102829E-01     0.0000000000000000E+00 
    0.0000000000000000E+00     6.5625000000114431E-01     0.0000000000000000E+00 
    0.0000000000000000E+00     6.2500000000129829E-01     0.0000000000000000E+00 
    0.0000000000000000E+00     5.9375000000147926E-01     0.0000000000000000E+00 
    0.0000000000000000E+00     5.6250000000168354E-01     0.0000000000000000E+00 
    0.0000000000000000E+00     5.3125000000188671E-01     0.0000000000000000E+00 
    0.0000000000000000E+00     5.0000000000205835E-01     0.0000000000000000E+00 
    0.0000000000000000E+00     4.6875000000192979E-01     0.0000000000000000E+00 
    0.0000000000000000E+00     4.3750000000180111E-01     0.0000000000000000E+00 
    0.0000000000000000E+00     4.0625000000167238E-01     0.0000000000000000E+00 
[...]
CELL_DATA 2795 
SCALARS Pressure double 1 
LOOKUP_TABLE default 

    5.2358450740797942E+00 
    1.1655903061341292E+01 
    8.2739773509968906E+00 
    7.8942967383315183E+00 
    6.3558123447996238E+00 
    1.1550550777909551E+01 
    1.2156052370413427E+01 
    4.7000980488482726E+00 
    8.7272026213317879E+00 
    6.6672543991049356E+00 
    5.6802527587235110E+00 
    1.1343501971892730E+01 
    1.1581792142186766E+01 
    1.1525451555726058E+01 
    7.6079820190680607E+00 
    4.6212518198794328E+00 
    7.2871956375231361E+00 
    6.0489052236862095E+00 
    1.1049564605946999E+01 
    8.2685400732622956E+00 
    8.1615580580954763E+00 
    1.1471782473786611E+01 
    7.6784861360205490E+00 
    3.0708904755607758E-01 
    1.1338633557188112E+01 
    1.1553324890029474E+01 
    1.2183807019047011E+01 
    5.4693135575805822E+00 
    1.1278710058457779E+01 
    1.2175987889817932E+01 
    8.3459928216564450E+00 
    8.4837512133439983E+00 
    5.8795001452577003E+00 
    8.2353985064581590E+00 
    2.7082379837662325E+00 
    7.2892660216146714E+00 
    8.2277306219242465E+00 
    1.2210418146371840E+01 
    1.2137794309570415E+01 
    1.1354100130361665E+01 
    6.2894206859985964E+00 
    1.1316708309866009E+01 
    6.4504430398494683E-01 
    8.1025944156408745E+00 
    1.1991812800014317E+01 
    1.1832062694452675E+01 
    1.1334808434376997E+01 
    9.0270740961339939E+00 
    1.1391383201965011E+01 
    7.4464894298983966E+00 
    7.1113022865192868E+00 
    8.4521470606456806E+00 
    8.0007442557107389E+00 
    7.3267536672249163E+00 
    8.4195176401534706E+00 
    1.0879779432625368E+01 
    9.8451093362430964E+00 
    6.3879720191438993E+00 
    1.1475482742514902E+01 
    1.1413861227664970E+01 
    7.9478943403828746E+00 
    7.9570658777809271E+00 
    7.8149684429329032E+00 
    1.2093174348127800E+01 
    1.2316049175400625E+01 
    7.2960864981030147E+00 
    8.4504663568631120E+00 
    1.1260198264827554E+01 
    9.6582458534595705E+00 
    7.9732995763456529E+00 
    1.2322094741756228E+01 
    1.1429442955739406E+01 
    7.1971313690778338E+00 
    1.1914056968948785E+01 
    8.6536108027686094E+00 
    1.1215900754909697E+01 
    1.2224038897315630E+01 
    8.5217751933317327E+00 
    5.2497357594470371E+00 
    8.4660688669462303E+00 
    1.2144158711368421E+01 
    1.2344679391420913E+01 
    7.3125731009939763E+00 
    8.3898409058552641E+00 
    1.2382251291724979E+01 
    8.2328846718896287E+00 
    7.7472497121051145E+00 
    9.9892093359553513E+00 
    5.0627002245919757E+00 
    7.1315438831124185E+00 
    8.3899171282624749E+00 
    8.8411046553326731E+00 
    1.3694147486983898E+01 
    6.1853567033981838E+00 
    8.4571922917312961E+00 
    1.1317376349358859E+01 
    1.1541634724265641E+01 
    5.4814538934554049E+00 
    8.1106816826085026E+00 
    8.4189234508080162E+00 
    1.1558476847061927E+01 
    8.4192349418881154E+00 
    1.1502622916581235E+01 
    3.3438584355636358E+00 
    5.5199093037826419E+00 
    8.6398645551343929E+00 
    1.1662367530778573E+01 
    7.2608830368019053E+00 
    7.7734057345583221E+00 
    8.4049481793564649E+00 
    7.7252930317708559E+00 
    9.5869529499884294E+00 
    7.5556773130256456E+00 
    7.2030472254850340E+00 
    5.7116941453852181E+00 
    9.7539818146157025E+00 
    8.4854066121260843E+00 
    1.2020682309120788E+01 
    7.2520335976237016E+00 
    7.8856053044389887E+00 
    1.1417861142705492E+01 
    6.6305090541549321E+00 
    1.1792666214534766E+01 
    8.3113780900869454E+00 
    7.8239830859067103E+00 
    1.1543412705181119E+01 
    8.4770178619499532E+00 
    1.2229020833199392E+01 
    9.9988479961572185E+00 
    1.0758254302856274E+01 
    1.2198255395220579E+01 
    6.1968908006756198E+00 
    8.6535906045171611E+00 
    1.1542136818178450E+01 
    2.4996525233321880E+00 
    8.3979076142105029E+00 
    1.2169797418197806E+01 
    7.8529580426691297E+00 
    9.0557766353113927E+00 
    5.3958777068992259E+00 
    1.1318529504516215E+01 
    1.4147816805669610E+01 
    1.0373078438616133E+01 
    7.8462920964419220E+00 
    7.0520118330422825E+00 
    9.0301811582340239E+00 
    8.3284127329702979E+00 
    5.7417726923946768E+00 
    1.2193078057627977E+01 
    1.1612569424651278E+01 
    1.1318946551507322E+01 
    8.8579376483087735E+00 
    7.1772977561183033E+00 
    8.1615183176817592E+00 
    1.1936907244568280E+01 
    7.3659267130453188E+00 
    8.2275145240837109E+00 
    7.4935999522282861E+00 
    9.5465404824895437E+00 
    1.4136895272467253E+01 
    1.1311438867354868E+01 
    7.0768045180392276E+00 
    1.1702863520485174E+01 
    1.1628363115522678E+01 
    1.1695365680057128E+01 
    1.2554930421416000E+01 
    1.3037967572424067E+01 
    1.1826147232359704E+01 
    8.4434166325188169E+00 
    8.9502136623982409E+00 
    1.1684243430442562E+01 
    1.2030106233356959E+01 
    5.9837936603988613E+00 
    1.1334160094600275E+01 
    1.1904627256705055E+01 
    5.8344656380823743E+00 
    1.2473969007617887E+01 
    1.2467642414028749E+01 
    1.1106021655811423E+01 
    8.7055753597845200E+00 
    2.2407434995092088E+00 
    1.2168485249039119E+01 
    8.5891169853139697E+00 
    1.2277275825213419E+01 
    7.7998554116534304E+00 
    1.2023682689720935E+01 
    7.8886258991934566E-01 
    1.0772482046461318E+01 
    7.9919909169070733E+00 
    7.1461229206184731E+00 
    6.9733980750961431E+00 
    8.2819713526562779E+00 
    9.2866465159959635E+00 
    8.5449087833105324E+00 
    5.7463335881562294E+00 
    1.2025226344546640E+01 
    1.1560935652916939E+01 
    9.7594531931697901E+00 
    8.6319219923682340E+00 
    1.2717657634579085E+00 
    6.4676097438641076E+00 
    4.5249722770167402E+00 
    1.2187376597188294E+01 
    9.3963744186950766E+00 
    1.1602872223413732E+01 
    1.1617516021664876E+01 
    7.4460733576290234E+00 
    9.7956036756343376E+00 
    1.1314125383224827E+01 
    1.2453461492473723E+01 
    5.4037958131779593E+00 
    1.0213136596245349E+01 
    8.5800087393748772E+00 
    4.8315534727583680E+00 
    7.4228737284921547E+00 
    1.0211149371262222E+01 
    1.1584679983482253E+01 
    8.3369878930196570E+00 
    1.1677186058488463E+01 
    1.1481789279408881E+01 
    1.1439403504604371E+01 
    8.1695612194602134E+00 
    7.1156567754136972E+00 
    1.1326295209814941E+01 
    7.1943288739426690E+00 
    8.4248774129933945E+00 
    7.0617190293408392E+00 
    8.1774860283088930E+00 
    1.1625627757900540E+01 
    5.2086757363081615E+00 
    7.3548296749742761E+00 
    1.2113144584707408E+01 
    8.1853198860860221E+00 
    9.2976226864997962E+00 
    5.3473848315843426E+00 
    7.2397688491077874E+00 
    1.1464184475751795E+01 
    1.1723910998724326E+01 
    4.3741749901821931E+00 
    8.1847780896515570E+00 
    7.0912585662354148E+00 
    1.2826988742760831E+01 
    1.2352426525651147E+01 
    1.3060666345955283E+01 
    8.2051764617170608E+00 
    1.1602128494857199E+01 
    1.1278876121930821E+01 
    8.0902339164922470E+00 
    1.1318797450214671E+01 
    8.6315481227755537E+00 
    4.8512270396985926E+00 
    8.3740043231605945E+00 
    1.2102962420067485E+01 
    1.1316088602255101E+01 
    5.6540456605154663E+00 
    1.1339925059297224E+01 
    9.2850393222055718E+00 
    8.3823367264508377E+00 
    7.9272532482346092E+00 
    1.1207206312293589E+01 
    8.8657268781919125E+00 
    1.1329940228097980E+01 
    8.0587789173604527E+00 
    4.9624991353266132E+00 
    8.4836186689363409E+00 
    6.9796915746864849E+00 
    1.0375201259522340E+01 
    1.2271591285885233E+01 
    1.1326275894909511E+01 
    1.2163386580173890E+01 
    8.1404217389018818E+00 
    5.5124239681206699E+00 
    5.5870581234976422E+00 
    8.5668474944359190E+00 
    8.4011726982760475E+00 
    1.2241383335491822E+00 
    1.0920800759171954E+01 
    1.2577721062649546E+01 
    7.8052403259157304E+00 
    5.0963801678734963E+00 
    9.4993168593799897E+00 
    1.1338531782342674E+01 
    6.0021717252956597E+00 
    4.0984869161683362E+00 
    8.3782968122814658E+00 
    1.1425379358272806E+01 
    1.1945318151836778E+01 
    1.1844316037262727E+01 
    1.1726252002341939E+01 
    5.8514946705313235E+00 
    8.3711917818815582E+00 
    1.0943252334888694E+01 
    6.5471995568959391E+00 
    1.1570922216066906E+01 
    9.9781290163013132E+00 
    5.6630835215020152E+00 
    1.1425485847244101E+01 
    1.2183345399370161E+01 
    1.1437051312005298E+01 
    5.7964918608887688E+00 
    8.4470905127102025E+00 
    6.3367652127803282E+00 
    7.9578034583057224E+00 
    1.1331811413902445E+01 
    1.1322353746751293E+01 
    5.8286500279052849E+00 
    1.2057814746860267E+01 
    8.9066167841085750E+00 
    1.1362799427857158E+01 
    1.2041130985479603E+01 
    1.1346398876569150E+01 
    1.0572095799571997E+01 
    1.2872061832583885E+01 
    7.7858951614494858E+00 
    1.2137830905261653E+01 
    1.1385050942513477E+01 
    1.2199400462404899E+01 
    1.2052280924435337E+01 
    7.8654587502345237E+00 
    8.2678880118598972E+00 
    7.7957690394555792E+00 
    1.0174524406323574E+01 
    3.3522349732272101E+00 
    8.4955978405496921E+00 
    1.2986821644891460E+01 
    8.6365700416124973E+00 
    8.7991227431573531E+00 
    1.2175748834697874E+01 
    1.2382345901149987E+01 
    7.7751733231041165E+00 
    1.1343335903580478E+01 
    1.1320155266480652E+01 
    8.7883779130193016E+00 
    1.2014129436755853E+01 
    5.9527628877814500E+00 
    3.8239165194933649E+00 
    9.0326829302248282E+00 
    8.6483441536418173E+00 
    1.1323491702983034E+01 
    5.4699665962165076E+00 
    1.1775944619270334E+01 
    3.9000217307650127E+00 
    8.5937271126947703E+00 
    7.9506282951937690E+00 
    8.4263363097187245E+00 
    1.4185820641353306E+01 
    3.2580118473934414E+00 
    8.4159745862976312E+00 
    9.9251765680034953E+00 
    8.0496986560765542E+00 
    6.3285392104086222E+00 
    1.1879033248761464E+01 
    1.3778459033108206E+01 
    1.1999254582094476E+01 
    8.3621669569327448E+00 
    4.8234018332920456E+00 
    1.3641489036586947E+01 
    1.1553569040538665E+01 
    5.9413020625841311E+00 
    7.9619721687319620E+00 
    1.2540703811626331E+01 
    2.7629724952043269E+00 
    8.6925985215616670E+00 
    1.1981239348602040E+01 
    8.4395201577477135E+00 
    7.3248669459257636E+00 
    8.4544475529750809E+00 
    1.1123376195094117E+01 
    8.4216631278450738E+00 
    4.3213559395057564E+00 
    7.7404911627927730E-01 
    6.2454305839579778E+00 
    1.2728684110451383E+01 
    7.7939287665921402E+00 
    9.5512559933076915E+00 
    9.1635136364064778E+00 
    1.0422872100090213E+01 
    8.4523753601633018E+00 
    1.1478413947740686E+01 
    1.4199260356305603E+01 
    9.9136546410254596E+00 
    1.2114305806387378E+01 
    4.5685324863860083E-01 
    1.1323815495613987E+01 
    4.6562702864796517E+00 
    1.3140938077348846E+01 
    8.4291013758454199E+00 
    7.4478407384980683E+00 
    6.4542626929444875E+00 
    4.5001009006103532E+00 
    9.3810888974499456E+00 
    6.6230340727236934E+00 
    1.0288424218040500E+01 
    1.9027839383310297E+00 
    9.3124732125165348E+00 
    1.1268374786165195E+01 
    5.0717158901203794E+00 
    1.1719968993690829E+01 
    1.2974836223562962E+01 
    1.1602159109758617E+01 
    8.3079218227324638E+00 
    8.4215358273230887E+00 
    8.4220861498249295E+00 
    4.9015957534136794E+00 
    7.5780202814212494E+00 
    7.4562482757187887E+00 
    8.4115541087523376E+00 
    7.7445633244483689E+00 
    5.7937440740095569E-01 
    5.3076006240357145E+00 
    8.0581602491378383E+00 
    8.3889015306745200E+00 
    1.0568402598543233E+01 
    1.8100858788652356E+00 
    8.7534357769891677E+00 
    8.6533148370710720E+00 
    3.1308047104534729E+00 
    1.1496910506997615E+01 
    7.2174765596234307E+00 
    8.5355059252300993E+00 
    1.1553094154986390E+01 
    4.5493191987426531E+00 
    1.1585574837498436E+01 
    7.2953379349940626E+00 
    8.2588952952032690E-01 
    7.8462109035257175E+00 
    1.2071480102260193E+01 
    1.1324494382616676E+01 
    1.1343890470780680E+01 
    8.7683807746614004E+00 
    8.5964765050466330E+00 
    7.1916100175804427E+00 
    5.7442740688474156E+00 
    1.1647463728139442E+01 
    7.9622355798452800E+00 
    5.5559770457342514E+00 
    1.1336971919536504E+01 
    1.1906561202858446E+01 
    8.5861400690367766E+00 
    8.2288119169371097E+00 
    1.4087866719536972E+01 
    8.7891210887095994E+00 
    1.1659074635262558E+01 
    6.8542143923618415E+00 
    1.4227303746806950E+01 
    5.5534459236267111E+00 
    7.5599140290248474E+00 
    6.2115923971793876E+00 
    8.9881396334955017E+00 
    7.1199735841030325E+00 
    1.4211571663897381E+01 
    8.8305569913940349E+00 
    1.1069862242371020E+01 
    5.7101478955635265E+00 
    8.4475044812670035E+00 
    1.1524163100581573E+01 
    7.1417541893826151E+00 
    6.0096208080414932E+00 
    9.2242495082936440E+00 
    1.1718334131562795E+01 
    6.1236325293604565E+00 
    7.9659193411800171E+00 
    8.2521857272455961E+00 
    1.1303917227527633E+01 
    8.0815704362844443E+00 
    1.1693408919118278E+01 
    1.2224621657986296E+01 
    7.2133710978029253E+00 
    7.0777663065947580E+00 
    6.6479863143406739E+00 
    1.1420390769852624E+01 
    8.6479272767311297E+00 
    1.3813929319054248E+01 
    1.0777905631932816E+01 
    1.1491492298658867E+01 
    1.3525616617899127E+01 
    1.2978482488053587E+01 
    8.4892317163983790E+00 
    8.3976866385973974E+00 
    1.1130730205793734E+01 
    1.1354494176651308E+01 
    1.1795841264100815E+01 
    1.1572140493047202E+01 
    1.4104627115598344E+01 
    8.7887219736975304E+00 
    7.2949130353743072E+00 
    8.7509163914886940E+00 
    1.2149709762670653E+01 
    8.5682151937269353E+00 
    4.9745984363587654E+00 
    8.2934826677865896E+00 
    1.2512327350522886E+01 
    8.6844308599936859E+00 
    7.2976513167448598E+00 
    8.1948538154374422E+00 
    1.2608741013213503E+01 
    1.1359949890173576E+01 
    6.9364147693694118E+00 
    1.2731771789843426E+01 
    8.5131666259504293E+00 
    1.1782300808903743E+01 
    1.2621874463061104E+01 
    8.8580034873772551E+00 
    4.5421144598788112E+00 
    9.1981529308197434E+00 
    4.6957195823917308E+00 
    8.6089555830358631E+00 
    8.4422237459524290E+00 
    9.6748213742710707E+00 
    4.9554684167887810E+00 
    1.0271773587996305E+01 
    8.4592044091498444E+00 
    1.1563114482148061E+01 
    8.8192451215392982E+00 
    6.6931945186185615E+00 
    8.0835055404488152E+00 
    8.9071978549055899E+00 
    8.8792561249087250E+00 
    1.2267672933191461E+01 
    6.9874148603579549E+00 
    6.8728911080154083E+00 
    5.1970109804376534E+00 
    1.1815255473777196E+01 
    8.1202800359227769E+00 
    1.1193893273669040E+01 
    8.4127241429314843E+00 
    5.6570898909006395E+00 
    1.1388078233040893E+01 
    8.3883158122678054E+00 
    6.1451920822644892E+00 
    6.4951950056097605E+00 
    6.7143285250843574E+00 
    1.1590467769045519E+01 
    8.4134192476967762E+00 
    1.2123083112679433E+01 
    8.3473695774066883E+00 
    8.2875595389472263E+00 
    7.8907598780055688E+00 
    1.1455722070099908E+01 
    8.2112511542067956E+00 
    6.7475792219099935E+00 
    1.2965423029802189E+01 
    1.1522874148504419E+01 
    5.8155608077983079E+00 
    2.2897820346666902E+00 
    8.4030148497106545E+00 
    7.8557148468152187E+00 
    7.0751895562022815E+00 
    7.7219083734577945E+00 
    1.1489205125118042E+01 
    8.1412361594930687E+00 
    7.3520777456923927E+00 
    1.1372537317097041E+01 
    5.7639817699533156E+00 
    1.1098259030317353E+01 
    7.5973831289375511E+00 
    6.6639278742043384E+00 
    7.1377481465197450E+00 
    1.1854413515760051E+01 
    8.4291071171614202E+00 
    8.4363794929719962E+00 
    5.0359386168421665E+00 
    5.4195841674132721E+00 
    1.0549300406374361E+01 
    8.4452687761869445E+00 
    8.4425289499252401E+00 
    1.2716267734677441E+01 
    6.8713540112770142E+00 
    8.4558535277782632E+00 
    5.9647541282498056E+00 
    6.1550963493468327E+00 
    1.1451084326430477E+01 
    8.1135075240303891E+00 
    5.9424192257540236E+00 
    8.8584157749343593E+00 
    8.3297924781664339E+00 
    1.1453600873787503E+01 
    1.2800006735406958E+01 
    8.8781876509788482E-01 
    8.4076257930051437E+00 
    8.6471287228423250E+00 
    1.1505349329122668E+01 
    7.9091203330714022E+00 
    8.4048104206324084E+00 
    1.2310933259135131E+01 
    7.1632751788721878E+00 
    5.9911629787928025E+00 
    1.0182589179901774E+01 
    1.1335564808704850E+01 
    1.2200071671463215E+01 
    1.2431489668213723E+01 
    8.2613548971279407E+00 
    8.4002907493090255E+00 
    9.4361978753423532E+00 
    5.5306723012982673E+00 
    1.1438860214306663E+01 
    6.4324915107862157E+00 
    5.7554358272702011E+00 
    1.0516379656657783E+01 
    9.8857599512363699E+00 
    5.6459509026538672E+00 
    1.1365340113073589E+01 
    1.2186900662769879E+01 
    8.8023549528457004E+00 
    1.2890847292136351E+01 
    1.1391427922977147E+01 
    7.9974133465444437E+00 
    1.1958268428331536E+01 
    6.1546246110755041E+00 
    1.1349935334637907E+01 
    8.4069062998629907E+00 
    8.3673547117857314E+00 
    1.2867346763416332E+01 
    8.1477512210250467E+00 
    1.0267258449361728E+01 
    7.1231356210951606E+00 
    1.2288606619898752E+01 
    1.1273528724094447E+01 
    7.4178532222925657E+00 
    1.1317633754845469E+01 
    7.5919559181902239E+00 
    8.4138844255013900E+00 
    1.2152052481800826E+01 
    1.1568029273069763E+01 
    1.2189962468143980E+01 
    1.1508559591394997E+01 
    7.5880167559258860E+00 
    7.7915576613038313E+00 
    1.2195288221548882E+01 
    7.8964301745817895E+00 
    1.1217220249132113E+01 
    8.1424973378748842E+00 
    3.3806813338792088E+00 
    5.8117572148300409E+00 
    5.3892737398622197E+00 
    1.2154663655896140E+01 
    1.2804675601796701E+01 
    1.1332719572196506E+01 
    9.7763509986685939E+00 
    1.1566302380138925E+01 
    1.1370129893983815E+01 
    1.1857749653110400E+01 
    4.8666345659617951E+00 
    3.1495584599958120E+00 
    9.5923218252294706E+00 
    8.0560039370079934E+00 
    1.1490872523135936E+01 
    1.1488897542707486E+01 
    8.6607570878709907E+00 
    1.1519363887389588E+01 
    8.3951135794710332E+00 
    8.2774919250860730E+00 
    4.3971612271117975E+00 
    3.1367241293069075E+00 
    1.2605966989541828E+01 
    6.5338180795359460E+00 
    7.3660426785509738E+00 
    8.5765936775502052E+00 
    1.4087983063268585E+01 
    8.6555152824706294E+00 
    8.6298099501502197E+00 
    3.5582227278781380E+00 
    8.6558420450453486E+00 
    8.6671080129731397E+00 
    1.1747010773857733E+01 
    7.1464089631194314E+00 
    8.0330698712830060E+00 
    1.2755868986195276E+01 
    8.4154740013367544E+00 
    1.1345659775920083E+01 
    1.1551391663324887E+01 
    1.0416607602806691E+01 
    7.0991560039058603E+00 
    1.1508657719243388E+01 
    8.2085056282023423E+00 
    1.1505648348340124E+01 
    1.1292559464011170E+01 
    1.2171344186213066E+01 
    1.1505031286190302E+01 
    1.0810033741875555E+01 
    8.4052138149882918E+00 
    5.6001126138829829E+00 
    1.3968486363473176E+01 
    6.5590713725303820E+00 
    1.2107847265793428E+01 
    8.4026861973684994E+00 
    6.9198442413577483E+00 
    4.1659583810006335E+00 
    8.6953384760072812E+00 
    1.1497049272621974E+01 
    1.1494943859136621E+01 
    8.3956803607522357E+00 
    8.3969655317716718E+00 
    1.2943836877142992E+01 
    1.2381304036849548E+01 
    8.6717028413635546E+00 
    2.9313127707043600E+00 
    1.0790375689970332E+01 
    1.4210415869467033E+01 
    8.4084487448078384E+00 
    1.0087891542760676E+01 
    7.9039890733754010E+00 
    1.3836700700515726E+01 
    1.2451089134777318E+01 
    1.2223285058975817E+01 
    8.6901894113973608E+00 
    3.8985809250918653E+00 
    7.8674774850106157E+00 
    7.9287446698719339E+00 
    7.9781906037515364E+00 
    3.1905677788711824E+00 