# vtk DataFile Version 2.0
Pressure Field Data 
ASCII 
DATASET UNSTRUCTURED_GRID 

POINTS 2860 double 

    0.0000000000000000E+00     0.0000000000000000E+00     0.0000000000000000E+00 
    1.0000000000000000E+00     0.0000000000000000E+00     0.0000000000000000E+00 
    1.0000000000000000E+00     1.0000000000000000E+00     0.0000000000000000E+00 
    0.0000000000000000E+00     1.0000000000000000E+00     0.0000000000000000E+00 
    2.5000000000000000E-01     2.5000000000000000E-01     0.0000000000000000E+00 
    7.5000000000000000E-01     2.5000000000000000E-01     0.0000000000000000E+00 
    7.5000000000000000E-01     7.5000000000000000E-01     0.0000000000000000E+00 
    2.5000000000000000E-01     7.5000000000000000E-01     0.0000000000000000E+00 
    3.1249999999942091E-02     0.0000000000000000E+00     0.0000000000000000E+00 
    6.2499999999873469E-02     0.0000000000000000E+00     0.0000000000000000E+00 
    9.3749999999826514E-02     0.0000000000000000E+00     0.0000000000000000E+00 
    1.2499999999977961E-01     0.0000000000000000E+00     0.0000000000000000E+00 
    1.5624999999968961E-01     0.0000000000000000E+00     0.0000000000000000E+00 
    1.8749999999959971E-01     0.0000000000000000E+00     0.0000000000000000E+00 
    2.1874999999950970E-01     0.0000000000000000E+00     0.0000000000000000E+00 
    2.4999999999941969E-01     0.0000000000000000E+00     0.0000000000000000E+00 
    2.8124999999932920E-01     0.0000000000000000E+00     0.0000000000000000E+00 
    3.1249999999923850E-01     0.0000000000000000E+00     0.0000000000000000E+00 
    3.4374999999914790E-01     0.0000000000000000E+00     0.0000000000000000E+00 
    3.7499999999905720E-01     0.0000000000000000E+00     0.0000000000000000E+00 
    4.0624999999896660E-01     0.0000000000000000E+00     0.0000000000000000E+00 
    4.3749999999887590E-01     0.0000000000000000E+00     0.0000000000000000E+00 
    4.6874999999878530E-01     0.0000000000000000E+00     0.0000000000000000E+00 
    4.9999999999869471E-01     0.0000000000000000E+00     0.0000000000000000E+00 
    5.3124999999877620E-01     0.0000000000000000E+00     0.0000000000000000E+00 
    5.6249999999885780E-01     0.0000000000000000E+00     0.0000000000000000E+00 
    5.9374999999893940E-01     0.0000000000000000E+00     0.0000000000000000E+00 
    6.2499999999902101E-01     0.0000000000000000E+00     0.0000000000000000E+00 
    6.5624999999910261E-01     0.0000000000000000E+00     0.0000000000000000E+00 
    6.8749999999918421E-01     0.0000000000000000E+00     0.0000000000000000E+00 
    7.1874999999926570E-01     0.0000000000000000E+00     0.0000000000000000E+00 
    7.4999999999934730E-01     0.0000000000000000E+00     0.0000000000000000E+00 
    7.8124999999942890E-01     0.0000000000000000E+00     0.0000000000000000E+00 
    8.1249999999951039E-01     0.0000000000000000E+00     0.0000000000000000E+00 
    8.4374999999959199E-01     0.0000000000000000E+00     0.0000000000000000E+00 
    8.7499999999967359E-01     0.0000000000000000E+00     0.0000000000000000E+00 
    9.0624999999975520E-01     0.0000000000000000E+00     0.0000000000000000E+00 
    9.3749999999983680E-01     0.0000000000000000E+00     0.0000000000000000E+00 
    9.6874999999991840E-01     0.0000000000000000E+00     0.0000000000000000E+00 
    1.0000000000000000E+00     3.1249999999942091E-02     0.0000000000000000E+00 
    1.0000000000000000E+00     6.2499999999873469E-02     0.0000000000000000E+00 
    1.0000000000000000E+00     9.3749999999826514E-02     0.0000000000000000E+00 
    1.0000000000000000E+00     1.2499999999977961E-01     0.0000000000000000E+00 
    1.0000000000000000E+00     1.5624999999968961E-01     0.0000000000000000E+00 
    1.0000000000000000E+00     1.8749999999959971E-01     0.0000000000000000E+00 
    1.0000000000000000E+00     2.1874999999950970E-01     0.0000000000000000E+00 
    1.0000000000000000E+00     2.4999999999941969E-01     0.0000000000000000E+00 
    1.0000000000000000E+00     2.8124999999932920E-01     0.0000000000000000E+00 
    1.0000000000000000E+00     3.1249999999923850E-01     0.0000000000000000E+00 
    1.0000000000000000E+00     3.4374999999914790E-01     0.0000000000000000E+00 
    1.0000000000000000E+00     3.7499999999905720E-01     0.0000000000000000E+00 
    1.0000000000000000E+00     4.0624999999896660E-01     0.0000000000000000E+00 
    1.0000000000000000E+00     4.3749999999887590E-01     0.0000000000000000E+00 
    1.0000000000000000E+00     4.6874999999878530E-01     0.0000000000000000E+00 
    1.0000000000000000E+00     4.9999999999869471E-01     0.0000000000000000E+00 
    1.0000000000000000E+00     5.3124999999877620E-01     0.0000000000000000E+00 
    1.0000000000000000E+00     5.6249999999885780E-01     0.0000000000000000E+00 
    1.0000000000000000E+00     5.9374999999893940E-01     0.0000000000000000E+00 
    1.0000000000000000E+00     6.2499999999902101E-01     0.0000000000000000E+00 
    1.0000000000000000E+00     6.5624999999910261E-01     0.0000000000000000E+00 
    1.0000000000000000E+00     6.8749999999918421E-01     0.0000000000000000E+00 
    1.0000000000000000E+00     7.1874999999926570E-01     0.0000000000000000E+00 
    1.0000000000000000E+00     7.4999999999934730E-01     0.0000000000000000E+00 
    1.0000000000000000E+00     7.8124999999942890E-01     0.0000000000000000E+00 
    1.0000000000000000E+00     8.1249999999951039E-01     0.0000000000000000E+00 
    1.0000000000000000E+00     8.4374999999959199E-01     0.0000000000000000E+00 
    1.0000000000000000E+00     8.7499999999967359E-01     0.0000000000000000E+00 
    1.0000000000000000E+00     9.0624999999975520E-01     0.0000000000000000E+00 
    1.0000000000000000E+00     9.3749999999983680E-01     0.0000000000000000E+00 
    1.0000000000000000E+00     9.6874999999991840E-01     0.0000000000000000E+00 
    9.6875000000003686E-01     1.0000000000000000E+00     0.0000000000000000E+00 
    9.3750000000011691E-01     1.0000000000000000E+00     0.0000000000000000E+00 
    9.0625000000015765E-01     1.0000000000000000E+00     0.0000000000000000E+00 
    8.7500000000017863E-01     1.0000000000000000E+00     0.0000000000000000E+00 
    8.4375000000028044E-01     1.0000000000000000E+00     0.0000000000000000E+00 
    8.1250000000040856E-01     1.0000000000000000E+00     0.0000000000000000E+00 
    7.8125000000054956E-01     1.0000000000000000E+00     0.0000000000000000E+00 
    7.5000000000066480E-01     1.0000000000000000E+00     0.0000000000000000E+00 
    7.1875000000086831E-01     1.0000000000000000E+00     0.0000000000000000E+00 
    6.8750000000102829E-01     1.0000000000000000E+00     0.0000000000000000E+00 
    6.5625000000114431E-01     1.0000000000000000E+00     0.0000000000000000E+00 
    6.2500000000129829E-01     1.0000000000000000E+00     0.0000000000000000E+00 
    5.9375000000147926E-01     1.0000000000000000E+00     0.0000000000000000E+00 
    5.6250000000168354E-01     1.0000000000000000E+00     0.0000000000000000E+00 
    5.3125000000188671E-01     1.0000000000000000E+00     0.0000000000000000E+00 
    5.0000000000205835E-01     1.0000000000000000E+00     0.0000000000000000E+00 
    4.6875000000192979E-01     1.0000000000000000E+00     0.0000000000000000E+00 
    4.3750000000180111E-01     1.0000000000000000E+00     0.0000000000000000E+00 
    4.0625000000167238E-01     1.0000000000000000E+00     0.0000000000000000E+00 
    3.7500000000154382E-01     1.0000000000000000E+00     0.0000000000000000E+00 
    3.4375000000141509E-01     1.0000000000000000E+00     0.0000000000000000E+00 
    3.1250000000128642E-01     1.0000000000000000E+00     0.0000000000000000E+00 
    2.8125000000115769E-01     1.0000000000000000E+00     0.0000000000000000E+00 
    2.5000000000102918E-01     1.0000000000000000E+00     0.0000000000000000E+00 
    2.1875000000090050E-01     1.0000000000000000E+00     0.0000000000000000E+00 
    1.8750000000077180E-01     1.0000000000000000E+00     0.0000000000000000E+00 
    1.5625000000064329E-01     1.0000000000000000E+00     0.0000000000000000E+00 
    1.2500000000051459E-01     1.0000000000000000E+00     0.0000000000000000E+00 
    9.3750000000385914E-02     1.0000000000000000E+00     0.0000000000000000E+00 
    6.2500000000257239E-02     1.0000000000000000E+00     0.0000000000000000E+00 
    3.1250000000128557E-02     1.0000000000000000E+00     0.0000000000000000E+00 
    0.0000000000000000E+00     9.6875000000003686E-01     0.0000000000000000E+00 
    0.0000000000000000E+00     9.3750000000011691E-01     0.0000000000000000E+00 
    0.0000000000000000E+00     9.0625000000015765E-01     0.0000000000000000E+00 
    0.0000000000000000E+00     8.7500000000017863E-01     0.0000000000000000E+00 
    0.0000000000000000E+00     8.4375000000028044E-01     0.0000000000000000E+00 
    0.0000000000000000E+00     8.1250000000040856E-01     0.0000000000000000E+00 
    0.0000000000000000E+00     7.8125000000054956E-01     0.0000000000000000E+00 
    0.0000000000000000E+00     7.5000000000066480E-01     0.0000000000000000E+00 
    0.0000000000000000E+00     7.1875000000086831E-01     0.0000000000000000E+00 
    0.0000000000000000E+00     6.8750000000102829E-01     0.0000000000000000E+00 
    0.0000000000000000E+00     6.5625000000114431E-01     0.0000000000000000E+00 
    0.0000000000000000E+00     6.2500000000129829E-01     0.0000000000000000E+00 
    0.0000000000000000E+00     5.9375000000147926E-01     0.0000000000000000E+00 
    0.0000000000000000E+00     5.6250000000168354E-01     0.0000000000000000E+00 
    0.0000000000000000E+00     5.3125000000188671E-01     0.0000000000000000E+00 
    0.0000000000000000E+00     5.0000000000205835E-01     0.0000000000000000E+00 
    0.0000000000000000E+00     4.6875000000192979E-01     0.0000000000000000E+00 
    0.0000000000000000E+00     4.3750000000180111E-01     0.0000000000000000E+00 
    0.0000000000000000E+00     4.0625000000167238E-01     0.0000000000000000E+00 
[...]
CELL_DATA 2795 
SCALARS Pressure double 1 
LOOKUP_TABLE default 

    8.3684091300007317E+00 
    1.9402848107672867E+01 
    1.3496794774174747E+01 
    1.3186259375278484E+01 
    1.0422942862348329E+01 
    1.9165171453335333E+01 
    2.0252942210706738E+01 
    7.4104066556794006E+00 
    1.4071854373284095E+01 
    1.0667234508364855E+01 
    8.9877520878190325E+00 
    1.8739539821635475E+01 
    1.9200477298870403E+01 
    1.9110330189882536E+01 
    1.2462000487908790E+01 
    7.2739853180033069E+00 
    1.2153510945712034E+01 
    9.6109867105470190E+00 
    1.8154356126185871E+01 
    1.3474381680589048E+01 
    1.3368649501439975E+01 
    1.8998426324854218E+01 
    1.2840267334908143E+01 
    4.4808720443498196E-01 
    1.8686750761859319E+01 
    1.9223102660615982E+01 
    2.0301161497206941E+01 
    8.6378110827916270E+00 
    1.8605116507750918E+01 
    2.0279248787511779E+01 
    1.3712842364088845E+01 
    1.3683816960155394E+01 
    9.4027836276398951E+00 
    1.3459002552498662E+01 
    4.1748431396898837E+00 
    1.2162010088354284E+01 
    1.3442605384517721E+01 
    2.0333126507623525E+01 
    2.0225667015038724E+01 
    1.8760257013056819E+01 
    1.0288655277626624E+01 
    1.8767019634042647E+01 
    9.3407100982971791E-01 
    1.3471762415161455E+01 
    1.9912835442286514E+01 
    1.9603344629687175E+01 
    1.8721551375152131E+01 
    1.4508037790033365E+01 
    1.8766708170421811E+01 
    1.2411313884634227E+01 
    1.1852479089716622E+01 
    1.3644598091768428E+01 
    1.3357713367702710E+01 
    1.2207702252857867E+01 
    1.3796346863010680E+01 
    1.7832616411212669E+01 
    1.5763161617999112E+01 
    1.0484330075850945E+01 
    1.9013282145418614E+01 
    1.8867323221890462E+01 
    1.3133698683653456E+01 
    1.2972070212587665E+01 
    1.3065484675849078E+01 
    2.0143148522948042E+01 
    2.0473892461363572E+01 
    1.2161414301352437E+01 
    1.3642564970762420E+01 
    1.8432619373173480E+01 
    1.5573781485679500E+01 
    1.3064302318423849E+01 
    2.0510458369707369E+01 
    1.8933007809278347E+01 
    1.2008067242394896E+01 
    1.9746362009717092E+01 
    1.4084619598402613E+01 
    1.8522018005779113E+01 
    2.0358306942997782E+01 
    1.4122438142489441E+01 
    8.4448453383286690E+00 
    1.3662622280944031E+01 
    2.0233147835949502E+01 
    2.0547534690983898E+01 
    1.2181922941119325E+01 
    1.3587301925556623E+01 
    2.0619828764637237E+01 
    1.3439424913898678E+01 
    1.2954086531253292E+01 
    1.6145239326968660E+01 
    8.0785548042810351E+00 
    1.1888082539516247E+01 
    1.3583457387825145E+01 
    1.4236485059173308E+01 
    2.2422704998654581E+01 
    1.0107180227517926E+01 
    1.3651195499542574E+01 
    1.8688998866605758E+01 
    1.9111703043078904E+01 
    8.8177666667765209E+00 
    1.3290576259398071E+01 
    1.3619982677787942E+01 
    1.9153973023508694E+01 
    1.3605938040257081E+01 
    1.9034730499640730E+01 
    5.1506796650450193E+00 
    8.7272686525369512E+00 
    1.3891502243551725E+01 
    1.9420072279614526E+01 
    1.2122703237928256E+01 
    1.2833932625089366E+01 
    1.3577742505788127E+01 
    1.2913404561094266E+01 
    1.5315685169958780E+01 
    1.2489978313541920E+01 
    1.2018359017412036E+01 
    9.2376548664970421E+00 
    1.6146386726412146E+01 
    1.3689612226069332E+01 
    2.0023430478235273E+01 
    1.1652088664693892E+01 
    1.3160164811483705E+01 
    1.8943821371224537E+01 
    1.0934106837340970E+01 
    1.9637934790898708E+01 
    1.3514211864524990E+01 
    1.3075928904652359E+01 
    1.9123385963101391E+01 
    1.3676266471037158E+01 
    2.0376019691295951E+01 
    1.6176007938399316E+01 
    1.7582692903617236E+01 
    2.0324340669587951E+01 
    1.0129035872658701E+01 
    1.3913389677868260E+01 
    1.9175540335702397E+01 
    3.7567203569422576E+00 
    1.3770155044707959E+01 
    2.0278056594365278E+01 
    1.3107403661050082E+01 
    1.4980215727396159E+01 
    8.6794319429900160E+00 
    1.8701673430135365E+01 
    2.2982389811942205E+01 
    1.6832533376583346E+01 
    1.3110996004721272E+01 
    1.1741007574141200E+01 
    1.4584259750382941E+01 
    1.3532051675416584E+01 
    9.0866631818729751E+00 
    2.0320021769754430E+01 
    1.9186928418747744E+01 
    1.8692770045027231E+01 
    1.4236398657086546E+01 
    1.1955639834763625E+01 
    1.3362083718838594E+01 
    1.9783477636392536E+01 
    1.2307064765781828E+01 
    1.3666184805016382E+01 
    1.2526743426787938E+01 
    1.5917217898445825E+01 
    2.2969232057150318E+01 
    1.8674210530739384E+01 
    1.1775191406738477E+01 
    1.9425854878320859E+01 
    1.9356394663983924E+01 
    1.9477340698870361E+01 
    2.0887407214811113E+01 
    2.1581209124044221E+01 
    1.9573378458410382E+01 
    1.3633377477712992E+01 
    1.4752342659623116E+01 
    1.9320398876501656E+01 
    2.0020679552224539E+01 
    9.5133578557155563E+00 
    1.8717134069666763E+01 
    1.9720395542910932E+01 
    9.2402009508837839E+00 
    2.0803523020458901E+01 
    2.0746854885908075E+01 
    1.8254188075811200E+01 
    1.3992754857163840E+01 
    3.4208606636445755E+00 
    2.0277768310960667E+01 
    1.3823152648569858E+01 
    2.0442118469985310E+01 
    1.3017169066474297E+01 
    1.9964508888227559E+01 
    1.1782660782789194E+00 
    1.7577530526166086E+01 
    1.3026038406602034E+01 
    1.1911590796671918E+01 
    1.1596960471573967E+01 
    1.3479472947552130E+01 
    1.4835224280049614E+01 
    1.4198945602082013E+01 
    9.3439691205654647E+00 
    2.0025269786063564E+01 
    1.9225034244432901E+01 
    1.5725142259467487E+01 
    1.3881297300990546E+01 
    1.8156465592768338E+00 
    1.0633601003603733E+01 
    7.1611847862224636E+00 
    2.0293681705629560E+01 
    1.5165862972931881E+01 
    1.9197833804539759E+01 
    1.9321683731078920E+01 
    1.2393431122381214E+01 
    1.5832379496572919E+01 
    1.8673019992462297E+01 
    2.0725589126562326E+01 
    8.6766854614151665E+00 
    1.6868380155495775E+01 
    1.4162045849441313E+01 
    7.6681585657908249E+00 
    1.2402528617377500E+01 
    1.6553909261780476E+01 
    1.9265066065700275E+01 
    1.3532441107699405E+01 
    1.9440743452732494E+01 
    1.9068958448429818E+01 
    1.8999534734712494E+01 
    1.3364321662540133E+01 
    1.1757761069261717E+01 
    1.8707349574877153E+01 
    1.1993721395866114E+01 
    1.3616841618179757E+01 
    1.1761167067759176E+01 
    1.3611072332868417E+01 
    1.9332307594193473E+01 
    8.2163898094242960E+00 
    1.2282267095447558E+01 
    2.0179171921818806E+01 
    1.3370299025773560E+01 
    1.5037138579228122E+01 
    8.4306066590020752E+00 
    1.2088480202320991E+01 
    1.9033273378811238E+01 
    1.9525348068355399E+01 
    6.8725410146215511E+00 
    1.3388594815788904E+01 
    1.1782748835510564E+01 
    2.1292991616348957E+01 
    2.0562769277987837E+01 
    2.1623245346883177E+01 
    1.3409613919647805E+01 
    1.9294977653668528E+01 
    1.8590303377572766E+01 
    1.3249571701814769E+01 
    1.8690347085679790E+01 
    1.3881672785467599E+01 
    7.7402221635297686E+00 
    1.3829182135380266E+01 
    2.0158382489583069E+01 
    1.8684333298444326E+01 
    8.9417504699463191E+00 
    1.8731903552168365E+01 
    1.4869813701997961E+01 
    1.3744085491875220E+01 
    1.3195564032369083E+01 
    1.8464363759297584E+01 
    1.4384366813792045E+01 
    1.8713286990788134E+01 
    1.3397063435860126E+01 
    7.9820376225578622E+00 
    1.3701361185984757E+01 
    1.1602557426770863E+01 
    1.6862327052315450E+01 
    2.0444872881647687E+01 
    1.8709005108772043E+01 
    2.0268036428125637E+01 
    1.3302046379504958E+01 
    8.7062616177730323E+00 
    8.8316454804959861E+00 
    1.3974716002550730E+01 
    1.3584014251792260E+01 
    1.8695060438428710E+00 
    1.7878451024670991E+01 
    2.0936779611632872E+01 
    1.3039737304748169E+01 
    8.1302829614439265E+00 
    1.5653100202694040E+01 
    1.8723860342128269E+01 
    9.7737418054384708E+00 
    6.4610700916597814E+00 
    1.3571129618180175E+01 
    1.8855865834371492E+01 
    1.9899824881981040E+01 
    1.9615202336383938E+01 
    1.9533200444986019E+01 
    9.4832141225224156E+00 
    1.3739011082489405E+01 
    1.8121662770629449E+01 
    1.0457539429982427E+01 
    1.9178702881369663E+01 
    1.6124410319625550E+01 
    8.9614624115726844E+00 
    1.8844830075361557E+01 
    2.0297416710398824E+01 
    1.8877418970068057E+01 
    9.3896493541858330E+00 
    1.3638169314990524E+01 
    1.0389123243969577E+01 
    1.2833629701817655E+01 
    1.8714141668465636E+01 
    1.8696146337765494E+01 
    9.4509019827747913E+00 
    2.0028405670138731E+01 
    1.4294063018620186E+01 
    1.8766722907523675E+01 
    2.0057044543462688E+01 
    1.8738851115056054E+01 
    1.7168423665512158E+01 
    2.1384642967685849E+01 
    1.2966295108553371E+01 
    2.0225688562052540E+01 
    1.8793856433663386E+01 
    2.0328468857920932E+01 
    2.0018189882758652E+01 
    1.3098131946430547E+01 
    1.3484452262773749E+01 
    1.3029457439010921E+01 
    1.6445525365236975E+01 
    5.1765147755710670E+00 
    1.3895436977976834E+01 
    2.1529946747878203E+01 
    1.3887830374170678E+01 
    1.4130953825067579E+01 
    2.0289101433076855E+01 
    2.0594592730162436E+01 
    1.2830615295157708E+01 
    1.8737662608241223E+01 
    1.8695816302120619E+01 
    1.4114532720008929E+01 
    1.9947877305918535E+01 
    9.4389649763889949E+00 
    5.9762087619937461E+00 
    1.4484495706467582E+01 
    1.3902704885521766E+01 
    1.8689360670779124E+01 
    8.8005350013341168E+00 
    1.9508368199810448E+01 
    6.0989376899409260E+00 
    1.3830421192135340E+01 
    1.3099491564881287E+01 
    1.3612885026332991E+01 
    2.3021919058960084E+01 
    5.0104848008447176E+00 
    1.3791625590807277E+01 
    1.6477865034207515E+01 
    1.3183586235551232E+01 
    1.0369536738601443E+01 
    1.9772520682661760E+01 
    2.2529356004854694E+01 
    1.9933899575962805E+01 
    1.3714231458269047E+01 
    7.6392308633149231E+00 
    2.2365712516110523E+01 
    1.9193634531673595E+01 
    9.7884928713529931E+00 
    1.3293142169603051E+01 
    2.0862683204600405E+01 
    4.2075190439771424E+00 
    1.3970301937779375E+01 
    1.9951266140802357E+01 
    1.3630764168825252E+01 
    1.1770923236203775E+01 
    1.3841655352514890E+01 
    1.8226852513713954E+01 
    1.3612071781677601E+01 
    6.7525282402996565E+00 
    1.1648701127585692E+00 
    9.9459302787300654E+00 
    2.1194437976049084E+01 
    1.3029486911004287E+01 
    1.5400811990958630E+01 
    1.4769548607512103E+01 
    1.6909822704885372E+01 
    1.3645483397747467E+01 
    1.9047706390769704E+01 
    2.3037108968865716E+01 
    1.6035284040326779E+01 
    2.0185759590022847E+01 
    6.7216737085067690E-01 
    1.8697574443916313E+01 
    7.4459852338055423E+00 
    2.1730887904374356E+01 
    1.3808767634979581E+01 
    1.2049530814342061E+01 
    1.0610435173989355E+01 
    7.1226046390834750E+00 
    1.5091122040584523E+01 
    1.0598452906191660E+01 
    1.6713119380353845E+01 
    2.8652498878394277E+00 
    1.4918916944131169E+01 
    1.8574944555024359E+01 
    7.9994249688637034E+00 
    1.9374263995690924E+01 
    2.1439180650886424E+01 
    1.9185569222606539E+01 
    1.3634326772611171E+01 
    1.3605626216604826E+01 
    1.3799640791563967E+01 
    7.7636092409562352E+00 
    1.2671579359704566E+01 
    1.2463867018791452E+01 
    1.3785778530378398E+01 
    1.2937695397695004E+01 
    8.6545554596160035E-01 
    8.5882363284451344E+00 
    1.3426684553764833E+01 
    1.3753382391061640E+01 
    1.7209955608905368E+01 
    2.6903940039196197E+00 
    1.4061851199140628E+01 
    1.3911869230419061E+01 
    4.8054674898606482E+00 
    1.8980266011387936E+01 
    1.2002302141955740E+01 
    1.3753588922328056E+01 
    1.9169183891453212E+01 
    7.1492698174711862E+00 
    1.9131903830864186E+01 
    1.2185248498489109E+01 
    1.1800098509828985E+00 
    1.3106655841208109E+01 
    2.0080628978354962E+01 
    1.8702945657706241E+01 
    1.8735762631568093E+01 
    1.4231674386016216E+01 
    1.3833597782857098E+01 
    1.2002727823012647E+01 
    9.3692043442727222E+00 
    1.9323460586478635E+01 
    1.3286211489779312E+01 
    9.0634504227816297E+00 
    1.8725997915969881E+01 
    1.9762403700853504E+01 
    1.4003909363744922E+01 
    1.3424067021969361E+01 
    2.2904177094131555E+01 
    1.4115798869337302E+01 
    1.9390279796584629E+01 
    1.1362801582530651E+01 
    2.3065412557820959E+01 
    8.7793122168833264E+00 
    1.2490274745066079E+01 
    9.9032925830386027E+00 
    1.4420014707039877E+01 
    1.1596033844856940E+01 
    2.3048184648274400E+01 
    1.4178917745274951E+01 
    1.8212403143886554E+01 
    9.0322114205618220E+00 
    1.3638791870656695E+01 
    1.9147757719418696E+01 
    1.1616078100682484E+01 
    9.8021007773470075E+00 
    1.5319318977953404E+01 
    1.9465270566447455E+01 
    9.7381227408754452E+00 
    1.3128898373018721E+01 
    1.3467328607571238E+01 
    1.8660509181588314E+01 
    1.3203124042343607E+01 
    1.9477242316350338E+01 
    2.0368717858059334E+01 
    1.2032776687865198E+01 
    1.1778655468162277E+01 
    1.0626954407401776E+01 
    1.8883000156378134E+01 
    1.3933207696675245E+01 
    2.2572478364565050E+01 
    1.7392302222452631E+01 
    1.9074431356518424E+01 
    2.2215018388204339E+01 
    2.1445356791695417E+01 
    1.3690264209052094E+01 
    1.3766308411519811E+01 
    1.8274976825065885E+01 
    1.8762221120083542E+01 
    1.9572421196097505E+01 
    1.9219788000040392E+01 
    2.2931688763617760E+01 
    1.4115162964553528E+01 
    1.2176607617337391E+01 
    1.4080495933289077E+01 
    2.0245473802375752E+01 
    1.3794391742229042E+01 
    7.8242572915985455E+00 
    1.3613486394404784E+01 
    2.0822228970037660E+01 
    1.3957496680859737E+01 
    1.2188574680523471E+01 
    1.3404767056562507E+01 
    2.0975296911106742E+01 
    1.8867584849519172E+01 
    1.1484918349334837E+01 
    2.1154307776062172E+01 
    1.3721327918072953E+01 
    1.9627957374828220E+01 
    2.0991374205714035E+01 
    1.4525919552729530E+01 
    7.1538288553218266E+00 
    1.5087739984606182E+01 
    7.4143219437008367E+00 
    1.3849286949542291E+01 
    1.3636376485456177E+01 
    1.5884690328789484E+01 
    7.8696958334681471E+00 
    1.6904465258941876E+01 
    1.3653135474920287E+01 
    1.9207804099136830E+01 
    1.4703618557927829E+01 
    1.1092448438575667E+01 
    1.3246733298405907E+01 
    1.4425390831844325E+01 
    1.4251249030308589E+01 
    2.0417023272184572E+01 
    1.1618561441069271E+01 
    1.1405068602140735E+01 
    8.3001257440904386E+00 
    1.9659456296802592E+01 
    1.3297722133407081E+01 
    1.8527604588325740E+01 
    1.3602330623185335E+01 
    9.1285834151298282E+00 
    1.8879372262264354E+01 
    1.3578028804908749E+01 
    1.0029999364735845E+01 
    1.0689915923645813E+01 
    1.1106075433036645E+01 
    1.9248283018238077E+01 
    1.3788309970078279E+01 
    2.0198281133678677E+01 
    1.3536805157366434E+01 
    1.3472168318992512E+01 
    1.3025536764629448E+01 
    1.9003926200473391E+01 
    1.3376769986291452E+01 
    1.1169671027850699E+01 
    2.1433869667689830E+01 
    1.9115671119128351E+01 
    9.2046932112905555E+00 
    3.4249370002145207E+00 
    1.3775226415305356E+01 
    1.2850364166969142E+01 
    1.1779534736331689E+01 
    1.2765148432680627E+01 
    1.9033713978275181E+01 
    1.3397936948823274E+01 
    1.2213312540299876E+01 
    1.8798651292811574E+01 
    9.1244406991187681E+00 
    1.8223779130823438E+01 
    1.2322556251711941E+01 
    1.0978195157057682E+01 
    1.1900750076992972E+01 
    1.9750279968780937E+01 
    1.3615377748160325E+01 
    1.3624937818589162E+01 
    8.0070274494543412E+00 
    8.7061491005217455E+00 
    1.7241525320083344E+01 
    1.3635862705758601E+01 
    1.3825413303342579E+01 
    2.1143144908855223E+01 
    1.1403384612460293E+01 
    1.3649374852519129E+01 
    9.4622238075049889E+00 
    9.7921510255973327E+00 
    1.8947747289950932E+01 
    1.3227797675068260E+01 
    9.6640698043781708E+00 
    1.4238902028098881E+01 
    1.3539718141275275E+01 
    1.8970345917611283E+01 
    2.1259978792892579E+01 
    1.2502756860843971E+00 
    1.3781423893064620E+01 
    1.3901357505095476E+01 
    1.9093947059183147E+01 
    1.3195123521947458E+01 
    1.3584004095460816E+01 
    2.0471987679245540E+01 
    1.1947793188942390E+01 
    9.7552959438223912E+00 
    1.6304111107651277E+01 
    1.8723297786821281E+01 
    2.0324834681779535E+01 
    2.0687351735837147E+01 
    1.3581310987082997E+01 
    1.3770358242452783E+01 
    1.5156457926648601E+01 
    8.7362125384361047E+00 
    1.8940446609287395E+01 
    1.0567871861674735E+01 
    9.1064648806762793E+00 
    1.6952202274974205E+01 
    1.5907595310415116E+01 
    8.9262672404577099E+00 
    1.8780584582147593E+01 
    2.0305627309545475E+01 
    1.4135900235485819E+01 
    2.1391088284399338E+01 
    1.8833777540292328E+01 
    1.3259900412185148E+01 
    1.9854140710769013E+01 
    9.7962743117476414E+00 
    1.8750157438269621E+01 
    1.3779952025248122E+01 
    1.3732899707677301E+01 
    2.1374319857365592E+01 
    1.3348090464354648E+01 
    1.6573780355528847E+01 
    1.1868407816439532E+01 
    2.0470772002244459E+01 
    1.8590504874117055E+01 
    1.2368358400745137E+01 
    1.8696880449780121E+01 
    1.2422283805640777E+01 
    1.3590378009946376E+01 
    2.0249238983374813E+01 
    1.9176102704201401E+01 
    2.0309802747720681E+01 
    1.9095350137659654E+01 
    1.2686514263792594E+01 
    1.2942349353238512E+01 
    2.0320208504459931E+01 
    1.3107248154331035E+01 
    1.8445271444178946E+01 
    1.3322513157542751E+01 
    5.2265980359193565E+00 
    9.2102508751740224E+00 
    8.5145669879664023E+00 
    2.0253643882450724E+01 
    2.1272919144626176E+01 
    1.8718389635911816E+01 
    1.5597533472782343E+01 
    1.9161687815974805E+01 
    1.8795872226804079E+01 
    1.9731293396303439E+01 
    7.7071751467972192E+00 
    4.8335715614773083E+00 
    1.5305698094538407E+01 
    1.3385833546759333E+01 
    1.9048375942751267E+01 
    1.9043436672588175E+01 
    1.3923197217953225E+01 
    1.9105207210007297E+01 
    1.3763099995516919E+01 
    1.3662780255384430E+01 
    6.9066991606231110E+00 
    4.8091072570286704E+00 
    2.0966973823571163E+01 
    1.0506945142447400E+01 
    1.2308872515764689E+01 
    1.3807705911839498E+01 
    2.2907764424302918E+01 
    1.3912644428593204E+01 
    1.4146161380842774E+01 
    5.5332466386896533E+00 
    1.3912451449750449E+01 
    1.3928755934413843E+01 
    1.9424682805873065E+01 
    1.1899635951738654E+01 
    1.3058418146400616E+01 
    2.1194215833195454E+01 
    1.3791915840003853E+01 
    1.8740895886878626E+01 
    1.9081871257410167E+01 
    1.6663113575149918E+01 
    1.1510902085547190E+01 
    1.9089917020742188E+01 
    1.3543697961160818E+01 
    1.8991727746291708E+01 
    1.8636753539420717E+01 
    2.0280955539968087E+01 
    1.9103437657095022E+01 
    1.7612524927939550E+01 
    1.3777470280241403E+01 
    8.8567057818822406E+00 
    2.2766313101642368E+01 
    1.0804561031582882E+01 
    2.0164646300952505E+01 
    1.3774273373724307E+01 
    1.1460897469596828E+01 
    6.5167000211658905E+00 
    1.3971345517516498E+01 
    1.9075667129367790E+01 
    1.9054887661811005E+01 
    1.3567777128311519E+01 
    1.3767101908227692E+01 
    2.1446601973049344E+01 
    2.0609580354211246E+01 
    1.3936052109229127E+01 
    4.4778543093141678E+00 
    1.7490947318293017E+01 
    2.3043834832429866E+01 
    1.3781553154783005E+01 
    1.6107395712031689E+01 
    1.3194686578320752E+01 
    2.2603624399095320E+01 
    2.0724592146322909E+01 
    2.0336079020638149E+01 
    1.3962341289683406E+01 
    6.0741299708485208E+00 
    1.3143847053639783E+01 
    1.3222855885017584E+01 
    1.3269811943205676E+01 
    4.9195459065670208E+00 