# vtk DataFile Version 2.0
Pressure Field Data 
ASCII 
DATASET UNSTRUCTURED_GRID 

POINTS 2860 double 

    0.0000000000000000E+00     0.0000000000000000E+00     0.0000000000000000E+00 
    1.0000000000000000E+00     0.0000000000000000E+00     0.0000000000000000E+00 
    1.0000000000000000E+00     1.0000000000000000E+00     0.0000000000000000E+00 
    0.0000000000000000E+00     1.0000000000000000E+00     0.0000000000000000E+00 
    2.5000000000000000E-01     2.5000000000000000E-01     0.0000000000000000E+00 
    7.5000000000000000E-01     2.5000000000000000E-01     0.0000000000000000E+00 
    7.5000000000000000E-01     7.5000000000000000E-01     0.0000000000000000E+00 
    2.5000000000000000E-01     7.5000000000000000E-01     0.0000000000000000E+00 
    3.1249999999942091E-02     0.0000000000000000E+00     0.0000000000000000E+00 
    6.2499999999873469E-02     0.0000000000000000E+00     0.0000000000000000E+00 
    9.3749999999826514E-02     0.0000000000000000E+00     0.0000000000000000E+00 
    1.2499999999977961E-01     0.0000000000000000E+00     0.0000000000000000E+00 
    1.5624999999968961E-01     0.0000000000000000E+00     0.0000000000000000E+00 
    1.8749999999959971E-01     0.0000000000000000E+00     0.0000000000000000E+00 
    2.1874999999950970E-01     0.0000000000000000E+00     0.0000000000000000E+00 
    2.4999999999941969E-01     0.0000000000000000E+00     0.0000000000000000E+00 
    2.8124999999932920E-01     0.0000000000000000E+00     0.0000000000000000E+00 
    3.1249999999923850E-01     0.0000000000000000E+00     0.0000000000000000E+00 
    3.4374999999914790E-01     0.0000000000000000E+00     0.0000000000000000E+00 
    3.7499999999905720E-01     0.0000000000000000E+00     0.0000000000000000E+00 
    4.0624999999896660E-01     0.0000000000000000E+00     0.0000000000000000E+00 
    4.3749999999887590E-01     0.0000000000000000E+00     0.0000000000000000E+00 
    4.6874999999878530E-01     0.0000000000000000E+00     0.0000000000000000E+00 
    4.9999999999869471E-01     0.0000000000000000E+00     0.0000000000000000E+00 
    5.3124999999877620E-01     0.0000000000000000E+00     0.0000000000000000E+00 
    5.6249999999885780E-01     0.0000000000000000E+00     0.0000000000000000E+00 
    5.9374999999893940E-01     0.0000000000000000E+00     0.0000000000000000E+00 
    6.2499999999902101E-01     0.0000000000000000E+00     0.0000000000000000E+00 
    6.5624999999910261E-01     0.0000000000000000E+00     0.0000000000000000E+00 
    6.8749999999918421E-01     0.0000000000000000E+00     0.0000000000000000E+00 
    7.1874999999926570E-01     0.0000000000000000E+00     0.0000000000000000E+00 
    7.4999999999934730E-01     0.0000000000000000E+00     0.0000000000000000E+00 
    7.8124999999942890E-01     0.0000000000000000E+00     0.0000000000000000E+00 
    8.1249999999951039E-01     0.0000000000000000E+00     0.0000000000000000E+00 
    8.4374999999959199E-01     0.0000000000000000E+00     0.0000000000000000E+00 
    8.7499999999967359E-01     0.0000000000000000E+00     0.0000000000000000E+00 
    9.0624999999975520E-01     0.0000000000000000E+00     0.0000000000000000E+00 
    9.3749999999983680E-01     0.0000000000000000E+00     0.0000000000000000E+00 
    9.6874999999991840E-01     0.0000000000000000E+00     0.0000000000000000E+00 
    1.0000000000000000E+00     3.1249999999942091E-02     0.0000000000000000E+00 
    1.0000000000000000E+00     6.2499999999873469E-02     0.0000000000000000E+00 
    1.0000000000000000E+00     9.3749999999826514E-02     0.0000000000000000E+00 
    1.0000000000000000E+00     1.2499999999977961E-01     0.0000000000000000E+00 
    1.0000000000000000E+00     1.5624999999968961E-01     0.0000000000000000E+00 
    1.0000000000000000E+00     1.8749999999959971E-01     0.0000000000000000E+00 
    1.0000000000000000E+00     2.1874999999950970E-01     0.0000000000000000E+00 
    1.0000000000000000E+00     2.4999999999941969E-01     0.0000000000000000E+00 
    1.0000000000000000E+00     2.8124999999932920E-01     0.0000000000000000E+00 
    1.0000000000000000E+00     3.1249999999923850E-01     0.0000000000000000E+00 
    1.0000000000000000E+00     3.4374999999914790E-01     0.0000000000000000E+00 
    1.0000000000000000E+00     3.7499999999905720E-01     0.0000000000000000E+00 
    1.0000000000000000E+00     4.0624999999896660E-01     0.0000000000000000E+00 
    1.0000000000000000E+00     4.3749999999887590E-01     0.0000000000000000E+00 
    1.0000000000000000E+00     4.6874999999878530E-01     0.0000000000000000E+00 
    1.0000000000000000E+00     4.9999999999869471E-01     0.0000000000000000E+00 
    1.0000000000000000E+00     5.3124999999877620E-01     0.0000000000000000E+00 
    1.0000000000000000E+00     5.6249999999885780E-01     0.0000000000000000E+00 
    1.0000000000000000E+00     5.9374999999893940E-01     0.0000000000000000E+00 
    1.0000000000000000E+00     6.2499999999902101E-01     0.0000000000000000E+00 
    1.0000000000000000E+00     6.5624999999910261E-01     0.0000000000000000E+00 
    1.0000000000000000E+00     6.8749999999918421E-01     0.0000000000000000E+00 
    1.0000000000000000E+00     7.1874999999926570E-01     0.0000000000000000E+00 
    1.0000000000000000E+00     7.4999999999934730E-01     0.0000000000000000E+00 
    1.0000000000000000E+00     7.8124999999942890E-01     0.0000000000000000E+00 
    1.0000000000000000E+00     8.1249999999951039E-01     0.0000000000000000E+00 
    1.0000000000000000E+00     8.4374999999959199E-01     0.0000000000000000E+00 
    1.0000000000000000E+00     8.7499999999967359E-01     0.0000000000000000E+00 
    1.0000000000000000E+00     9.0624999999975520E-01     0.0000000000000000E+00 
    1.0000000000000000E+00     9.3749999999983680E-01     0.0000000000000000E+00 
    1.0000000000000000E+00     9.6874999999991840E-01     0.0000000000000000E+00 
    9.6875000000003686E-01     1.0000000000000000E+00     0.0000000000000000E+00 
    9.3750000000011691E-01     1.0000000000000000E+00     0.0000000000000000E+00 
    9.0625000000015765E-01     1.0000000000000000E+00     0.0000000000000000E+00 
    8.7500000000017863E-01     1.0000000000000000E+00     0.0000000000000000E+00 
    8.4375000000028044E-01     1.0000000000000000E+00     0.0000000000000000E+00 
    8.1250000000040856E-01     1.0000000000000000E+00     0.0000000000000000E+00 
    7.8125000000054956E-01     1.0000000000000000E+00     0.0000000000000000E+00 
    7.5000000000066480E-01     1.0000000000000000E+00     0.0000000000000000E+00 
    7.1875000000086831E-01     1.0000000000000000E+00     0.0000000000000000E+00 
    6.8750000000102829E-01     1.0000000000000000E+00     0.0000000000000000E+00 
    6.5625000000114431E-01     1.0000000000000000E+00     0.0000000000000000E+00 
    6.2500000000129829E-01     1.0000000000000000E+00     0.0000000000000000E+00 
    5.9375000000147926E-01     1.0000000000000000E+00     0.0000000000000000E+00 
    5.6250000000168354E-01     1.0000000000000000E+00     0.0000000000000000E+00 
    5.3125000000188671E-01     1.0000000000000000E+00     0.0000000000000000E+00 
    5.0000000000205835E-01     1.0000000000000000E+00     0.0000000000000000E+00 
    4.6875000000192979E-01     1.0000000000000000E+00     0.0000000000000000E+00 
    4.3750000000180111E-01     1.0000000000000000E+00     0.0000000000000000E+00 
    4.0625000000167238E-01     1.0000000000000000E+00     0.0000000000000000E+00 
    3.7500000000154382E-01     1.0000000000000000E+00     0.0000000000000000E+00 
    3.4375000000141509E-01     1.0000000000000000E+00     0.0000000000000000E+00 
    3.1250000000128642E-01     1.0000000000000000E+00     0.0000000000000000E+00 
    2.8125000000115769E-01     1.0000000000000000E+00     0.0000000000000000E+00 
    2.5000000000102918E-01     1.0000000000000000E+00     0.0000000000000000E+00 
    2.1875000000090050E-01     1.0000000000000000E+00     0.0000000000000000E+00 
    1.8750000000077180E-01     1.0000000000000000E+00     0.0000000000000000E+00 
    1.5625000000064329E-01     1.0000000000000000E+00     0.0000000000000000E+00 
    1.2500000000051459E-01     1.0000000000000000E+00     0.0000000000000000E+00 
    9.3750000000385914E-02     1.0000000000000000E+00     0.0000000000000000E+00 
    6.2500000000257239E-02     1.0000000000000000E+00     0.0000000000000000E+00 
    3.1250000000128557E-02     1.0000000000000000E+00     0.0000000000000000E+00 
    0.0000000000000000E+00     9.6875000000003686E-01     0.0000000000000000E+00 
    0.0000000000000000E+00     9.3750000000011691E-01     0.0000000000000000E+00 
    0.0000000000000000E+00     9.0625000000015765E-01     0.0000000000000000E+00 
    0.0000000000000000E+00     8.7500000000017863E-01     0.0000000000000000E+00 
    0.0000000000000000E+00     8.4375000000028044E-01     0.0000000000000000E+00 
    0.0000000000000000E+00     8.1250000000040856E-01     0.0000000000000000E+00 
    0.0000000000000000E+00     7.8125000000054956E-01     0.0000000000000000E+00 
    0.0000000000000000E+00     7.5000000000066480E-01     0.0000000000000000E+00 
    0.0000000000000000E+00     7.1875000000086831E-01     0.0000000000000000E+00 
    0.0000000000000000E+00     6.8750000000102829E-01     0.0000000000000000E+00 
    0.0000000000000000E+00     6.5625000000114431E-01     0.0000000000000000E+00 
    0.0000000000000000E+00     6.2500000000129829E-01     0.0000000000000000E+00 
    0.0000000000000000E+00     5.9375000000147926E-01     0.0000000000000000E+00 
    0.0000000000000000E+00     5.6250000000168354E-01     0.0000000000000000E+00 
    0.0000000000000000E+00     5.3125000000188671E-01     0.0000000000000000E+00 
    0.0000000000000000E+00     5.0000000000205835E-01     0.0000000000000000E+00 
    0.0000000000000000E+00     4.6875000000192979E-01     0.0000000000000000E+00 
    0.0000000000000000E+00     4.3750000000180111E-01     0.0000000000000000E+00 
    0.0000000000000000E+00     4.0625000000167238E-01     0.0000000000000000E+00 
[...]
CELL_DATA 2795 
SCALARS Pressure double 1 
LOOKUP_TABLE default 

    6.6066961642561033E+00 
    1.4306113276359005E+01 
    1.0131850601438362E+01 
    9.7993543054691603E+00 
    7.9701034742035617E+00 
    1.4172773808927495E+01 
    1.4887393698664299E+01 
    5.9588562024568033E+00 
    1.0697303443935532E+01 
    8.1695784168591210E+00 
    6.9729939061969262E+00 
    1.3923169593151087E+01 
    1.4229805940131579E+01 
    1.4143270415306475E+01 
    9.3287107477413596E+00 
    5.8662937359681564E+00 
    9.0975204503590508E+00 
    7.4195771763430471E+00 
    1.3569334469281547E+01 
    1.0119273962403033E+01 
    1.0012460994814305E+01 
    1.4078586052809925E+01 
    9.5540141635667961E+00 
    3.9131950537479815E-01 
    1.3934343073287950E+01 
    1.4184840431883128E+01 
    1.4918602746943517E+01 
    6.7315127842269549E+00 
    1.3845646289329611E+01 
    1.4905182587696888E+01 
    1.0223773665719950E+01 
    1.0337815388665243E+01 
    7.2788554743702605E+00 
    1.0093692039623757E+01 
    3.3888587981160998E+00 
    9.0986642982214079E+00 
    1.0081997375952170E+01 
    1.4943643952664948E+01 
    1.4865234981925392E+01 
    1.3935942562279770E+01 
    7.9247701579786156E+00 
    1.3900507082022456E+01 
    8.2085913619297302E-01 
    1.0027382419451408E+01 
    1.4719311059397498E+01 
    1.4512728143333009E+01 
    1.3912697385569826E+01 
    1.1039185906190978E+01 
    1.3981222619666219E+01 
    9.2907426492885534E+00 
    8.8894585789668259E+00 
    1.0303178860232562E+01 
    9.9273820879259418E+00 
    9.1512396143999979E+00 
    1.0291683192420573E+01 
    1.3364786281793315E+01 
    1.1983498545776108E+01 
    8.0100082631413976E+00 
    1.4083318840483260E+01 
    1.4008819727987543E+01 
    9.8031711820262171E+00 
    9.7417621900388891E+00 
    9.7100209318651931E+00 
    1.4810440767642001E+01 
    1.5091546733544360E+01 
    9.1108681915837586E+00 
    1.0302208167677602E+01 
    1.3818322925182587E+01 
    1.1842560094088814E+01 
    9.7821780209353086E+00 
    1.5073934283455905E+01 
    1.4039388151005838E+01 
    8.9924959891274003E+00 
    1.4619398192501730E+01 
    1.0513590740061566E+01 
    1.3784540943058046E+01 
    1.4962671059143258E+01 
    1.0549072013717650E+01 
    6.7885443997917445E+00 
    1.0320711836399441E+01 
    1.4873507295890176E+01 
    1.5095476721826190E+01 
    9.1190636397966269E+00 
    1.0238118209885098E+01 
    1.5142057877645616E+01 
    1.0083803983969513E+01 
    9.6330738306505825E+00 
    1.2257287105487693E+01 
    6.4811642321474796E+00 
    8.9146626123018056E+00 
    1.0237196723869253E+01 
    1.0854265670655231E+01 
    1.6560903370859151E+01 
    7.7628981770120973E+00 
    1.0310269809462550E+01 
    1.3891393181804590E+01 
    1.4180138538660426E+01 
    6.9153027821583795E+00 
    9.9519309829119784E+00 
    1.0268529335628944E+01 
    1.4200560013982859E+01 
    1.0267443064731191E+01 
    1.4131963879227881E+01 
    4.2719421426671378E+00 
    6.7762892939936767E+00 
    1.0533992002739412E+01 
    1.4313335985976737E+01 
    9.0663279846649996E+00 
    9.6011594947085808E+00 
    1.0250747553855067E+01 
    9.6059625457130196E+00 
    1.1606662281096282E+01 
    9.3608661214218252E+00 
    8.9981705380965291E+00 
    7.2808323455183563E+00 
    1.2020194324133980E+01 
    1.0340409437300675E+01 
    1.4727396472131643E+01 
    8.8727770026390314E+00 
    9.7840678608156750E+00 
    1.4023152333798636E+01 
    8.3210645556906986E+00 
    1.4473391308895444E+01 
    1.0161179150262845E+01 
    9.7193652045526697E+00 
    1.4181725203961800E+01 
    1.0333171758564674E+01 
    1.4969289567643747E+01 
    1.2272131428002769E+01 
    1.3212891574499713E+01 
    1.4935093253962480E+01 
    7.7771030497433618E+00 
    1.0562277095542612E+01 
    1.4172542838700819E+01 
    3.1901049883363535E+00 
    1.0270974475467035E+01 
    1.4902247891813575E+01 
    9.7469248244932363E+00 
    1.1186955725043701E+01 
    6.9053383244046911E+00 
    1.3889753603010835E+01 
    1.7032519500212679E+01 
    1.2733975112014086E+01 
    9.7449725821369473E+00 
    8.8183465453857757E+00 
    1.0898442862252988E+01 
    1.0178370519742447E+01 
    7.0458305201629257E+00 
    1.4929145966539517E+01 
    1.4226888614821824E+01 
    1.3893089105725984E+01 
    1.0846987563676068E+01 
    8.9707000821798140E+00 
    1.0010106982864350E+01 
    1.4645729477287601E+01 
    9.1891415126431966E+00 
    1.0188560451069105E+01 
    9.3382894779337935E+00 
    1.1774138855478959E+01 
    1.7021055920979677E+01 
    1.3884694223272493E+01 
    8.9534630937752535E+00 
    1.4372037042510026E+01 
    1.4273419923875897E+01 
    1.4352108796923936E+01 
    1.5334618948951377E+01 
    1.5861671238628972E+01 
    1.4513967445125322E+01 
    1.0293888960199785E+01 
    1.1061108131148384E+01 
    1.4346429029081294E+01 
    1.4741568138136035E+01 
    7.3296374607810275E+00 
    1.3912213639763706E+01 
    1.4609449142292990E+01 
    7.1560687792584714E+00 
    1.5252995669265111E+01 
    1.5235430445246966E+01 
    1.3636571603066935E+01 
    1.0630762437065922E+01 
    2.7651944254050811E+00 
    1.4901261129480018E+01 
    1.0470911304970731E+01 
    1.5027578723083503E+01 
    9.6850776199540540E+00 
    1.4744403675906460E+01 
    1.0149645844402977E+00 
    1.3224749842062176E+01 
    9.7853558695929710E+00 
    8.9320830206204498E+00 
    8.7250637517213452E+00 
    1.0130161735581082E+01 
    1.1254808121249731E+01 
    1.0574872647247023E+01 
    7.3872599608277332E+00 
    1.4732954938262942E+01 
    1.4194311433729242E+01 
    1.1967130287775774E+01 
    1.0530087123354036E+01 
    1.6221779356204009E+00 
    8.1067539251511249E+00 
    5.8151948168218484E+00 
    1.4917489904677327E+01 
    1.1346556355234558E+01 
    1.4246804611214621E+01 
    1.4261577588933775E+01 
    9.2678939190963163E+00 
    1.1862329199006767E+01 
    1.3888146100341292E+01 
    1.5222352250237265E+01 
    6.8640204706682724E+00 
    1.2574486537919050E+01 
    1.0587381823432443E+01 
    6.1914922219035091E+00 
    9.2551198801588850E+00 
    1.2437267540950577E+01 
    1.4222553219084432E+01 
    1.0184877272776024E+01 
    1.4331297882961000E+01 
    1.4100211477230573E+01 
    1.4049046695432956E+01 
    1.0015842601472173E+01 
    8.8613888622539463E+00 
    1.3901092604199132E+01 
    8.9883080117211929E+00 
    1.0272678662790442E+01 
    8.8314236800189949E+00 
    1.0137914048520683E+01 
    1.4271707826104127E+01 
    6.3896253684990070E+00 
    9.1743382948627570E+00 
    1.4835935917077252E+01 
    1.0027860574543073E+01 
    1.1247827584180170E+01 
    6.5555252451697443E+00 
    9.0420448130729643E+00 
    1.4079129305654831E+01 
    1.4385961773614598E+01 
    5.3729061850612005E+00 
    1.0034484432899061E+01 
    8.8768152723225349E+00 
    1.5634769428736307E+01 
    1.5106139713775935E+01 
    1.5887638351309773E+01 
    1.0055176659412284E+01 
    1.4243249558103351E+01 
    1.3845056852806511E+01 
    9.9252110858824629E+00 
    1.3893319326606495E+01 
    1.0530394219889130E+01 
    6.2769029859468422E+00 
    1.0307097041571266E+01 
    1.4822420207717142E+01 
    1.3890169966910440E+01 
    6.9430673164837673E+00 
    1.3919032545935375E+01 
    1.1272101476690617E+01 
    1.0253182691486479E+01 
    9.8180223018326380E+00 
    1.3759870361703260E+01 
    1.0743640642687376E+01 
    1.3906137355424438E+01 
    9.9667140781933945E+00 
    6.4722128957656331E+00 
    1.0344989512068931E+01 
    8.7317748513631219E+00 
    1.2741102056418466E+01 
    1.5018184453974037E+01 
    1.3899425443133643E+01 
    1.4895393149292298E+01 
    9.9743930609016118E+00 
    6.7725514038530488E+00 
    6.8584098659792287E+00 
    1.0428471924105329E+01 
    1.0248167967065305E+01 
    1.5590994836334753E+00 
    1.3409636204948431E+01 
    1.5373336576224572E+01 
    9.6963076676307853E+00 
    6.4898027631794122E+00 
    1.1720789187180939E+01 
    1.3917594061967341E+01 
    7.5467279341939921E+00 
    5.2207474884317291E+00 
    1.0225599526747395E+01 
    1.3997037101756625E+01 
    1.4641367304234006E+01 
    1.4537148872381104E+01 
    1.4387924743034574E+01 
    7.4060798042281455E+00 
    1.0245946797423448E+01 
    1.3450982469215448E+01 
    8.0218568760058311E+00 
    1.4216344033932724E+01 
    1.2090482407126512E+01 
    6.9514910070045000E+00 
    1.4023487819080643E+01 
    1.4921309802242259E+01 
    1.4052591302398994E+01 
    7.2893552690947381E+00 
    1.0298367245365434E+01 
    7.9474368396242951E+00 
    9.7176830717326634E+00 
    1.3909244845261238E+01 
    1.3897732893923783E+01 
    7.3292254767519038E+00 
    1.4780193449639466E+01 
    1.0839101165887552E+01 
    1.3930534850350844E+01 
    1.4759941603967979E+01 
    1.3918157201250377E+01 
    1.2973030771858625E+01 
    1.5687077551147487E+01 
    9.6584939819758215E+00 
    1.4865207928492039E+01 
    1.3957629810768820E+01 
    1.4936649124445173E+01 
    1.4772724878498751E+01 
    9.7493184420507308E+00 
    1.0123064671474072E+01 
    9.6872696100334075E+00 
    1.2483839818146166E+01 
    4.2799687632589070E+00 
    1.0367984156400546E+01 
    1.5809618343740667E+01 
    1.0529624331563074E+01 
    1.0716039656118316E+01 
    1.4909847383445110E+01 
    1.5140592363167206E+01 
    9.6007712985043874E+00 
    1.3923282258990907E+01 
    1.3894252260276387E+01 
    1.0703710705087270E+01 
    1.4727755474702803E+01 
    7.3021822115399324E+00 
    4.6945819854734907E+00 
    1.0983060867224816E+01 
    1.0544628830780471E+01 
    1.3899460825145047E+01 
    6.8977866813492472E+00 
    1.4453656397122412E+01 
    4.7916655456333475E+00 
    1.0477322457068654E+01 
    9.7912060337716795E+00 
    1.0274871947253942E+01 
    1.7070180661724532E+01 
    4.1611007645005769E+00 
    1.0288148328972392E+01 
    1.2224055706099270E+01 
    9.8767271985470071E+00 
    8.0455490458482153E+00 
    1.4561213313654020E+01 
    1.6650950984020167E+01 
    1.4715091968990285E+01 
    1.0231700906873558E+01 
    6.1483190686322624E+00 
    1.6501832428618215E+01 
    1.4186266552191666E+01 
    7.7135047700972859E+00 
    9.8808774171812548E+00 
    1.5317481498682657E+01 
    3.5315506923043820E+00 
    1.0594069300925483E+01 
    1.4696685842511927E+01 
    1.0288436311018017E+01 
    8.9583986096367418E+00 
    1.0326539680231575E+01 
    1.3671117708457228E+01 
    1.0269569520842037E+01 
    5.4927937496703807E+00 
    1.0029881142348540E+00 
    7.6623987941832201E+00 
    1.5530331365508653E+01 
    9.6855019780777383E+00 
    1.1527371306312762E+01 
    1.1041140906313778E+01 
    1.2732950976501892E+01 
    1.0301916386433447E+01 
    1.4096797313604490E+01 
    1.7083993936859269E+01 
    1.2168614899865798E+01 
    1.4837727350165123E+01 
    5.8445369444755080E-01 
    1.3899639348303895E+01 
    6.0626838650249120E+00 
    1.5973519131426089E+01 
    1.0301298740892312E+01 
    9.1099363976907881E+00 
    8.0907893724636057E+00 
    5.7261675295087233E+00 
    1.1490617428101963E+01 
    8.1121825698446877E+00 
    1.2636959120569985E+01 
    2.3364201794640072E+00 
    1.1306838517833798E+01 
    1.3832809199146485E+01 
    6.2260367998040493E+00 
    1.4378746215413603E+01 
    1.5791019044732925E+01 
    1.4212700726675360E+01 
    1.0174078191794464E+01 
    1.0269511025007402E+01 
    1.0294257968368605E+01 
    6.2037671552162514E+00 
    9.4369422553025135E+00 
    9.2946575687857607E+00 
    1.0283700195198410E+01 
    9.6262435359617022E+00 
    7.5167381823813606E-01 
    6.9134689268073695E+00 
    9.9937197615999676E+00 
    1.0260010181592438E+01 
    1.2978223244697553E+01 
    2.3134906784367217E+00 
    1.0663715139609444E+01 
    1.0549076563674177E+01 
    3.9992856048724494E+00 
    1.4080811705712676E+01 
    9.0039467693886746E+00 
    1.0405598884090956E+01 
    1.4187806592720847E+01 
    5.7739284366668988E+00 
    1.4196895561927938E+01 
    9.1069244307216639E+00 
    1.0542643410744585E+00 
    9.7432191597209101E+00 
    1.4792065767225493E+01 
    1.3899817102222771E+01 
    1.3918978652953680E+01 
    1.0626889888800322E+01 
    1.0480222852675505E+01 
    8.9852876412534766E+00 
    7.4288015074737341E+00 
    1.4305967268341185E+01 
    9.8779671191681668E+00 
    7.2228472839956579E+00 
    1.3913864489129086E+01 
    1.4603302955044281E+01 
    1.0449901168350927E+01 
    1.0075595234527398E+01 
    1.6967610319493115E+01 
    1.0704582903057570E+01 
    1.4312578488764517E+01 
    8.5833134221902974E+00 
    1.7111943024189461E+01 
    6.8169947652541536E+00 
    9.3631313885410936E+00 
    7.6052744421245411E+00 
    1.0933187055514079E+01 
    8.7319240290758326E+00 
    1.7095882703474146E+01 
    1.0752118571554682E+01 
    1.3610741431535407E+01 
    7.0102550276508913E+00 
    1.0298186049670896E+01 
    1.4150932488398263E+01 
    8.7450339156557941E+00 
    7.6838387739785672E+00 
    1.1384656924129345E+01 
    1.4373241865767566E+01 
    7.5092443681821912E+00 
    9.8101146479098151E+00 
    1.0106795437047502E+01 
    1.3875627583279639E+01 
    9.9021088559216679E+00 
    1.4349541059580735E+01 
    1.4965224394187890E+01 
    9.0100328966312020E+00 
    8.8505578984536104E+00 
    8.1426549850842100E+00 
    1.4019689570793087E+01 
    1.0565553162224091E+01 
    1.6686865025350546E+01 
    1.3124116482252845E+01 
    1.4112465947480867E+01 
    1.6379147942444078E+01 
    1.5793456450641699E+01 
    1.0344890124979422E+01 
    1.0269336397157801E+01 
    1.3663052799560271E+01 
    1.3936818566062687E+01 
    1.4486404383461863E+01 
    1.4209066029304656E+01 
    1.6987796090101163E+01 
    1.0704121634876044E+01 
    9.1052883830459894E+00 
    1.0711944141334500E+01 
    1.4879458600342785E+01 
    1.0442591632131180E+01 
    6.1426842540358155E+00 
    1.0158907914839892E+01 
    1.5291638782961433E+01 
    1.0584702697989881E+01 
    9.1100420737319876E+00 
    1.0046977466522662E+01 
    1.5395997071281741E+01 
    1.3952858861768446E+01 
    8.7122571705146434E+00 
    1.5530851826737569E+01 
    1.0374104707217942E+01 
    1.4454446415500115E+01 
    1.5409664383047653E+01 
    1.0863460939949897E+01 
    5.7889576997148398E+00 
    1.1329248985743734E+01 
    5.9799880594870709E+00 
    1.0498028803638489E+01 
    1.0290538810113441E+01 
    1.1924947473110471E+01 
    6.2913456990617327E+00 
    1.2645521151869476E+01 
    1.0310281986924545E+01 
    1.4197837707932040E+01 
    1.0901094654006114E+01 
    8.5437841966122789E+00 
    9.9186562192746131E+00 
    1.0775925986429785E+01 
    1.0807413785239783E+01 
    1.5024204168657617E+01 
    8.7424737343196011E+00 
    8.6038979509366076E+00 
    6.5846971006354975E+00 
    1.4505269512425640E+01 
    9.9610963738893599E+00 
    1.3754050126593576E+01 
    1.0260561835044186E+01 
    7.1457656610076929E+00 
    1.3987681586724332E+01 
    1.0235814440273398E+01 
    7.7329234447489146E+00 
    8.1498167727287587E+00 
    8.4112858615902226E+00 
    1.4232074560092350E+01 
    1.0285595021769010E+01 
    1.4848888795875627E+01 
    1.0194175586333376E+01 
    1.0131559868370989E+01 
    9.7330951965334780E+00 
    1.4069566813309319E+01 
    1.0047082871449387E+01 
    8.4503918070501722E+00 
    1.5780311606990912E+01 
    1.4151588056112059E+01 
    7.1369013725717600E+00 
    2.9262720054365796E+00 
    1.0275413937399279E+01 
    9.6396769365720392E+00 
    8.8474230890116008E+00 
    9.5491216690379517E+00 
    1.4099664948097601E+01 
    1.0000580448441251E+01 
    9.1524004018562302E+00 
    1.3958791554464746E+01 
    7.0756275480384945E+00 
    1.3625270406266225E+01 
    9.3065447837663893E+00 
    8.4181721287101077E+00 
    8.9219980728289521E+00 
    1.4538440294004307E+01 
    1.0277819583646640E+01 
    1.0285984321320559E+01 
    6.3663084936616494E+00 
    6.8334519222060335E+00 
    1.2967466621311823E+01 
    1.0295871323506439E+01 
    1.0313804438458567E+01 
    1.5515297915046997E+01 
    8.6005516166526608E+00 
    1.0308283422904513E+01 
    7.3183536398051547E+00 
    7.5517818065991351E+00 
    1.4068161542174412E+01 
    9.9320968659259883E+00 
    7.4696404985704650E+00 
    1.0860062686188021E+01 
    1.0182165820589271E+01 
    1.4069388217255126E+01 
    1.5605986057661157E+01 
    1.1186669532409514E+00 
    1.0280065403333277E+01 
    1.0542586523872977E+01 
    1.4129424488255328E+01 
    9.8096616366407687E+00 
    1.0251311948889052E+01 
    1.5086761844990658E+01 
    8.9515759457813822E+00 
    7.5308585659453193E+00 
    1.2354325526839368E+01 
    1.3913388315840589E+01 
    1.4936554290754261E+01 
    1.5193788464888662E+01 
    1.0130759724379537E+01 
    1.0272185887405215E+01 
    1.1557901913673687E+01 
    6.7989479153776218E+00 
    1.4038885398426032E+01 
    8.0634352277746260E+00 
    7.0654663525128196E+00 
    1.2844092694400841E+01 
    1.2120373531958077E+01 
    6.9335997365751325E+00 
    1.3949320732915989E+01 
    1.4922016052223276E+01 
    1.0719752671403709E+01 
    1.5705019730467431E+01 
    1.3982484670743338E+01 
    9.8770161198808726E+00 
    1.4660922409210002E+01 
    7.5526073524554711E+00 
    1.3931359462828784E+01 
    1.0279148397544725E+01 
    1.0241658287291175E+01 
    1.5681288496809909E+01 
    9.9961452553553229E+00 
    1.2589836240224747E+01 
    8.9030852714464874E+00 
    1.5037580359909734E+01 
    1.3839339402352897E+01 
    9.2532840202674809E+00 
    1.3889537948508821E+01 
    9.2983767949127998E+00 
    1.0260505442994548E+01 
    1.4881729096439088E+01 
    1.4211622058047535E+01 
    1.4925321925245948E+01 
    1.4133639806494154E+01 
    9.4471543126709250E+00 
    9.6519868007287446E+00 
    1.4931831402956266E+01 
    9.7678563308935225E+00 
    1.3768441671376001E+01 
    9.9836054929903106E+00 
    4.3217119609344063E+00 
    7.1320270298262063E+00 
    6.6160107350016020E+00 
    1.4885036052605097E+01 
    1.5611885530767811E+01 
    1.3907498768091260E+01 
    1.1822525801892963E+01 
    1.4197357160168723E+01 
    1.3955807184270173E+01 
    1.4535881021260897E+01 
    6.1669914478317036E+00 
    4.0222495130657236E+00 
    1.1611255719166577E+01 
    9.9582928538425257E+00 
    1.4101511043953796E+01 
    1.4099169817976094E+01 
    1.0568911171560964E+01 
    1.4135732768025802E+01 
    1.0266831184950227E+01 
    1.0176240609993123E+01 
    5.5848937512653984E+00 
    4.0058774140639120E+00 
    1.5391240695013986E+01 
    8.0223276778802255E+00 
    9.1893965049875916E+00 
    1.0456088814713063E+01 
    1.6968864488929896E+01 
    1.0551992481838221E+01 
    1.0554310737549226E+01 
    4.5494281352245940E+00 
    1.0553638777490002E+01 
    1.0568348761826785E+01 
    1.4419812328880312E+01 
    8.9283382115228687E+00 
    9.8309251317573896E+00 
    1.5557465810857632E+01 
    1.0287942447137409E+01 
    1.3923409039215501E+01 
    1.4171737508975525E+01 
    1.2587715760878465E+01 
    8.7242363829474279E+00 
    1.4134440434244029E+01 
    1.0090916337674704E+01 
    1.4097675535272426E+01 
    1.3862165836519237E+01 
    1.4904266470159595E+01 
    1.4128460881669078E+01 
    1.3263080011865789E+01 
    1.0277358860432232E+01 
    6.8750146140718709E+00 
    1.6845263846576966E+01 
    8.2181669972739151E+00 
    1.4826350964791253E+01 
    1.0274881108760837E+01 
    8.6500118327699109E+00 
    5.2684236849676749E+00 
    1.0606598020270216E+01 
    1.4119574379874356E+01 
    1.4118961754897279E+01 
    1.0241076356878933E+01 
    1.0269304734717617E+01 
    1.5761584501799469E+01 
    1.5137838545741769E+01 
    1.0570454959146433E+01 
    3.7385041230645544E+00 
    1.3212923545187437E+01 
    1.7093886403329844E+01 
    1.0280533829422396E+01 
    1.2193579542441011E+01 
    9.8073685525290877E+00 
    1.6706613192753728E+01 
    1.5217968631404583E+01 
    1.4980328684692861E+01 
    1.0592127435073238E+01 
    4.8678439646539733E+00 
    9.7686978127547501E+00 
    9.8304645468074128E+00 
    9.8722736741237007E+00 
    4.0670521605841019E+00 