# vtk DataFile Version 2.0
Pressure Field Data 
ASCII 
DATASET UNSTRUCTURED_GRID 

POINTS 2860 double 

    0.0000000000000000E+00     0.0000000000000000E+00     0.0000000000000000E+00 
    1.0000000000000000E+00     0.0000000000000000E+00     0.0000000000000000E+00 
    1.0000000000000000E+00     1.0000000000000000E+00     0.0000000000000000E+00 
    0.0000000000000000E+00     1.0000000000000000E+00     0.0000000000000000E+00 
    2.5000000000000000E-01     2.5000000000000000E-01     0.0000000000000000E+00 
    7.5000000000000000E-01     2.5000000000000000E-01     0.0000000000000000E+00 
    7.5000000000000000E-01     7.5000000000000000E-01     0.0000000000000000E+00 
    2.5000000000000000E-01     7.5000000000000000E-01     0.0000000000000000E+00 
    3.1249999999942091E-02     0.0000000000000000E+00     0.0000000000000000E+00 
    6.2499999999873469E-02     0.0000000000000000E+00     0.0000000000000000E+00 
    9.3749999999826514E-02     0.0000000000000000E+00     0.0000000000000000E+00 
    1.2499999999977961E-01     0.0000000000000000E+00     0.0000000000000000E+00 
    1.5624999999968961E-01     0.0000000000000000E+00     0.0000000000000000E+00 
    1.8749999999959971E-01     0.0000000000000000E+00     0.0000000000000000E+00 
    2.1874999999950970E-01     0.0000000000000000E+00     0.0000000000000000E+00 
    2.4999999999941969E-01     0.0000000000000000E+00     0.0000000000000000E+00 
    2.8124999999932920E-01     0.0000000000000000E+00     0.0000000000000000E+00 
    3.1249999999923850E-01     0.0000000000000000E+00     0.0000000000000000E+00 
    3.4374999999914790E-01     0.0000000000000000E+00     0.0000000000000000E+00 
    3.7499999999905720E-01     0.0000000000000000E+00     0.0000000000000000E+00 
    4.0624999999896660E-01     0.0000000000000000E+00     0.0000000000000000E+00 
    4.3749999999887590E-01     0.0000000000000000E+00     0.0000000000000000E+00 
    4.6874999999878530E-01     0.0000000000000000E+00     0.0000000000000000E+00 
    4.9999999999869471E-01     0.0000000000000000E+00     0.0000000000000000E+00 
    5.3124999999877620E-01     0.0000000000000000E+00     0.0000000000000000E+00 
    5.6249999999885780E-01     0.0000000000000000E+00     0.0000000000000000E+00 
    5.9374999999893940E-01     0.0000000000000000E+00     0.0000000000000000E+00 
    6.2499999999902101E-01     0.0000000000000000E+00     0.0000000000000000E+00 
    6.5624999999910261E-01     0.0000000000000000E+00     0.0000000000000000E+00 
    6.8749999999918421E-01     0.0000000000000000E+00     0.0000000000000000E+00 
    7.1874999999926570E-01     0.0000000000000000E+00     0.0000000000000000E+00 
    7.4999999999934730E-01     0.0000000000000000E+00     0.0000000000000000E+00 
    7.8124999999942890E-01     0.0000000000000000E+00     0.0000000000000000E+00 
    8.1249999999951039E-01     0.0000000000000000E+00     0.0000000000000000E+00 
    8.4374999999959199E-01     0.0000000000000000E+00     0.0000000000000000E+00 
    8.7499999999967359E-01     0.0000000000000000E+00     0.0000000000000000E+00 
    9.0624999999975520E-01     0.0000000000000000E+00     0.0000000000000000E+00 
    9.3749999999983680E-01     0.0000000000000000E+00     0.0000000000000000E+00 
    9.6874999999991840E-01     0.0000000000000000E+00     0.0000000000000000E+00 
    1.0000000000000000E+00     3.1249999999942091E-02     0.0000000000000000E+00 
    1.0000000000000000E+00     6.2499999999873469E-02     0.0000000000000000E+00 
    1.0000000000000000E+00     9.3749999999826514E-02     0.0000000000000000E+00 
    1.0000000000000000E+00     1.2499999999977961E-01     0.0000000000000000E+00 
    1.0000000000000000E+00     1.5624999999968961E-01     0.0000000000000000E+00 
    1.0000000000000000E+00     1.8749999999959971E-01     0.0000000000000000E+00 
    1.0000000000000000E+00     2.1874999999950970E-01     0.0000000000000000E+00 
    1.0000000000000000E+00     2.4999999999941969E-01     0.0000000000000000E+00 
    1.0000000000000000E+00     2.8124999999932920E-01     0.0000000000000000E+00 
    1.0000000000000000E+00     3.1249999999923850E-01     0.0000000000000000E+00 
    1.0000000000000000E+00     3.4374999999914790E-01     0.0000000000000000E+00 
    1.0000000000000000E+00     3.7499999999905720E-01     0.0000000000000000E+00 
    1.0000000000000000E+00     4.0624999999896660E-01     0.0000000000000000E+00 
    1.0000000000000000E+00     4.3749999999887590E-01     0.0000000000000000E+00 
    1.0000000000000000E+00     4.6874999999878530E-01     0.0000000000000000E+00 
    1.0000000000000000E+00     4.9999999999869471E-01     0.0000000000000000E+00 
    1.0000000000000000E+00     5.3124999999877620E-01     0.0000000000000000E+00 
    1.0000000000000000E+00     5.6249999999885780E-01     0.0000000000000000E+00 
    1.0000000000000000E+00     5.9374999999893940E-01     0.0000000000000000E+00 
    1.0000000000000000E+00     6.2499999999902101E-01     0.0000000000000000E+00 
    1.0000000000000000E+00     6.5624999999910261E-01     0.0000000000000000E+00 
    1.0000000000000000E+00     6.8749999999918421E-01     0.0000000000000000E+00 
    1.0000000000000000E+00     7.1874999999926570E-01     0.0000000000000000E+00 
    1.0000000000000000E+00     7.4999999999934730E-01     0.0000000000000000E+00 
    1.0000000000000000E+00     7.8124999999942890E-01     0.0000000000000000E+00 
    1.0000000000000000E+00     8.1249999999951039E-01     0.0000000000000000E+00 
    1.0000000000000000E+00     8.4374999999959199E-01     0.0000000000000000E+00 
    1.0000000000000000E+00     8.7499999999967359E-01     0.0000000000000000E+00 
    1.0000000000000000E+00     9.0624999999975520E-01     0.0000000000000000E+00 
    1.0000000000000000E+00     9.3749999999983680E-01     0.0000000000000000E+00 
    1.0000000000000000E+00     9.6874999999991840E-01     0.0000000000000000E+00 
    9.6875000000003686E-01     1.0000000000000000E+00     0.0000000000000000E+00 
    9.3750000000011691E-01     1.0000000000000000E+00     0.0000000000000000E+00 
    9.0625000000015765E-01     1.0000000000000000E+00     0.0000000000000000E+00 
    8.7500000000017863E-01     1.0000000000000000E+00     0.0000000000000000E+00 
    8.4375000000028044E-01     1.0000000000000000E+00     0.0000000000000000E+00 
    8.1250000000040856E-01     1.0000000000000000E+00     0.0000000000000000E+00 
    7.8125000000054956E-01     1.0000000000000000E+00     0.0000000000000000E+00 
    7.5000000000066480E-01     1.0000000000000000E+00     0.0000000000000000E+00 
    7.1875000000086831E-01     1.0000000000000000E+00     0.0000000000000000E+00 
    6.8750000000102829E-01     1.0000000000000000E+00     0.0000000000000000E+00 
    6.5625000000114431E-01     1.0000000000000000E+00     0.0000000000000000E+00 
    6.2500000000129829E-01     1.0000000000000000E+00     0.0000000000000000E+00 
    5.9375000000147926E-01     1.0000000000000000E+00     0.0000000000000000E+00 
    5.6250000000168354E-01     1.0000000000000000E+00     0.0000000000000000E+00 
    5.3125000000188671E-01     1.0000000000000000E+00     0.0000000000000000E+00 
    5.0000000000205835E-01     1.0000000000000000E+00     0.0000000000000000E+00 
    4.6875000000192979E-01     1.0000000000000000E+00     0.0000000000000000E+00 
    4.3750000000180111E-01     1.0000000000000000E+00     0.0000000000000000E+00 
    4.0625000000167238E-01     1.0000000000000000E+00     0.0000000000000000E+00 
    3.7500000000154382E-01     1.0000000000000000E+00     0.0000000000000000E+00 
    3.4375000000141509E-01     1.0000000000000000E+00     0.0000000000000000E+00 
    3.1250000000128642E-01     1.0000000000000000E+00     0.0000000000000000E+00 
    2.8125000000115769E-01     1.0000000000000000E+00     0.0000000000000000E+00 
    2.5000000000102918E-01     1.0000000000000000E+00     0.0000000000000000E+00 
    2.1875000000090050E-01     1.0000000000000000E+00     0.0000000000000000E+00 
    1.8750000000077180E-01     1.0000000000000000E+00     0.0000000000000000E+00 
    1.5625000000064329E-01     1.0000000000000000E+00     0.0000000000000000E+00 
    1.2500000000051459E-01     1.0000000000000000E+00     0.0000000000000000E+00 
    9.3750000000385914E-02     1.0000000000000000E+00     0.0000000000000000E+00 
    6.2500000000257239E-02     1.0000000000000000E+00     0.0000000000000000E+00 
    3.1250000000128557E-02     1.0000000000000000E+00     0.0000000000000000E+00 
    0.0000000000000000E+00     9.6875000000003686E-01     0.0000000000000000E+00 
    0.0000000000000000E+00     9.3750000000011691E-01     0.0000000000000000E+00 
    0.0000000000000000E+00     9.0625000000015765E-01     0.0000000000000000E+00 
    0.0000000000000000E+00     8.7500000000017863E-01     0.0000000000000000E+00 
    0.0000000000000000E+00     8.4375000000028044E-01     0.0000000000000000E+00 
    0.0000000000000000E+00     8.1250000000040856E-01     0.0000000000000000E+00 
    0.0000000000000000E+00     7.8125000000054956E-01     0.0000000000000000E+00 
    0.0000000000000000E+00     7.5000000000066480E-01     0.0000000000000000E+00 
    0.0000000000000000E+00     7.1875000000086831E-01     0.0000000000000000E+00 
    0.0000000000000000E+00     6.8750000000102829E-01     0.0000000000000000E+00 
    0.0000000000000000E+00     6.5625000000114431E-01     0.0000000000000000E+00 
    0.0000000000000000E+00     6.2500000000129829E-01     0.0000000000000000E+00 
    0.0000000000000000E+00     5.9375000000147926E-01     0.0000000000000000E+00 
    0.0000000000000000E+00     5.6250000000168354E-01     0.0000000000000000E+00 
    0.0000000000000000E+00     5.3125000000188671E-01     0.0000000000000000E+00 
    0.0000000000000000E+00     5.0000000000205835E-01     0.0000000000000000E+00 
    0.0000000000000000E+00     4.6875000000192979E-01     0.0000000000000000E+00 
    0.0000000000000000E+00     4.3750000000180111E-01     0.0000000000000000E+00 
    0.0000000000000000E+00     4.0625000000167238E-01     0.0000000000000000E+00 
[...]
CELL_DATA 2795 
SCALARS Pressure double 1 
LOOKUP_TABLE default 

    5.8627787845606960E+00 
    1.3011739329835974E+01 
    9.1673426282605224E+00 
    8.8131186541538042E+00 
    7.1174509093996381E+00 
    1.2886416887147179E+01 
    1.3556567623245588E+01 
    5.2635892934990292E+00 
    9.7049462628661196E+00 
    7.3717082229209394E+00 
    6.2675164316767935E+00 
    1.2654302358737304E+01 
    1.2939161121482151E+01 
    1.2858679151565433E+01 
    8.4231509038322088E+00 
    5.1753535948814253E+00 
    8.1568162707130760E+00 
    6.6788986489960767E+00 
    1.2325255549055099E+01 
    9.1576111347540845E+00 
    9.0484010569881193E+00 
    1.2798735422893682E+01 
    8.5790253984281257E+00 
    3.4146339600771275E-01 
    1.2668543238872276E+01 
    1.2898904301620005E+01 
    1.3586254895830560E+01 
    6.0144653533188590E+00 
    1.2581973080097468E+01 
    1.3575321984966982E+01 
    9.2395777399640160E+00 
    9.3866507195725770E+00 
    6.4389986910586563E+00 
    9.1278306120215458E+00 
    3.0070319722863346E+00 
    8.1580160914301079E+00 
    9.1175814508962336E+00 
    1.3612024503248595E+01 
    1.3535923616265775E+01 
    1.2666247600774286E+01 
    7.0645608420271833E+00 
    1.2636042154559538E+01 
    7.1535469334272495E-01 
    9.0409041041881757E+00 
    1.3393129424350946E+01 
    1.3219152087933963E+01 
    1.2644521722709992E+01 
    1.0020222167530903E+01 
    1.2709814430979161E+01 
    8.3349582954835508E+00 
    7.9635444256734207E+00 
    9.3546013287638381E+00 
    8.9325381563360189E+00 
    8.2052158855234865E+00 
    9.3079428545594070E+00 
    1.2135116187960300E+01 
    1.0928616878584817E+01 
    7.1539354619048190E+00 
    1.2802797013772695E+01 
    1.2733890334054999E+01 
    8.8338345523270885E+00 
    8.8027761785302463E+00 
    8.7273528156750899E+00 
    1.3485714754471079E+01 
    1.3744006420375877E+01 
    8.1684494975122117E+00 
    9.3524020361925526E+00 
    1.2566881703007496E+01 
    1.0745006358869368E+01 
    8.8375608603438387E+00 
    1.3734392392196526E+01 
    1.2764220117683285E+01 
    8.0589863390258518E+00 
    1.3305311353814652E+01 
    9.5268768257616916E+00 
    1.2526450609639175E+01 
    1.3628710220368767E+01 
    9.5157708769795502E+00 
    5.9381389580738091E+00 
    9.3704665702927610E+00 
    1.3543486731691360E+01 
    1.3756214352954199E+01 
    8.1788828909905753E+00 
    9.2822419344425171E+00 
    1.3799038062759365E+01 
    9.1210879196448431E+00 
    8.6540358394919270E+00 
    1.1121916064361335E+01 
    5.6982863384031575E+00 
    7.9869993720062524E+00 
    9.2820755481243911E+00 
    9.8359049452882132E+00 
    1.5171373973995919E+01 
    6.9266823364595442E+00 
    9.3601512452025801E+00 
    1.2624776864943184E+01 
    1.2894215864895843E+01 
    6.1420122849048573E+00 
    8.9924667128578673E+00 
    9.3127253957077034E+00 
    1.2912899112690932E+01 
    9.3155077079131026E+00 
    1.2849974843441105E+01 
    3.7390524693010221E+00 
    6.0905283838139752E+00 
    9.5710874910122250E+00 
    1.3018205530167945E+01 
    8.1272375730774602E+00 
    8.6450873127089629E+00 
    9.3020386758266920E+00 
    8.6291186022715323E+00 
    1.0577044413845172E+01 
    8.4169617142825768E+00 
    8.0642562193900087E+00 
    6.4481093947123886E+00 
    1.0886687315229535E+01 
    9.3877780903831578E+00 
    1.3407288905488786E+01 
    8.0237605323595123E+00 
    8.7999648198446199E+00 
    1.2750004462746922E+01 
    7.4351749758170840E+00 
    1.3167005774427169E+01 
    9.2013543119474797E+00 
    8.7366147386566251E+00 
    1.2895658491271160E+01 
    9.3831982768064979E+00 
    1.3634672007791623E+01 
    1.1134625581184851E+01 
    1.1996423975513084E+01 
    1.3601890653383027E+01 
    6.9395223084707878E+00 
    9.5913096099281407E+00 
    1.2888348961835739E+01 
    2.7920995080635267E+00 
    9.2872993389365597E+00 
    1.3570871390574478E+01 
    8.7647287179606135E+00 
    1.0109862591320487E+01 
    6.0904146374451926E+00 
    1.2623964117037945E+01 
    1.5635018312415056E+01 
    1.1557953692780705E+01 
    8.7610364201847908E+00 
    7.8976287398883054E+00 
    9.9065708918340505E+00 
    9.2189869180081789E+00 
    6.3297089482724997E+00 
    1.3596316247317644E+01 
    1.2968042099251386E+01 
    1.2626419744463934E+01 
    9.8360219856065640E+00 
    8.0381580985303867E+00 
    9.0469815440217154E+00 
    1.3327801975174555E+01 
    8.2412661375597871E+00 
    9.1870184675264372E+00 
    8.3785361550481490E+00 
    1.0655308529106289E+01 
    1.5623784158079046E+01 
    1.2618395187617139E+01 
    8.0075255390859628E+00 
    1.3071836155503290E+01 
    1.2981196436178932E+01 
    1.3054419603994958E+01 
    1.3982906897225403E+01 
    1.4490807287200337E+01 
    1.3213322340472814E+01 
    9.3439519140352552E+00 
    9.9974511433841702E+00 
    1.3051789623380740E+01 
    1.3419253713296600E+01 
    6.5934118938127071E+00 
    1.2643977097164612E+01 
    1.3291223832380277E+01 
    6.4340003934474934E+00 
    1.3904145527453210E+01 
    1.3888826137350035E+01 
    1.2388171699715967E+01 
    9.6516613349005187E+00 
    2.4838708126391826E+00 
    1.3569846136318889E+01 
    9.5185923327185602E+00 
    1.3688741048102418E+01 
    8.7066652805245859E+00 
    1.3418738923860472E+01 
    8.7890116950087849E-01 
    1.2010155836911082E+01 
    8.8445747502023320E+00 
    8.0034236913441088E+00 
    7.8109332177561299E+00 
    9.1705993046750383E+00 
    1.0249569510800791E+01 
    9.5383993592664584E+00 
    6.5183418108879083E+00 
    1.3412350124527169E+01 
    1.2908034678681156E+01 
    1.0857989025056993E+01 
    9.5651396652868730E+00 
    1.4164626733861561E+00 
    7.2431180316576542E+00 
    5.0871601665788297E+00 
    1.3587170206951555E+01 
    1.0358964486559781E+01 
    1.2955740470734469E+01 
    1.2970976857713312E+01 
    8.3195109292836165E+00 
    1.0899284412139991E+01 
    1.2621624718049517E+01 
    1.3875384942208642E+01 
    6.0770274328370757E+00 
    1.1401451320263329E+01 
    9.5834840814078284E+00 
    5.4311147308647163E+00 
    8.3021984663170603E+00 
    1.1415560034495034E+01 
    1.2934350285300383E+01 
    9.2273239024850930E+00 
    1.3035286339363424E+01 
    1.2821354654613836E+01 
    1.2773973294917079E+01 
    9.0536365977228428E+00 
    7.9472391669245175E+00 
    1.2634151062625872E+01 
    8.0550914846149624E+00 
    9.3198643709978324E+00 
    7.9096227879388703E+00 
    9.1300035281781344E+00 
    1.2980614024707380E+01 
    5.7442260731540999E+00 
    8.2279402247533771E+00 
    1.3508841150239082E+01 
    9.0674840788927860E+00 
    1.0258562285303157E+01 
    5.8942295014688710E+00 
    8.1050074023299015E+00 
    1.2801925887572043E+01 
    1.3086222948825487E+01 
    4.8271897760991465E+00 
    9.0710919499810831E+00 
    7.9495425733684142E+00 
    1.4270853668142978E+01 
    1.3765615571335962E+01 
    1.4515431283000487E+01 
    9.0921369854177705E+00 
    1.2953716759509582E+01 
    1.2582182417871602E+01 
    8.9684477079903644E+00 
    1.2626499288496877E+01 
    9.5675666196059819E+00 
    5.4717948358465831E+00 
    9.3289111280091248E+00 
    1.3496769980827562E+01 
    1.2623530794409056E+01 
    6.2290262137823120E+00 
    1.2650351807787846E+01 
    1.0263279473928490E+01 
    9.2705832711274727E+00 
    8.8360554540133904E+00 
    1.2502071676052875E+01 
    9.7544040366713265E+00 
    1.2638726992260445E+01 
    8.9809299304977124E+00 
    5.6130020169049128E+00 
    9.3891852180935409E+00 
    7.8175828244223613E+00 
    1.1562835824881482E+01 
    1.3680846122348617E+01 
    1.2632902332768285E+01 
    1.3564227026700102E+01 
    9.0166195814447860E+00 
    6.0790953404304995E+00 
    6.1626600688799309E+00 
    9.4428293744477756E+00 
    9.2962741796546666E+00 
    1.3642556760584597E+00 
    1.2179066949187170E+01 
    1.4015012564876782E+01 
    8.7154537383586561E+00 
    5.7272027121608922E+00 
    1.0607683575564323E+01 
    1.2648975218486088E+01 
    6.7246248312297636E+00 
    4.5836202686956780E+00 
    9.2699954205698862E+00 
    1.2730420842643404E+01 
    1.3325963512560195E+01 
    1.3222701451008714E+01 
    1.3087813406600795E+01 
    6.5810256406262022E+00 
    9.2621981900656909E+00 
    1.2216977597206620E+01 
    7.2360686282680406E+00 
    1.2927085558876119E+01 
    1.1127530134868659E+01 
    6.2488796671882882E+00 
    1.2748400839834371E+01 
    1.3593146343353611E+01 
    1.2778111104309076E+01 
    6.4909532095051556E+00 
    9.3484362903727725E+00 
    7.0965383473379084E+00 
    8.8073190376945814E+00 
    1.2641247949309246E+01 
    1.2630567522514545E+01 
    6.5270756771277565E+00 
    1.3454178266076864E+01 
    9.8571752774073431E+00 
    1.2664120932139012E+01 
    1.3435045747756632E+01 
    1.2651349071437464E+01 
    1.1781105761805387E+01 
    1.4320136517011717E+01 
    8.6851929102690200E+00 
    1.3535920912192564E+01 
    1.2690359661588284E+01 
    1.3603293473372000E+01 
    1.3447324840947180E+01 
    8.7707078401663026E+00 
    9.1594533347384939E+00 
    8.7061958790545315E+00 
    1.1329976984169681E+01 
    3.7481460848355597E+00 
    9.3832078661408644E+00 
    1.4439288214644421E+01 
    9.5670993164490632E+00 
    9.7417451217919560E+00 
    1.3577843434856842E+01 
    1.3798344238253172E+01 
    8.6454780371526567E+00 
    1.2654263470123963E+01 
    1.2627595720211280E+01 
    9.7301838703678882E+00 
    1.3404757336824980E+01 
    6.5680240058341397E+00 
    4.2221841870381942E+00 
    9.9922811748645923E+00 
    9.5806336158000267E+00 
    1.2632198878536865E+01 
    6.1272662225179984E+00 
    1.3143693310715694E+01 
    4.3051221201750467E+00 
    9.5183768162756799E+00 
    8.8273116254669439E+00 
    9.3237181809456207E+00 
    1.5672797481806194E+01 
    3.6426001555306646E+00 
    9.3044876715932556E+00 
    1.1077716101267598E+01 
    8.9237296273475799E+00 
    7.1571899053851524E+00 
    1.3250376289216799E+01 
    1.5259015746636440E+01 
    1.3391332594671791E+01 
    9.2499374905590983E+00 
    5.4120374776075177E+00 
    1.5114962032887963E+01 
    1.2901218134332380E+01 
    6.7699087725210489E+00 
    8.8894035109508778E+00 
    1.3966999759128246E+01 
    3.0880878783411858E+00 
    9.6273930005701018E+00 
    1.3374250286600670E+01 
    9.3375191405400617E+00 
    8.1035484254942372E+00 
    9.3423269371941036E+00 
    1.2431101649726745E+01 
    9.3167986313616797E+00 
    4.8354540790657747E+00 
    8.6659110596098510E-01 
    6.8969047379160067E+00 
    1.4169085496427334E+01 
    8.7042801497716145E+00 
    1.0549988006097953E+01 
    1.0047014920883727E+01 
    1.1654009628490025E+01 
    9.3511944136390976E+00 
    1.2818217539094347E+01 
    1.5686447257749181E+01 
    1.1039344557004048E+01 
    1.3510055421152126E+01 
    5.0822142133209669E-01 
    1.2632300663773419E+01 
    5.2612579376243254E+00 
    1.4598867154072719E+01 
    9.3174445794986287E+00 
    8.2253631273401133E+00 
    7.2282131253451958E+00 
    5.0427185891189019E+00 
    1.0426155426841405E+01 
    7.3094011801002212E+00 
    1.1466062251573184E+01 
    2.1091964220709163E+00 
    1.0295414761005857E+01 
    1.2570407060097235E+01 
    5.5962049075511731E+00 
    1.3097788884783968E+01 
    1.4423783009269696E+01 
    1.2948376107188782E+01 
    9.1945070222184153E+00 
    9.3187184883362075E+00 
    9.3104955255592117E+00 
    5.4892442389457106E+00 
    8.4704311619095787E+00 
    8.3389713081480412E+00 
    9.3001180094360247E+00 
    8.6493491189659970E+00 
    6.4677712658614450E-01 
    6.0210147299588952E+00 
    8.9969692045910428E+00 
    9.2771998411196979E+00 
    1.1780998142631368E+01 
    2.0211417738986941E+00 
    9.6926826302463738E+00 
    9.5852492164847263E+00 
    3.4998161628622610E+00 
    1.2818889679024648E+01 
    8.0730727319149871E+00 
    9.4509278448421483E+00 
    1.2903091181918242E+01 
    5.0934333616381764E+00 
    1.2938380967778064E+01 
    8.1647620054956285E+00 
    9.1900789443422815E-01 
    8.7599208920813343E+00 
    1.3465887641685960E+01 
    1.2632683935945520E+01 
    1.2651467259511238E+01 
    9.6385593950559958E+00 
    9.5225201257681391E+00 
    8.0523546931814618E+00 
    6.5327509278719642E+00 
    1.3011701667389271E+01 
    8.8888885258323800E+00 
    6.2945132217964321E+00 
    1.2646174623063160E+01 
    1.3295467403791198E+01 
    9.4636214750349463E+00 
    9.1147887916441466E+00 
    1.5572233049743700E+01 
    9.7310019321295353E+00 
    1.3018577203788931E+01 
    7.6796266885663869E+00 
    1.5714431673456156E+01 
    6.1263259610699254E+00 
    8.4198927431992843E+00 
    6.8500232177712155E+00 
    9.9453054304223070E+00 
    7.8753963906190121E+00 
    1.5698514480312090E+01 
    9.7755713320746942E+00 
    1.2367536601161611E+01 
    6.2985920250637193E+00 
    9.3491092670550717E+00 
    1.2868181720678901E+01 
    7.8930149859404368E+00 
    6.8097711423907494E+00 
    1.0294208598694972E+01 
    1.3073176113784704E+01 
    6.7625312313940658E+00 
    8.8446062368573610E+00 
    9.1429936267612941E+00 
    1.2609953785504853E+01 
    8.9494695390753414E+00 
    1.3051869740780369E+01 
    1.3630429792335821E+01 
    8.0754312582440591E+00 
    7.9271387208804507E+00 
    7.3482943273458448E+00 
    1.2744441862119029E+01 
    9.6056512918319790E+00 
    1.5294648617981876E+01 
    1.1994731935456608E+01 
    1.2832766685292876E+01 
    1.4995266033272092E+01 
    1.4426595085731119E+01 
    9.3949573560600488E+00 
    9.2861731223165194E+00 
    1.2415241537033715E+01 
    1.2666831554534161E+01 
    1.3177188750681999E+01 
    1.2922683023951070E+01 
    1.5590955578488163E+01 
    9.7305691489079287E+00 
    8.1637672733180615E+00 
    9.7296486557060664E+00 
    1.3549212624965556E+01 
    9.4920338614953668E+00 
    5.4897029848551275E+00 
    9.1798580781908221E+00 
    1.3940424648555799E+01 
    9.6185909636187841E+00 
    8.1677163007170623E+00 
    9.0827293103140807E+00 
    1.4041049901828334E+01 
    1.2684907443413696E+01 
    7.7929491348905797E+00 
    1.4170768124920469E+01 
    9.4254959183310234E+00 
    1.3150016162232015E+01 
    1.4054498183954465E+01 
    9.8819349586973537E+00 
    5.0908026126404824E+00 
    1.0276089475486271E+01 
    5.2644414475469183E+00 
    9.5381831678261975E+00 
    9.3378813367531475E+00 
    1.0808374603377063E+01 
    5.5573505333607747E+00 
    1.1472437430190547E+01 
    9.3610139702575506E+00 
    1.2912110894171805E+01 
    9.8421259899523417E+00 
    7.6121173390941133E+00 
    8.9619278169712508E+00 
    9.7863893270321309E+00 
    9.8274895578890700E+00 
    1.3683329098067324E+01 
    7.8277168784009996E+00 
    7.6994211444993166E+00 
    5.8301210446071030E+00 
    1.3195431899594448E+01 
    9.0015199368504284E+00 
    1.2498497500977347E+01 
    9.3071316411767846E+00 
    6.3486519511030473E+00 
    1.2716486291058553E+01 
    9.2811997373918640E+00 
    6.8925067505948716E+00 
    7.2793838652902600E+00 
    7.5220226747341830E+00 
    1.2944142164693949E+01 
    9.3019684656812220E+00 
    1.3520297339279299E+01 
    9.2383905365538936E+00 
    9.1745560889681936E+00 
    8.7695630977851344E+00 
    1.2792806691388316E+01 
    9.0905730205851221E+00 
    7.5584048339544259E+00 
    1.4413547403109197E+01 
    1.2868975474440722E+01 
    6.4158925178565607E+00 
    2.5578430536744130E+00 
    9.2918793978817487E+00 
    8.7072852205402995E+00 
    7.9251160915989978E+00 
    8.5941226732506752E+00 
    1.2818309064631634E+01 
    9.0264190003069711E+00 
    8.2138497601051075E+00 
    1.2687160750240102E+01 
    6.3599279273345930E+00 
    1.2378913226059561E+01 
    8.4086727833778401E+00 
    7.5126298040156412E+00 
    7.9936342934128595E+00 
    1.3228540740669334E+01 
    9.3270870791598384E+00 
    9.3357239284666225E+00 
    5.6395460986222377E+00 
    6.0694817554213456E+00 
    1.1791863921446337E+01 
    9.3462347462421160E+00 
    9.3296941689000388E+00 
    1.4154864913154450E+01 
    7.6966176703681732E+00 
    9.3588335805787111E+00 
    6.5819211274316718E+00 
    6.7961267279459250E+00 
    1.2791037635079871E+01 
    8.9812252692287267E+00 
    6.6553276597651969E+00 
    9.8429435815992434E+00 
    9.2216806988485605E+00 
    1.2792214736013863E+01 
    1.4242833272985647E+01 
    9.8264643069240198E-01 
    9.2964277255324159E+00 
    9.5790067830724634E+00 
    1.2848492093678930E+01 
    8.8246759385413878E+00 
    9.3006589006258125E+00 
    1.3739914619600979E+01 
    8.0211261112552101E+00 
    6.7108945549937600E+00 
    1.1287004929830625E+01 
    1.2645326834832371E+01 
    1.3603499330977698E+01 
    1.3849563474494559E+01 
    9.1508101159692181E+00 
    9.2888860384570417E+00 
    1.0486659619313821E+01 
    6.0974826199880692E+00 
    1.2761612344389208E+01 
    7.2033043237147867E+00 
    6.3497257319827058E+00 
    1.1707160539634593E+01 
    1.0998117716749139E+01 
    6.2263922646504080E+00 
    1.2679201018761219E+01 
    1.3589531425799807E+01 
    9.7452260272109825E+00 
    1.4338347770884598E+01 
    1.2709104038950017E+01 
    8.8979128816443218E+00 
    1.3341787641185881E+01 
    6.7963582070666257E+00 
    1.2661750630266649E+01 
    9.2956017018405070E+00 
    9.2581133004553955E+00 
    1.4314879826082098E+01 
    9.0331417182804756E+00 
    1.1430732204478172E+01 
    7.9762161547102615E+00 
    1.3699219952991930E+01 
    1.2576209707312502E+01 
    8.3008967821651911E+00 
    1.2623606306282875E+01 
    8.4022461274195432E+00 
    9.3114745336047058E+00 
    1.3551497709614468E+01 
    1.2923321138862647E+01 
    1.3592733260153375E+01 
    1.2852375930795469E+01 
    8.4795608670682157E+00 
    8.6832599750653010E+00 
    1.3598762155995091E+01 
    8.7933703461455366E+00 
    1.2512869374353851E+01 
    9.0233353889738925E+00 
    3.7837265537247573E+00 
    6.4143116250353476E+00 
    5.9455071378737188E+00 
    1.3554525144429341E+01 
    1.4248129445644997E+01 
    1.2640361971045039E+01 
    1.0781116692381058E+01 
    1.2907401298580163E+01 
    1.2684438442643398E+01 
    1.3226699528454541E+01 
    5.4519461360845929E+00 
    3.5213428478477447E+00 
    1.0586616750411817E+01 
    8.9725432875183841E+00 
    1.2819906521036419E+01 
    1.2817705712338004E+01 
    9.5980244906728096E+00 
    1.2851803699047061E+01 
    9.2836871464770301E+00 
    9.1907260084809241E+00 
    4.9213921521415331E+00 
    3.5063745937304600E+00 
    1.4037083365781648E+01 
    7.2246718794517895E+00 
    8.2412030837063295E+00 
    9.4991265778178242E+00 
    1.5572998630139752E+01 
    9.5878438556785746E+00 
    9.5777315527261777E+00 
    3.9722981234057371E+00 
    9.5890147123864224E+00 
    9.6021454312083581E+00 
    1.3124290401709919E+01 
    8.0006335064403764E+00 
    8.8944576163639031E+00 
    1.4196214565047777E+01 
    9.3041326062822378E+00 
    1.2655137320061264E+01 
    1.2903764465859970E+01 
    1.1496241731288992E+01 
    7.8647402053011177E+00 
    1.2852961102791738E+01 
    9.1073332232782178E+00 
    1.2835577616991735E+01 
    1.2597355024160324E+01 
    1.3572697707649503E+01 
    1.2847575635298913E+01 
    1.2050638486275856E+01 
    9.2938799244510744E+00 
    6.1787269384022458E+00 
    1.5451201732704540E+01 
    7.3456453701895885E+00 
    1.3501072825255454E+01 
    9.2914278981005758E+00 
    7.7454284748208311E+00 
    4.6140323686400988E+00 
    9.6355190403727615E+00 
    1.2839314033686547E+01 
    1.2838278010706192E+01 
    9.2918453281518758E+00 
    9.2859020610914786E+00 
    1.4393474749471308E+01 
    1.3796153609059205E+01 
    9.6051562348056905E+00 
    3.2756620269865500E+00 
    1.2025878311382227E+01 
    1.5696880064185583E+01 
    9.2970251506359354E+00 
    1.1129651787960604E+01 
    8.8216347106282349E+00 
    1.5315547130655572E+01 
    1.3871853516640499E+01 
    1.3642665002849508E+01 
    9.6253477779688943E+00 
    4.3189572308957027E+00 
    8.7836998596874132E+00 
    8.8449836854779491E+00 
    8.8884668400209943E+00 
    3.5623507300930397E+00 