# vtk DataFile Version 2.0
Pressure Field Data 
ASCII 
DATASET UNSTRUCTURED_GRID 

POINTS 2860 double 

    0.0000000000000000E+00     0.0000000000000000E+00     0.0000000000000000E+00 
    1.0000000000000000E+00     0.0000000000000000E+00     0.0000000000000000E+00 
    1.0000000000000000E+00     1.0000000000000000E+00     0.0000000000000000E+00 
    0.0000000000000000E+00     1.0000000000000000E+00     0.0000000000000000E+00 
    2.5000000000000000E-01     2.5000000000000000E-01     0.0000000000000000E+00 
    7.5000000000000000E-01     2.5000000000000000E-01     0.0000000000000000E+00 
    7.5000000000000000E-01     7.5000000000000000E-01     0.0000000000000000E+00 
    2.5000000000000000E-01     7.5000000000000000E-01     0.0000000000000000E+00 
    3.1249999999942091E-02     0.0000000000000000E+00     0.0000000000000000E+00 
    6.2499999999873469E-02     0.0000000000000000E+00     0.0000000000000000E+00 
    9.3749999999826514E-02     0.0000000000000000E+00     0.0000000000000000E+00 
    1.2499999999977961E-01     0.0000000000000000E+00     0.0000000000000000E+00 
    1.5624999999968961E-01     0.0000000000000000E+00     0.0000000000000000E+00 
    1.8749999999959971E-01     0.0000000000000000E+00     0.0000000000000000E+00 
    2.1874999999950970E-01     0.0000000000000000E+00     0.0000000000000000E+00 
    2.4999999999941969E-01     0.0000000000000000E+00     0.0000000000000000E+00 
    2.8124999999932920E-01     0.0000000000000000E+00     0.0000000000000000E+00 
    3.1249999999923850E-01     0.0000000000000000E+00     0.0000000000000000E+00 
    3.4374999999914790E-01     0.0000000000000000E+00     0.0000000000000000E+00 
    3.7499999999905720E-01     0.0000000000000000E+00     0.0000000000000000E+00 
    4.0624999999896660E-01     0.0000000000000000E+00     0.0000000000000000E+00 
    4.3749999999887590E-01     0.0000000000000000E+00     0.0000000000000000E+00 
    4.6874999999878530E-01     0.0000000000000000E+00     0.0000000000000000E+00 
    4.9999999999869471E-01     0.0000000000000000E+00     0.0000000000000000E+00 
    5.3124999999877620E-01     0.0000000000000000E+00     0.0000000000000000E+00 
    5.6249999999885780E-01     0.0000000000000000E+00     0.0000000000000000E+00 
    5.9374999999893940E-01     0.0000000000000000E+00     0.0000000000000000E+00 
    6.2499999999902101E-01     0.0000000000000000E+00     0.0000000000000000E+00 
    6.5624999999910261E-01     0.0000000000000000E+00     0.0000000000000000E+00 
    6.8749999999918421E-01     0.0000000000000000E+00     0.0000000000000000E+00 
    7.1874999999926570E-01     0.0000000000000000E+00     0.0000000000000000E+00 
    7.4999999999934730E-01     0.0000000000000000E+00     0.0000000000000000E+00 
    7.8124999999942890E-01     0.0000000000000000E+00     0.0000000000000000E+00 
    8.1249999999951039E-01     0.0000000000000000E+00     0.0000000000000000E+00 
    8.4374999999959199E-01     0.0000000000000000E+00     0.0000000000000000E+00 
    8.7499999999967359E-01     0.0000000000000000E+00     0.0000000000000000E+00 
    9.0624999999975520E-01     0.0000000000000000E+00     0.0000000000000000E+00 
    9.3749999999983680E-01     0.0000000000000000E+00     0.0000000000000000E+00 
    9.6874999999991840E-01     0.0000000000000000E+00     0.0000000000000000E+00 
    1.0000000000000000E+00     3.1249999999942091E-02     0.0000000000000000E+00 
    1.0000000000000000E+00     6.2499999999873469E-02     0.0000000000000000E+00 
    1.0000000000000000E+00     9.3749999999826514E-02     0.0000000000000000E+00 
    1.0000000000000000E+00     1.2499999999977961E-01     0.0000000000000000E+00 
    1.0000000000000000E+00     1.5624999999968961E-01     0.0000000000000000E+00 
    1.0000000000000000E+00     1.8749999999959971E-01     0.0000000000000000E+00 
    1.0000000000000000E+00     2.1874999999950970E-01     0.0000000000000000E+00 
    1.0000000000000000E+00     2.4999999999941969E-01     0.0000000000000000E+00 
    1.0000000000000000E+00     2.8124999999932920E-01     0.0000000000000000E+00 
    1.0000000000000000E+00     3.1249999999923850E-01     0.0000000000000000E+00 
    1.0000000000000000E+00     3.4374999999914790E-01     0.0000000000000000E+00 
    1.0000000000000000E+00     3.7499999999905720E-01     0.0000000000000000E+00 
    1.0000000000000000E+00     4.0624999999896660E-01     0.0000000000000000E+00 
    1.0000000000000000E+00     4.3749999999887590E-01     0.0000000000000000E+00 
    1.0000000000000000E+00     4.6874999999878530E-01     0.0000000000000000E+00 
    1.0000000000000000E+00     4.9999999999869471E-01     0.0000000000000000E+00 
    1.0000000000000000E+00     5.3124999999877620E-01     0.0000000000000000E+00 
    1.0000000000000000E+00     5.6249999999885780E-01     0.0000000000000000E+00 
    1.0000000000000000E+00     5.9374999999893940E-01     0.0000000000000000E+00 
    1.0000000000000000E+00     6.2499999999902101E-01     0.0000000000000000E+00 
    1.0000000000000000E+00     6.5624999999910261E-01     0.0000000000000000E+00 
    1.0000000000000000E+00     6.8749999999918421E-01     0.0000000000000000E+00 
    1.0000000000000000E+00     7.1874999999926570E-01     0.0000000000000000E+00 
    1.0000000000000000E+00     7.4999999999934730E-01     0.0000000000000000E+00 
    1.0000000000000000E+00     7.8124999999942890E-01     0.0000000000000000E+00 
    1.0000000000000000E+00     8.1249999999951039E-01     0.0000000000000000E+00 
    1.0000000000000000E+00     8.4374999999959199E-01     0.0000000000000000E+00 
    1.0000000000000000E+00     8.7499999999967359E-01     0.0000000000000000E+00 
    1.0000000000000000E+00     9.0624999999975520E-01     0.0000000000000000E+00 
    1.0000000000000000E+00     9.3749999999983680E-01     0.0000000000000000E+00 
    1.0000000000000000E+00     9.6874999999991840E-01     0.0000000000000000E+00 
    9.6875000000003686E-01     1.0000000000000000E+00     0.0000000000000000E+00 
    9.3750000000011691E-01     1.0000000000000000E+00     0.0000000000000000E+00 
    9.0625000000015765E-01     1.0000000000000000E+00     0.0000000000000000E+00 
    8.7500000000017863E-01     1.0000000000000000E+00     0.0000000000000000E+00 
    8.4375000000028044E-01     1.0000000000000000E+00     0.0000000000000000E+00 
    8.1250000000040856E-01     1.0000000000000000E+00     0.0000000000000000E+00 
    7.8125000000054956E-01     1.0000000000000000E+00     0.0000000000000000E+00 
    7.5000000000066480E-01     1.0000000000000000E+00     0.0000000000000000E+00 
    7.1875000000086831E-01     1.0000000000000000E+00     0.0000000000000000E+00 
    6.8750000000102829E-01     1.0000000000000000E+00     0.0000000000000000E+00 
    6.5625000000114431E-01     1.0000000000000000E+00     0.0000000000000000E+00 
    6.2500000000129829E-01     1.0000000000000000E+00     0.0000000000000000E+00 
    5.9375000000147926E-01     1.0000000000000000E+00     0.0000000000000000E+00 
    5.6250000000168354E-01     1.0000000000000000E+00     0.0000000000000000E+00 
    5.3125000000188671E-01     1.0000000000000000E+00     0.0000000000000000E+00 
    5.0000000000205835E-01     1.0000000000000000E+00     0.0000000000000000E+00 
    4.6875000000192979E-01     1.0000000000000000E+00     0.0000000000000000E+00 
    4.3750000000180111E-01     1.0000000000000000E+00     0.0000000000000000E+00 
    4.0625000000167238E-01     1.0000000000000000E+00     0.0000000000000000E+00 
    3.7500000000154382E-01     1.0000000000000000E+00     0.0000000000000000E+00 
    3.4375000000141509E-01     1.0000000000000000E+00     0.0000000000000000E+00 
    3.1250000000128642E-01     1.0000000000000000E+00     0.0000000000000000E+00 
    2.8125000000115769E-01     1.0000000000000000E+00     0.0000000000000000E+00 
    2.5000000000102918E-01     1.0000000000000000E+00     0.0000000000000000E+00 
    2.1875000000090050E-01     1.0000000000000000E+00     0.0000000000000000E+00 
    1.8750000000077180E-01     1.0000000000000000E+00     0.0000000000000000E+00 
    1.5625000000064329E-01     1.0000000000000000E+00     0.0000000000000000E+00 
    1.2500000000051459E-01     1.0000000000000000E+00     0.0000000000000000E+00 
    9.3750000000385914E-02     1.0000000000000000E+00     0.0000000000000000E+00 
    6.2500000000257239E-02     1.0000000000000000E+00     0.0000000000000000E+00 
    3.1250000000128557E-02     1.0000000000000000E+00     0.0000000000000000E+00 
    0.0000000000000000E+00     9.6875000000003686E-01     0.0000000000000000E+00 
    0.0000000000000000E+00     9.3750000000011691E-01     0.0000000000000000E+00 
    0.0000000000000000E+00     9.0625000000015765E-01     0.0000000000000000E+00 
    0.0000000000000000E+00     8.7500000000017863E-01     0.0000000000000000E+00 
    0.0000000000000000E+00     8.4375000000028044E-01     0.0000000000000000E+00 
    0.0000000000000000E+00     8.1250000000040856E-01     0.0000000000000000E+00 
    0.0000000000000000E+00     7.8125000000054956E-01     0.0000000000000000E+00 
    0.0000000000000000E+00     7.5000000000066480E-01     0.0000000000000000E+00 
    0.0000000000000000E+00     7.1875000000086831E-01     0.0000000000000000E+00 
    0.0000000000000000E+00     6.8750000000102829E-01     0.0000000000000000E+00 
    0.0000000000000000E+00     6.5625000000114431E-01     0.0000000000000000E+00 
    0.0000000000000000E+00     6.2500000000129829E-01     0.0000000000000000E+00 
    0.0000000000000000E+00     5.9375000000147926E-01     0.0000000000000000E+00 
    0.0000000000000000E+00     5.6250000000168354E-01     0.0000000000000000E+00 
    0.0000000000000000E+00     5.3125000000188671E-01     0.0000000000000000E+00 
    0.0000000000000000E+00     5.0000000000205835E-01     0.0000000000000000E+00 
    0.0000000000000000E+00     4.6875000000192979E-01     0.0000000000000000E+00 
    0.0000000000000000E+00     4.3750000000180111E-01     0.0000000000000000E+00 
    0.0000000000000000E+00     4.0625000000167238E-01     0.0000000000000000E+00 
[...]
CELL_DATA 2795 
SCALARS Pressure double 1 
LOOKUP_TABLE default 

    8.5605405085280939E+00 
    1.8877732909136679E+01 
    1.3322418841654645E+01 
    1.3025551494287873E+01 
    1.0498721643023181E+01 
    1.8687103754540196E+01 
    1.9665036234388648E+01 
    7.6657447756212607E+00 
    1.3871525619256929E+01 
    1.0736155312516873E+01 
    9.1821122922437102E+00 
    1.8314926838464025E+01 
    1.8718862744098939E+01 
    1.8640896703964675E+01 
    1.2343647561134398E+01 
    7.5308291395976834E+00 
    1.2081893000334547E+01 
    9.7646825776419366E+00 
    1.7756145023112229E+01 
    1.3302192629921118E+01 
    1.3199954586031559E+01 
    1.8543108073978352E+01 
    1.2703453390296698E+01 
    5.2955497273567176E-01 
    1.8222909812548988E+01 
    1.8711357406828174E+01 
    1.9706439473588198E+01 
    8.8434096651603067E+00 
    1.8187779262108130E+01 
    1.9687013951897924E+01 
    1.3526565422313004E+01 
    1.3504961634694691E+01 
    9.5836646909032446E+00 
    1.3285969293775418E+01 
    4.3990292695486879E+00 
    1.2083218814351426E+01 
    1.3270791661068294E+01 
    1.9737020698740224E+01 
    1.9636514432025667E+01 
    1.8332891050260329E+01 
    1.0348940780118925E+01 
    1.8289855856637942E+01 
    1.0924507350395207E+00 
    1.3295326363247964E+01 
    1.9363850626384728E+01 
    1.9076610140173592E+01 
    1.8299741182030939E+01 
    1.4288596639500081E+01 
    1.8337658979799734E+01 
    1.2353242036900451E+01 
    1.1795149612377395E+01 
    1.3468039313859006E+01 
    1.3185658347806472E+01 
    1.2161300315295433E+01 
    1.3606252310061857E+01 
    1.7449698028571504E+01 
    1.5480928610611050E+01 
    1.0554437162675814E+01 
    1.8554948637519669E+01 
    1.8433818105598078E+01 
    1.2987344936390686E+01 
    1.2839604505117347E+01 
    1.2912703665605582E+01 
    1.9561169101200395E+01 
    1.9900103460867502E+01 
    1.2103780189491848E+01 
    1.3466239607020746E+01 
    1.8013826566571282E+01 
    1.5301547311700268E+01 
    1.2910942424071193E+01 
    1.9901994976587059E+01 
    1.8451790605285510E+01 
    1.1937300783939197E+01 
    1.9206317017394170E+01 
    1.3878027325391592E+01 
    1.8061787758685060E+01 
    1.9764158151375693E+01 
    1.3911442692126391E+01 
    8.6298408225977337E+00 
    1.3485274149125525E+01 
    1.9646955179423863E+01 
    1.9936280425285759E+01 
    1.2101087533747149E+01 
    1.3411746386537406E+01 
    2.0000760030802414E+01 
    1.3268433325074263E+01 
    1.2809380402412208E+01 
    1.5844654764549951E+01 
    8.2868357799362791E+00 
    1.1831371684699162E+01 
    1.3408493208266606E+01 
    1.4028508744106508E+01 
    2.1702430526578681E+01 
    1.0204248961670487E+01 
    1.3474443184759780E+01 
    1.8268909490882599E+01 
    1.8634020572288733E+01 
    8.9956412154865077E+00 
    1.3126669827134581E+01 
    1.3442794299054190E+01 
    1.8675045069131738E+01 
    1.3431309876722400E+01 
    1.8554214115136197E+01 
    5.4652969975233905E+00 
    8.9199096489282095E+00 
    1.3702655747399904E+01 
    1.8892375742203974E+01 
    1.2041571008555609E+01 
    1.2712447774709283E+01 
    1.3405976560778877E+01 
    1.2771761373614888E+01 
    1.5055602059621414E+01 
    1.2394780350349439E+01 
    1.1947098356539795E+01 
    9.3708544347900791E+00 
    1.5815046627287375E+01 
    1.3510006370191956E+01 
    1.9450863984096589E+01 
    1.1638513985767887E+01 
    1.3002169932720557E+01 
    1.8457934648012305E+01 
    1.0939198316850758E+01 
    1.9090800546081930E+01 
    1.3340857642078944E+01 
    1.2922911101596979E+01 
    1.8643125808507456E+01 
    1.3498213533497850E+01 
    1.9775028051088984E+01 
    1.5874027080693665E+01 
    1.7211444873650649E+01 
    1.9727945633074132E+01 
    1.0224563659678884E+01 
    1.3723411605820171E+01 
    1.8674302908527508E+01 
    4.0799713973555303E+00 
    1.3581417427247171E+01 
    1.9684765120553003E+01 
    1.2953322829244950E+01 
    1.4722000627634969E+01 
    8.8493497057602717E+00 
    1.8270406223910516E+01 
    2.2235583863158229E+01 
    1.6497862222144811E+01 
    1.2955572766245325E+01 
    1.1695124148777923E+01 
    1.4349154447615579E+01 
    1.3357936802030878E+01 
    9.3086591327327461E+00 
    1.9722693028663137E+01 
    1.8702914278263304E+01 
    1.8271428378567222E+01 
    1.4030051770280632E+01 
    1.1907663899967220E+01 
    1.3194312500354378E+01 
    1.9240417201231271E+01 
    1.2210014956724825E+01 
    1.3478799015722643E+01 
    1.2412399795798880E+01 
    1.5592158598386705E+01 
    2.2222865858838233E+01 
    1.8257702486807446E+01 
    1.1738530475575587E+01 
    1.8929674958579110E+01 
    1.8834541908983965E+01 
    1.8945149261863875E+01 
    2.0251514325016419E+01 
    2.0897763956413456E+01 
    1.9051348161873079E+01 
    1.3457541418921682E+01 
    1.4506648508504572E+01 
    1.8829691061832879E+01 
    1.9452367280086627E+01 
    9.7412297074075873E+00 
    1.8297630106920042E+01 
    1.9185235036771040E+01 
    9.4715604604789139E+00 
    2.0187977740508732E+01 
    2.0121200121119845E+01 
    1.7849626483411495E+01 
    1.3798821699587149E+01 
    3.6090487943659308E+00 
    1.9686103643462960E+01 
    1.3637623997613382E+01 
    1.9844528992621882E+01 
    1.2870145143582228E+01 
    1.9402797231442499E+01 
    1.3564204168997320E+00 
    1.7205916749938932E+01 
    1.2889508629480243E+01 
    1.1853284203142559E+01 
    1.1568564503112384E+01 
    1.3307952496696654E+01 
    1.4599228936028268E+01 
    1.3980957111658375E+01 
    9.4712372222108421E+00 
    1.9456062115454738E+01 
    1.8715965403485225E+01 
    1.5445264573454496E+01 
    1.3692936163546555E+01 
    2.0809874035357878E+00 
    1.0692556201084038E+01 
    7.4145745368590736E+00 
    1.9702477550847142E+01 
    1.4897661800786119E+01 
    1.8722547928077191E+01 
    1.8807216035398920E+01 
    1.2297595435670353E+01 
    1.5526405164810456E+01 
    1.8255421714324601E+01 
    2.0105846453381155E+01 
    8.8481563985409437E+00 
    1.6503966804764676E+01 
    1.3947496965693597E+01 
    7.9007888970385727E+00 
    1.2299121686638006E+01 
    1.6207220381272489E+01 
    1.8753617447730935E+01 
    1.3359206829280669E+01 
    1.8912360491450574E+01 
    1.8574150304574882E+01 
    1.8507665882295598E+01 
    1.3197113924340554E+01 
    1.1722109872541747E+01 
    1.8282646246102068E+01 
    1.1931373548511095E+01 
    1.3440912617229685E+01 
    1.1716390319337320E+01 
    1.3428076232716833E+01 
    1.8819652207209526E+01 
    8.3931643031738190E+00 
    1.2187184965949024E+01 
    1.9598216823810429E+01 
    1.3203902991415717E+01 
    1.4776008004492665E+01 
    8.6020967523945746E+00 
    1.2006859923375428E+01 
    1.8541700486439549E+01 
    1.8989292537734240E+01 
    7.0557556011930993E+00 
    1.3219638015591553E+01 
    1.1748965934193697E+01 
    2.0626464362618329E+01 
    1.9952990759488845E+01 
    2.0934768304054408E+01 
    1.3239871204021368E+01 
    1.8781647857780943E+01 
    1.8169478811096642E+01 
    1.3089849580130943E+01 
    1.8271459555946294E+01 
    1.3693252849425882E+01 
    7.9654142546502387E+00 
    1.3633283280658533E+01 
    1.9576716697680659E+01 
    1.8266540456714740E+01 
    9.1555724805048193E+00 
    1.8308887653170654E+01 
    1.4632033759899384E+01 
    1.3557450911170118E+01 
    1.3037217247216514E+01 
    1.8051462437345965E+01 
    1.4160211415655004E+01 
    1.8289801528412376E+01 
    1.3224857548337493E+01 
    8.1929578330131765E+00 
    1.3520151420491183E+01 
    1.1571805220171857E+01 
    1.6526492371392738E+01 
    1.9838896940263407E+01 
    1.8281533169348403E+01 
    1.9676136798973943E+01 
    1.3140576626992294E+01 
    8.8999935363789362E+00 
    9.0229643316948351E+00 
    1.3774212482607117E+01 
    1.3410640135852947E+01 
    2.0641678039458862E+00 
    1.7491806246951899E+01 
    2.0309917756066397E+01 
    1.2889937771569494E+01 
    8.3365838736061999E+00 
    1.5360173092364445E+01 
    1.8303530615309310E+01 
    9.8918752938980692E+00 
    6.7623994908085461E+00 
    1.3396745633605015E+01 
    1.8408307666590563E+01 
    1.9335524324126272E+01 
    1.9093313555275611E+01 
    1.8996103765039980E+01 
    9.6018006016045536E+00 
    1.3551785644579228E+01 
    1.7681161506599576E+01 
    1.0542083543797789E+01 
    1.8699079429294706E+01 
    1.5802118465156283E+01 
    9.1527611581439459E+00 
    1.8404204163727588E+01 
    1.9732485800302339E+01 
    1.8401213019172090E+01 
    9.5257587863623314E+00 
    1.3462098465701951E+01 
    1.0468364580815372E+01 
    1.2722806348074682E+01 
    1.8294278269209315E+01 
    1.8277644770308367E+01 
    9.5876842975292469E+00 
    1.9460236361707121E+01 
    1.4085083626194015E+01 
    1.8325516109050952E+01 
    1.9478599215133180E+01 
    1.8306653173445721E+01 
    1.6816726221153800E+01 
    2.0706104027155796E+01 
    1.2825369223656264E+01 
    1.9636436949523304E+01 
    1.8356714733999468E+01 
    1.9731314604275404E+01 
    1.9451393931452518E+01 
    1.2946982947608225E+01 
    1.3311019863165193E+01 
    1.2880050462713521E+01 
    1.6129834360555833E+01 
    5.4931707773895706E+00 
    1.3699684345901407E+01 
    2.0845505804406923E+01 
    1.3699168116516470E+01 
    1.3930132470676726E+01 
    1.9696197165998711E+01 
    1.9981393235795146E+01 
    1.2709922553782858E+01 
    1.8314608148000378E+01 
    1.8273149599216264E+01 
    1.3914532886914857E+01 
    1.9390579654213084E+01 
    9.6677341617399684E+00 
    6.1604871382865465E+00 
    1.4265993967650680E+01 
    1.3713299248484098E+01 
    1.8269574437372917E+01 
    8.9795681772832303E+00 
    1.9000092161743808E+01 
    6.2747294701850924E+00 
    1.3644637321170434E+01 
    1.2958955925219213E+01 
    1.3438066038002319E+01 
    2.2274136886740532E+01 
    5.3267143458236514E+00 
    1.3601829798298427E+01 
    1.6121209522255064E+01 
    1.3028216990937260E+01 
    1.0426048813430132E+01 
    1.9227439159678767E+01 
    2.1805484143267105E+01 
    1.9374818390032608E+01 
    1.3529708900422307E+01 
    7.8753034094354897E+00 
    2.1641872616195624E+01 
    1.8692177638447053E+01 
    9.8949661403443638E+00 
    1.3125878843366330E+01 
    2.0227081514871209E+01 
    4.5318018621961729E+00 
    1.3777515365683749E+01 
    1.9378466956926001E+01 
    1.3454585485561344E+01 
    1.1747215713218086E+01 
    1.3648960982059196E+01 
    1.7786713197130030E+01 
    1.3436586119326762E+01 
    7.0273059932053519E+00 
    1.3370068396308954E+00 
    1.0100546588101043E+01 
    2.0532185421042872E+01 
    1.2879671714210017E+01 
    1.5119411588870411E+01 
    1.4523979517466151E+01 
    1.6543383769647640E+01 
    1.3468532581976216E+01 
    1.8557934633413382E+01 
    2.2288951193339159E+01 
    1.5740321978462324E+01 
    1.9599959715419878E+01 
    7.9548673508732182E-01 
    1.8279724921819135E+01 
    7.6824002499781106E+00 
    2.1036407699151102E+01 
    1.3617978580778368E+01 
    1.2000768921399077E+01 
    1.0670905999175421E+01 
    7.3953432565192712E+00 
    1.4842746409542089E+01 
    1.0684424580596467E+01 
    1.6384826125326303E+01 
    3.0463387448023163E+00 
    1.4678665137974084E+01 
    1.8155615070029420E+01 
    8.1889216594581562E+00 
    1.8873449680193652E+01 
    2.0777778562653612E+01 
    1.8699266664418403E+01 
    1.3455423482233281E+01 
    1.3431381808613020E+01 
    1.3609369069083259E+01 
    8.0001436923993996E+00 
    1.2545297257841273E+01 
    1.2352871582398810E+01 
    1.3596331892130934E+01 
    1.2795685962907179E+01 
    1.0179711027909517E+00 
    8.7651963222130558E+00 
    1.3252577001185802E+01 
    1.3566126684676520E+01 
    1.6856747092174640E+01 
    2.9760309826620697E+00 
    1.3864486062088732E+01 
    1.3722004738251048E+01 
    5.1286544429068686E+00 
    1.8517628780676834E+01 
    1.1938665340993769E+01 
    1.3571667118835284E+01 
    1.8679769803239196E+01 
    7.4138427059174887E+00 
    1.8656304435172220E+01 
    1.2096738788127697E+01 
    1.3598830992317665E+00 
    1.2951849698319311E+01 
    1.9510836950984267E+01 
    1.8281091704192008E+01 
    1.8307169842855924E+01 
    1.4016733942734083E+01 
    1.3647644306942700E+01 
    1.1930633005988964E+01 
    9.4961037749711679E+00 
    1.8825232767440731E+01 
    1.3119767800952236E+01 
    9.2161955522716799E+00 
    1.8300664401608962E+01 
    1.9219267624455124E+01 
    1.3801391269398586E+01 
    1.3254735026978118E+01 
    2.2160266753310459E+01 
    1.3915735524638830E+01 
    1.8874993282712470E+01 
    1.1345609605194495E+01 
    2.2317050301624910E+01 
    8.9690060922718651E+00 
    1.2395652615335361E+01 
    1.0124967052991527E+01 
    1.4204730788299409E+01 
    1.1548254657958038E+01 
    2.2300134521358704E+01 
    1.3975696834554123E+01 
    1.7771233229347260E+01 
    9.2444757275089842E+00 
    1.3462578340539823E+01 
    1.8647106441738543E+01 
    1.1632567014013681E+01 
    9.8981224651961579E+00 
    1.5028450597854508E+01 
    1.8966089468950674E+01 
    9.8784070298513633E+00 
    1.2985670429569927E+01 
    1.3294639544182703E+01 
    1.8244228635375691E+01 
    1.3049779804532418E+01 
    1.8944421454317183E+01 
    1.9768660960352864E+01 
    1.1962460597616170E+01 
    1.1738093731552711E+01 
    1.0696491297796412E+01 
    1.8441706029564681E+01 
    1.3740602239824419E+01 
    2.1846061415883010E+01 
    1.7027897699612925E+01 
    1.8582492429203153E+01 
    2.1499072899260693E+01 
    2.0782399345765736E+01 
    1.3511284064224537E+01 
    1.3578144927915682E+01 
    1.7868607155833359E+01 
    1.8334773584129042E+01 
    1.9055047163224398E+01 
    1.8721425227512089E+01 
    2.2186628007630745E+01 
    1.3915131462440439E+01 
    1.2091949510519600E+01 
    1.3880939297649197E+01 
    1.9655240692994560E+01 
    1.3610342790791639E+01 
    7.9835950495586934E+00 
    1.3436010954541269E+01 
    2.0197624010427969E+01 
    1.3765350778447045E+01 
    1.2099875712891947E+01 
    1.3234690158389594E+01 
    2.0332542714115917E+01 
    1.8381743393632245E+01 
    1.1457349124366869E+01 
    2.0497251261979311E+01 
    1.3540882273098298E+01 
    1.9082838656334406E+01 
    2.0345286986052592E+01 
    1.4291531506487322E+01 
    7.4117428537033598E+00 
    1.4822393849646181E+01 
    7.6624367519057390E+00 
    1.3662527925983797E+01 
    1.3459417108114717E+01 
    1.5575881535199221E+01 
    8.0935416707103798E+00 
    1.6536657561763622E+01 
    1.3476011151984306E+01 
    1.8707287426364264E+01 
    1.4448969506556296E+01 
    1.1102423367883596E+01 
    1.3085180267790696E+01 
    1.4199183556519516E+01 
    1.4044413339115769E+01 
    1.9825901465457886E+01 
    1.1589698762827586E+01 
    1.1397981507603248E+01 
    8.4980192256489708E+00 
    1.9112665422688924E+01 
    1.3134530183536517E+01 
    1.8065081914596657E+01 
    1.3427331801295795E+01 
    9.2773515419506545E+00 
    1.8398593570052768E+01 
    1.3403886084273706E+01 
    1.0117144756280071E+01 
    1.0722895434210400E+01 
    1.1110072908037928E+01 
    1.8751369637092850E+01 
    1.3598703624324584E+01 
    1.9614840158608096E+01 
    1.3364158849619168E+01 
    1.3302281095168903E+01 
    1.2888892831410189E+01 
    1.8516907142099537E+01 
    1.3212230934341582E+01 
    1.1178293729404201E+01 
    2.0769807960745979E+01 
    1.8625632960260461E+01 
    9.4289341781825513E+00 
    3.7486679829832830E+00 
    1.3586341493028252E+01 
    1.2714416272974844E+01 
    1.1733952467339451E+01 
    1.2647801632789767E+01 
    1.8574301212082645E+01 
    1.3234846770160196E+01 
    1.2134305534335105E+01 
    1.8366323201515065E+01 
    9.3233637563603917E+00 
    1.7820619920652717E+01 
    1.2249761722991224E+01 
    1.0989689384729855E+01 
    1.1841042354317818E+01 
    1.9195511947851291E+01 
    1.3440533750991191E+01 
    1.3449509995194154E+01 
    8.2295809434372948E+00 
    8.8886533377152368E+00 
    1.6854763103742584E+01 
    1.3459854593149364E+01 
    1.3633576025489228E+01 
    2.0485117345641829E+01 
    1.1390138297334994E+01 
    1.3472676073894114E+01 
    9.6495700315166673E+00 
    9.9522611926511981E+00 
    1.8468694490395119E+01 
    1.3074445624506046E+01 
    9.7887749253601388E+00 
    1.4032125984921715E+01 
    1.3364753239980113E+01 
    1.8488157432666636E+01 
    2.0594367756785523E+01 
    1.4452323389570747E+00 
    1.3592150269054560E+01 
    1.3712019052833512E+01 
    1.8602258432157946E+01 
    1.3034756238556856E+01 
    1.3411125635702053E+01 
    1.9907122271607882E+01 
    1.1882228295555738E+01 
    9.8747139804716415E+00 
    1.5994664818529346E+01 
    1.8300294414108681E+01 
    1.9728085776010829E+01 
    2.0064945581388816E+01 
    1.3404794541128764E+01 
    1.3581891101105416E+01 
    1.4904721213387010E+01 
    8.9421494277700067E+00 
    1.8489486945599868E+01 
    1.0631652268438522E+01 
    9.3194173597112488E+00 
    1.6610462152849045E+01 
    1.5618476812085946E+01 
    9.1354444848579632E+00 
    1.8350578514999931E+01 
    1.9710544007916649E+01 
    1.3934831396676726E+01 
    2.0716453527114826E+01 
    1.8397834194268235E+01 
    1.3100259741874678E+01 
    1.9313086129974799E+01 
    9.9869723533973431E+00 
    1.8325681477795811E+01 
    1.3590821462034743E+01 
    1.3546141089069097E+01 
    2.0696916339626810E+01 
    1.3180653320230022E+01 
    1.6251450110156767E+01 
    1.1812590258976245E+01 
    1.9863126246402494E+01 
    1.8172373416539394E+01 
    1.2298375915731290E+01 
    1.8268660426600558E+01 
    1.2356020309081835E+01 
    1.3417678822896100E+01 
    1.9658098467094621E+01 
    1.8694820687526427E+01 
    1.9714349216097908E+01 
    1.8604693956169697E+01 
    1.2561158597144518E+01 
    1.2805875974948746E+01 
    1.9724098186610124E+01 
    1.2958514445536428E+01 
    1.8028624599473268E+01 
    1.3158321775549897E+01 
    5.5353995018738660E+00 
    9.3894580095440947E+00 
    8.7042602549438346E+00 
    1.9662567539545911E+01 
    2.0605164155689423E+01 
    1.8291966819063003E+01 
    1.5323390364533289E+01 
    1.8690973050054428E+01 
    1.8363606487910836E+01 
    1.9190973351697632E+01 
    7.9427622010828811E+00 
    5.1508146464309288E+00 
    1.5046199392812499E+01 
    1.3214552563854607E+01 
    1.8583622297248816E+01 
    1.8579768596920548E+01 
    1.3732754436056359E+01 
    1.8634639237368415E+01 
    1.3575111394200134E+01 
    1.3476467808466463E+01 
    7.1805681556895413E+00 
    5.1275958860393924E+00 
    2.0323434749206069E+01 
    1.0587852143580855E+01 
    1.2209429889150742E+01 
    1.3623055350956973E+01 
    2.2163517638639995E+01 
    1.3722742566940719E+01 
    1.3933322346692711E+01 
    5.8197348686786157E+00 
    1.3722560174953299E+01 
    1.3738053194438551E+01 
    1.8920656964041601E+01 
    1.1842061092087558E+01 
    1.2922584043525974E+01 
    2.0533427442739558E+01 
    1.3601983240799305E+01 
    1.8313682842084042E+01 
    1.8616155166824257E+01 
    1.6335344077375023E+01 
    1.1486682943233291E+01 
    1.8600832463531184E+01 
    1.3366519557208104E+01 
    1.8532289000791263E+01 
    1.8220261268773104E+01 
    1.9687707284588004E+01 
    1.8608462663533274E+01 
    1.7238471029267021E+01 
    1.3588514581918471E+01 
    9.0507181166251698E+00 
    2.2027384593036199E+01 
    1.0849306626909902E+01 
    1.9581631656749543E+01 
    1.3585496824875250E+01 
    1.1447324597887473E+01 
    6.7524823133223135E+00 
    1.3778525091192479E+01 
    1.8585557865757110E+01 
    1.8568664049723310E+01 
    1.3396454672626561E+01 
    1.3578722893449612E+01 
    2.0773281748386779E+01 
    1.9992185990950656E+01 
    1.3744981579306121E+01 
    4.7909238225813562E+00 
    1.7122276750082147E+01 
    2.2296311627489128E+01 
    1.3592371816957678E+01 
    1.5807675369617575E+01 
    1.3033836495413732E+01 
    2.1870986764628093E+01 
    2.0098072206333494E+01 
    1.9777834180810988E+01 
    1.3769959931598638E+01 
    6.2644342681939733E+00 
    1.2986128911079764E+01 
    1.3060711151991068E+01 
    1.3106428357747376E+01 
    5.2218363770423784E+00 