# vtk DataFile Version 2.0
Pressure Field Data 
ASCII 
DATASET UNSTRUCTURED_GRID 

POINTS 2860 double 

    0.0000000000000000E+00     0.0000000000000000E+00     0.0000000000000000E+00 
    1.0000000000000000E+00     0.0000000000000000E+00     0.0000000000000000E+00 
    1.0000000000000000E+00     1.0000000000000000E+00     0.0000000000000000E+00 
    0.0000000000000000E+00     1.0000000000000000E+00     0.0000000000000000E+00 
    2.5000000000000000E-01     2.5000000000000000E-01     0.0000000000000000E+00 
    7.5000000000000000E-01     2.5000000000000000E-01     0.0000000000000000E+00 
    7.5000000000000000E-01     7.5000000000000000E-01     0.0000000000000000E+00 
    2.5000000000000000E-01     7.5000000000000000E-01     0.0000000000000000E+00 
    3.1249999999942091E-02     0.0000000000000000E+00     0.0000000000000000E+00 
    6.2499999999873469E-02     0.0000000000000000E+00     0.0000000000000000E+00 
    9.3749999999826514E-02     0.0000000000000000E+00     0.0000000000000000E+00 
    1.2499999999977961E-01     0.0000000000000000E+00     0.0000000000000000E+00 
    1.5624999999968961E-01     0.0000000000000000E+00     0.0000000000000000E+00 
    1.8749999999959971E-01     0.0000000000000000E+00     0.0000000000000000E+00 
    2.1874999999950970E-01     0.0000000000000000E+00     0.0000000000000000E+00 
    2.4999999999941969E-01     0.0000000000000000E+00     0.0000000000000000E+00 
    2.8124999999932920E-01     0.0000000000000000E+00     0.0000000000000000E+00 
    3.1249999999923850E-01     0.0000000000000000E+00     0.0000000000000000E+00 
    3.4374999999914790E-01     0.0000000000000000E+00     0.0000000000000000E+00 
    3.7499999999905720E-01     0.0000000000000000E+00     0.0000000000000000E+00 
    4.0624999999896660E-01     0.0000000000000000E+00     0.0000000000000000E+00 
    4.3749999999887590E-01     0.0000000000000000E+00     0.0000000000000000E+00 
    4.6874999999878530E-01     0.0000000000000000E+00     0.0000000000000000E+00 
    4.9999999999869471E-01     0.0000000000000000E+00     0.0000000000000000E+00 
    5.3124999999877620E-01     0.0000000000000000E+00     0.0000000000000000E+00 
    5.6249999999885780E-01     0.0000000000000000E+00     0.0000000000000000E+00 
    5.9374999999893940E-01     0.0000000000000000E+00     0.0000000000000000E+00 
    6.2499999999902101E-01     0.0000000000000000E+00     0.0000000000000000E+00 
    6.5624999999910261E-01     0.0000000000000000E+00     0.0000000000000000E+00 
    6.8749999999918421E-01     0.0000000000000000E+00     0.0000000000000000E+00 
    7.1874999999926570E-01     0.0000000000000000E+00     0.0000000000000000E+00 
    7.4999999999934730E-01     0.0000000000000000E+00     0.0000000000000000E+00 
    7.8124999999942890E-01     0.0000000000000000E+00     0.0000000000000000E+00 
    8.1249999999951039E-01     0.0000000000000000E+00     0.0000000000000000E+00 
    8.4374999999959199E-01     0.0000000000000000E+00     0.0000000000000000E+00 
    8.7499999999967359E-01     0.0000000000000000E+00     0.0000000000000000E+00 
    9.0624999999975520E-01     0.0000000000000000E+00     0.0000000000000000E+00 
    9.3749999999983680E-01     0.0000000000000000E+00     0.0000000000000000E+00 
    9.6874999999991840E-01     0.0000000000000000E+00     0.0000000000000000E+00 
    1.0000000000000000E+00     3.1249999999942091E-02     0.0000000000000000E+00 
    1.0000000000000000E+00     6.2499999999873469E-02     0.0000000000000000E+00 
    1.0000000000000000E+00     9.3749999999826514E-02     0.0000000000000000E+00 
    1.0000000000000000E+00     1.2499999999977961E-01     0.0000000000000000E+00 
    1.0000000000000000E+00     1.5624999999968961E-01     0.0000000000000000E+00 
    1.0000000000000000E+00     1.8749999999959971E-01     0.0000000000000000E+00 
    1.0000000000000000E+00     2.1874999999950970E-01     0.0000000000000000E+00 
    1.0000000000000000E+00     2.4999999999941969E-01     0.0000000000000000E+00 
    1.0000000000000000E+00     2.8124999999932920E-01     0.0000000000000000E+00 
    1.0000000000000000E+00     3.1249999999923850E-01     0.0000000000000000E+00 
    1.0000000000000000E+00     3.4374999999914790E-01     0.0000000000000000E+00 
    1.0000000000000000E+00     3.7499999999905720E-01     0.0000000000000000E+00 
    1.0000000000000000E+00     4.0624999999896660E-01     0.0000000000000000E+00 
    1.0000000000000000E+00     4.3749999999887590E-01     0.0000000000000000E+00 
    1.0000000000000000E+00     4.6874999999878530E-01     0.0000000000000000E+00 
    1.0000000000000000E+00     4.9999999999869471E-01     0.0000000000000000E+00 
    1.0000000000000000E+00     5.3124999999877620E-01     0.0000000000000000E+00 
    1.0000000000000000E+00     5.6249999999885780E-01     0.0000000000000000E+00 
    1.0000000000000000E+00     5.9374999999893940E-01     0.0000000000000000E+00 
    1.0000000000000000E+00     6.2499999999902101E-01     0.0000000000000000E+00 
    1.0000000000000000E+00     6.5624999999910261E-01     0.0000000000000000E+00 
    1.0000000000000000E+00     6.8749999999918421E-01     0.0000000000000000E+00 
    1.0000000000000000E+00     7.1874999999926570E-01     0.0000000000000000E+00 
    1.0000000000000000E+00     7.4999999999934730E-01     0.0000000000000000E+00 
    1.0000000000000000E+00     7.8124999999942890E-01     0.0000000000000000E+00 
    1.0000000000000000E+00     8.1249999999951039E-01     0.0000000000000000E+00 
    1.0000000000000000E+00     8.4374999999959199E-01     0.0000000000000000E+00 
    1.0000000000000000E+00     8.7499999999967359E-01     0.0000000000000000E+00 
    1.0000000000000000E+00     9.0624999999975520E-01     0.0000000000000000E+00 
    1.0000000000000000E+00     9.3749999999983680E-01     0.0000000000000000E+00 
    1.0000000000000000E+00     9.6874999999991840E-01     0.0000000000000000E+00 
    9.6875000000003686E-01     1.0000000000000000E+00     0.0000000000000000E+00 
    9.3750000000011691E-01     1.0000000000000000E+00     0.0000000000000000E+00 
    9.0625000000015765E-01     1.0000000000000000E+00     0.0000000000000000E+00 
    8.7500000000017863E-01     1.0000000000000000E+00     0.0000000000000000E+00 
    8.4375000000028044E-01     1.0000000000000000E+00     0.0000000000000000E+00 
    8.1250000000040856E-01     1.0000000000000000E+00     0.0000000000000000E+00 
    7.8125000000054956E-01     1.0000000000000000E+00     0.0000000000000000E+00 
    7.5000000000066480E-01     1.0000000000000000E+00     0.0000000000000000E+00 
    7.1875000000086831E-01     1.0000000000000000E+00     0.0000000000000000E+00 
    6.8750000000102829E-01     1.0000000000000000E+00     0.0000000000000000E+00 
    6.5625000000114431E-01     1.0000000000000000E+00     0.0000000000000000E+00 
    6.2500000000129829E-01     1.0000000000000000E+00     0.0000000000000000E+00 
    5.9375000000147926E-01     1.0000000000000000E+00     0.0000000000000000E+00 
    5.6250000000168354E-01     1.0000000000000000E+00     0.0000000000000000E+00 
    5.3125000000188671E-01     1.0000000000000000E+00     0.0000000000000000E+00 
    5.0000000000205835E-01     1.0000000000000000E+00     0.0000000000000000E+00 
    4.6875000000192979E-01     1.0000000000000000E+00     0.0000000000000000E+00 
    4.3750000000180111E-01     1.0000000000000000E+00     0.0000000000000000E+00 
    4.0625000000167238E-01     1.0000000000000000E+00     0.0000000000000000E+00 
    3.7500000000154382E-01     1.0000000000000000E+00     0.0000000000000000E+00 
    3.4375000000141509E-01     1.0000000000000000E+00     0.0000000000000000E+00 
    3.1250000000128642E-01     1.0000000000000000E+00     0.0000000000000000E+00 
    2.8125000000115769E-01     1.0000000000000000E+00     0.0000000000000000E+00 
    2.5000000000102918E-01     1.0000000000000000E+00     0.0000000000000000E+00 
    2.1875000000090050E-01     1.0000000000000000E+00     0.0000000000000000E+00 
    1.8750000000077180E-01     1.0000000000000000E+00     0.0000000000000000E+00 
    1.5625000000064329E-01     1.0000000000000000E+00     0.0000000000000000E+00 
    1.2500000000051459E-01     1.0000000000000000E+00     0.0000000000000000E+00 
    9.3750000000385914E-02     1.0000000000000000E+00     0.0000000000000000E+00 
    6.2500000000257239E-02     1.0000000000000000E+00     0.0000000000000000E+00 
    3.1250000000128557E-02     1.0000000000000000E+00     0.0000000000000000E+00 
    0.0000000000000000E+00     9.6875000000003686E-01     0.0000000000000000E+00 
    0.0000000000000000E+00     9.3750000000011691E-01     0.0000000000000000E+00 
    0.0000000000000000E+00     9.0625000000015765E-01     0.0000000000000000E+00 
    0.0000000000000000E+00     8.7500000000017863E-01     0.0000000000000000E+00 
    0.0000000000000000E+00     8.4375000000028044E-01     0.0000000000000000E+00 
    0.0000000000000000E+00     8.1250000000040856E-01     0.0000000000000000E+00 
    0.0000000000000000E+00     7.8125000000054956E-01     0.0000000000000000E+00 
    0.0000000000000000E+00     7.5000000000066480E-01     0.0000000000000000E+00 
    0.0000000000000000E+00     7.1875000000086831E-01     0.0000000000000000E+00 
    0.0000000000000000E+00     6.8750000000102829E-01     0.0000000000000000E+00 
    0.0000000000000000E+00     6.5625000000114431E-01     0.0000000000000000E+00 
    0.0000000000000000E+00     6.2500000000129829E-01     0.0000000000000000E+00 
    0.0000000000000000E+00     5.9375000000147926E-01     0.0000000000000000E+00 
    0.0000000000000000E+00     5.6250000000168354E-01     0.0000000000000000E+00 
    0.0000000000000000E+00     5.3125000000188671E-01     0.0000000000000000E+00 
    0.0000000000000000E+00     5.0000000000205835E-01     0.0000000000000000E+00 
    0.0000000000000000E+00     4.6875000000192979E-01     0.0000000000000000E+00 
    0.0000000000000000E+00     4.3750000000180111E-01     0.0000000000000000E+00 
    0.0000000000000000E+00     4.0625000000167238E-01     0.0000000000000000E+00 
[...]
CELL_DATA 2795 
SCALARS Pressure double 1 
LOOKUP_TABLE default 

    5.3853153340097935E+00 
    1.2013011976662444E+01 
    8.5023146785573172E+00 
    8.1243353896649371E+00 
    6.5411282917384570E+00 
    1.1902016068954152E+01 
    1.2525550479774777E+01 
    4.8332743734101040E+00 
    8.9819562449795214E+00 
    6.8409560436725299E+00 
    5.8174994972133032E+00 
    1.1687971354942787E+01 
    1.1939500735428624E+01 
    1.1876170703501524E+01 
    7.8099745235766278E+00 
    4.7521292380694211E+00 
    7.5027249146695203E+00 
    6.1991645941973541E+00 
    1.1384289817697736E+01 
    8.4978663870231816E+00 
    8.3872588674090292E+00 
    1.1820789377014217E+01 
    7.9032412137790899E+00 
    3.1472035875975590E-01 
    1.1688783048247865E+01 
    1.1907622912973242E+01 
    1.2553847154605959E+01 
    5.5991922906164771E+00 
    1.1620878371301020E+01 
    1.2544906946567588E+01 
    8.5644229256792208E+00 
    8.7258781836910568E+00 
    6.0218258339528887E+00 
    8.4637095705860066E+00 
    2.7727754505488793E+00 
    7.5042765160798135E+00 
    8.4556391527093311E+00 
    1.2579939652860293E+01 
    1.2506642513867188E+01 
    1.1699062299084867E+01 
    6.4819688430776301E+00 
    1.1663638884216557E+01 
    6.6043370721396299E-01 
    8.3402273074988802E+00 
    1.2361639000308482E+01 
    1.2197477284573742E+01 
    1.1678872418885007E+01 
    9.2879273954696568E+00 
    1.1738261711079492E+01 
    7.6684936193956563E+00 
    7.3212858543471624E+00 
    8.6906335378128503E+00 
    8.2346311504273988E+00 
    7.5461315096695145E+00 
    8.6353585568049578E+00 
    1.1208923341055492E+01 
    1.0133996490555282E+01 
    6.5744876169111022E+00 
    1.1824588523820861E+01 
    1.1760940283440858E+01 
    8.1656948366448585E+00 
    8.1538237528078934E+00 
    8.0432810393604104E+00 
    1.2460219886190105E+01 
    1.2693180218842651E+01 
    7.5128363917837913E+00 
    8.6886908791629658E+00 
    1.1604207208044349E+01 
    9.9433047526589675E+00 
    8.1903035555455332E+00 
    1.2694845256322328E+01 
    1.1780851909216205E+01 
    7.4094537560005307E+00 
    1.2280303170740840E+01 
    8.8586828359243661E+00 
    1.1559291205778113E+01 
    1.2594376087482889E+01 
    8.7732368189540466E+00 
    5.4236582736972823E+00 
    8.7049583071482921E+00 
    1.2513330177448395E+01 
    1.2716917910243435E+01 
    7.5261315304601402E+00 
    8.6217232793769814E+00 
    1.2756064186214271E+01 
    8.4611332141319551E+00 
    7.9736971364551295E+00 
    1.0286433091046971E+01 
    5.2186227184230951E+00 
    7.3422677079659096E+00 
    8.6229783667563851E+00 
    9.1000022987026004E+00 
    1.4084411080810396E+01 
    6.3651337837740440E+00 
    8.6956959824516229E+00 
    1.1660579406808354E+01 
    1.1898251687424683E+01 
    5.6399881215820189E+00 
    8.3338788100485690E+00 
    8.6526396837610235E+00 
    1.1915541228473945E+01 
    8.6560291856137468E+00 
    1.1857804072459651E+01 
    3.4350986698286783E+00 
    5.6530911945926627E+00 
    8.8849720214709365E+00 
    1.2019383639873491E+01 
    7.4748941228135122E+00 
    7.9871971022447896E+00 
    8.6417492934055744E+00 
    7.9506636610299992E+00 
    9.8414190758348479E+00 
    7.7671108068950119E+00 
    7.4156067062359883E+00 
    5.8998889972507129E+00 
    1.0044505733011343E+01 
    8.7279445301331737E+00 
    1.2386038895421450E+01 
    7.4481796674709697E+00 
    8.1141484219047477E+00 
    1.1768729931735939E+01 
    6.8287391078885378E+00 
    1.2155012528508973E+01 
    8.5417109271171388E+00 
    8.0522793029189383E+00 
    1.1899954445781388E+01 
    8.7164388412258607E+00 
    1.2599825705318146E+01 
    1.0296716781967680E+01 
    1.1083136706403748E+01 
    1.2568617757445521E+01 
    6.3769986638423433E+00 
    8.9001877209000284E+00 
    1.1896949797261126E+01 
    2.5672661641403667E+00 
    8.6142144663910436E+00 
    1.2539464083079782E+01 
    8.0807163016129149E+00 
    9.3235714833410768E+00 
    5.5713595121310604E+00 
    1.1661059106329763E+01 
    1.4540735930683057E+01 
    1.0684219768955874E+01 
    8.0751634180596277E+00 
    7.2602724923325219E+00 
    9.2625432873679685E+00 
    8.5585976616716213E+00 
    5.8811137714523021E+00 
    1.2563265320493596E+01 
    1.1976739321359329E+01 
    1.1662157244891041E+01 
    9.1141963033284306E+00 
    7.3906197698145215E+00 
    8.3869861516588067E+00 
    1.2303382166234867E+01 
    7.5827549943270851E+00 
    8.4700248749384990E+00 
    7.7134211102959034E+00 
    9.8326794516400167E+00 
    1.4529727568030617E+01 
    1.1654590166043480E+01 
    7.3323648163898811E+00 
    1.2063971352239635E+01 
    1.1984600749603061E+01 
    1.2053274046857066E+01 
    1.2931704729245267E+01 
    1.3421516457454993E+01 
    1.2191619058408376E+01 
    8.6812801278332472E+00 
    9.2160741476694330E+00 
    1.2043822896097272E+01 
    1.2396209249609576E+01 
    6.1291463475496233E+00 
    1.1678223349420115E+01 
    1.2269896972687176E+01 
    5.9766228206798147E+00 
    1.2851046617429823E+01 
    1.2842550995096394E+01 
    1.1442633235376926E+01 
    8.9542963181257775E+00 
    2.2948761162051481E+00 
    1.2538155101350762E+01 
    8.8340287031893681E+00 
    1.2649539354317488E+01 
    8.0260409150090730E+00 
    1.2391172832412277E+01 
    8.0789573845196005E-01 
    1.1097708337288797E+01 
    8.1941921969691300E+00 
    7.3572392834658373E+00 
    7.1792827713582419E+00 
    8.5124182843109537E+00 
    9.5373561280547907E+00 
    8.7959590047515093E+00 
    5.9488555997502095E+00 
    1.2390776517248030E+01 
    1.1915782098895582E+01 
    1.0047754806024960E+01 
    8.8774555072841697E+00 
    1.3049344166409198E+00 
    6.6567705628699727E+00 
    4.6594579045176241E+00 
    1.2556373761303560E+01 
    9.6836983240331627E+00 
    1.1958003533836367E+01 
    1.1974213944557755E+01 
    7.6617469131624771E+00 
    1.0096989416705888E+01 
    1.1657538814286418E+01 
    1.2828626317818458E+01 
    5.5697881730777210E+00 
    1.0519323666390349E+01 
    8.8363360276704590E+00 
    4.9764432750557592E+00 
    7.6405266614111929E+00 
    1.0524870356485051E+01 
    1.1940251636315329E+01 
    8.5692966003903219E+00 
    1.2034936656177969E+01 
    1.1834769010414151E+01 
    1.1790939102969695E+01 
    8.3947081963933989E+00 
    7.3195187512935043E+00 
    1.1669752543764838E+01 
    7.4072157945967740E+00 
    8.6598653526526839E+00 
    7.2704010425457666E+00 
    8.4172857600595403E+00 
    1.1982801559926438E+01 
    5.3315462706290777E+00 
    7.5704737950085059E+00 
    1.2481139437836795E+01 
    8.4096675108566110E+00 
    9.5839924879334397E+00 
    5.4711586925618478E+00 
    7.4529124871553982E+00 
    1.1816682698384991E+01 
    1.2082766208536217E+01 
    4.4786007328209037E+00 
    8.4110542875260457E+00 
    7.3054262139999242E+00 
    1.3208089565270269E+01 
    1.2725139827103742E+01 
    1.3444761165728661E+01 
    8.4323777745765494E+00 
    1.1958262528327500E+01 
    1.1621266302832227E+01 
    8.3119830151243672E+00 
    1.1662146797188269E+01 
    8.8775358934286217E+00 
    5.0040348486568726E+00 
    8.6224838476424761E+00 
    1.2470299135234791E+01 
    1.1659371010859594E+01 
    5.7902812411655207E+00 
    1.1684186903740018E+01 
    9.5424200543468718E+00 
    8.5983365158095690E+00 
    8.1535196079016785E+00 
    1.1547061548703367E+01 
    9.1058727547528928E+00 
    1.1673821681829494E+01 
    8.2909850692020726E+00 
    5.1220511216787177E+00 
    8.7260586562456819E+00 
    7.1859520178742109E+00 
    1.0686720392542563E+01 
    1.2643426461599766E+01 
    1.1669153816735193E+01 
    1.2532978871188583E+01 
    8.3589948696444836E+00 
    5.6422616318881991E+00 
    5.7202899367946429E+00 
    8.7739306295416846E+00 
    8.6373275928441817E+00 
    1.2537409994282225E+00 
    1.1251226425632298E+01 
    1.2956783944654520E+01 
    8.0326460546964089E+00 
    5.2499816464479050E+00 
    9.7818230758933993E+00 
    1.1682801450781545E+01 
    6.1769534864516791E+00 
    4.2135114738967445E+00 
    8.6117990927013235E+00 
    1.1774571869638383E+01 
    1.2309051142451310E+01 
    1.2207215477224347E+01 
    1.2084801668250563E+01 
    6.0331819078760409E+00 
    8.5883124840446747E+00 
    1.1275808380895047E+01 
    6.7163577754854611E+00 
    1.1928362521186020E+01 
    1.0284811335840390E+01 
    5.8001589422466173E+00 
    1.1773534410644521E+01 
    1.2554987854736165E+01 
    1.1790426116852021E+01 
    5.9637437475427895E+00 
    8.6851564150571257E+00 
    6.5215766212605937E+00 
    8.1792153481992447E+00 
    1.1675748509093552E+01 
    1.1665889280743075E+01 
    5.9969001803832374E+00 
    1.2426024322092706E+01 
    9.1566633052980162E+00 
    1.1704773478949095E+01 
    1.2408547461638213E+01 
    1.1688581662372863E+01 
    1.0890209648191249E+01 
    1.3254422736834155E+01 
    8.0094199283130205E+00 
    1.2506669432025667E+01 
    1.1731761707400649E+01 
    1.2569815531669086E+01 
    1.2420216301162620E+01 
    8.0907520699610291E+00 
    8.4966006119373976E+00 
    8.0232921658358389E+00 
    1.0478217913329381E+01 
    3.4444022729673813E+00 
    8.7117864470950881E+00 
    1.3370299678705992E+01 
    8.8815496163378604E+00 
    9.0471396417893857E+00 
    1.2545665638081585E+01 
    1.2756132410790270E+01 
    7.9884810046986745E+00 
    1.1687742244570245E+01 
    1.1663326858832937E+01 
    9.0361762039563249E+00 
    1.2380844452507858E+01 
    6.0989197723473678E+00 
    3.9157187563515405E+00 
    9.2849561231065980E+00 
    8.8936662424273631E+00 
    1.1667287782720361E+01 
    5.6274785976195068E+00 
    1.2135728915947759E+01 
    3.9906652755029284E+00 
    8.8373936894204714E+00 
    8.1651339040612303E+00 
    8.6634278157384035E+00 
    1.4578667013583887E+01 
    3.3467097483182440E+00 
    8.6319181044019988E+00 
    1.0223172416357251E+01 
    8.2694270676098203E+00 
    6.5473940358401164E+00 
    1.2240407442417135E+01 
    1.4169670795920331E+01 
    1.2365738681139405E+01 
    8.5781202130663754E+00 
    4.9641189852023810E+00 
    1.4030658358473691E+01 
    1.1908804138941765E+01 
    6.1518553155097555E+00 
    8.1946311204296496E+00 
    1.2916998536425412E+01 
    2.8383751350811082E+00 
    8.9386144989163760E+00 
    1.2348540622277740E+01 
    8.6766078450101531E+00 
    7.5232964482333466E+00 
    8.6701766839790722E+00 
    1.1467180237209700E+01 
    8.6575156858108784E+00 
    4.4417716206462066E+00 
    7.9365418931864451E-01 
    6.3976400788582826E+00 
    1.3108948972055739E+01 
    8.0215268679069087E+00 
    9.8434122426319917E+00 
    9.4048926736538689E+00 
    1.0743836128994726E+01 
    8.6905584389098909E+00 
    1.1831568453023412E+01 
    1.4592163858963788E+01 
    1.0208709026613384E+01 
    1.2482493671656053E+01 
    4.6819065933345860E-01 
    1.1667453950658965E+01 
    4.7992849775705029E+00 
    1.3525893225322561E+01 
    8.6450374560096979E+00 
    7.6208953871386234E+00 
    6.6429877943915470E+00 
    4.6278397628880734E+00 
    9.6553312301514538E+00 
    6.7769535069832934E+00 
    1.0597108628700276E+01 
    1.9489901703041981E+00 
    9.5718676688017901E+00 
    1.1610342825390763E+01 
    5.1936580656605935E+00 
    1.2084166375203912E+01 
    1.3357584344887011E+01 
    1.1966207315877043E+01 
    8.5237812016589842E+00 
    8.6583522479823660E+00 
    8.6379703479913221E+00 
    5.0410751636279434E+00 
    7.8003658805357050E+00 
    7.6754565368079950E+00 
    8.6275147644840295E+00 
    7.9701798034659941E+00 
    5.9397735983352018E-01 
    5.4879223202763114E+00 
    8.2942603759017075E+00 
    8.6048829736991106E+00 
    1.0886663630519573E+01 
    1.8587303214784927E+00 
    9.0005883704703606E+00 
    8.8986071274188614E+00 
    3.2165484249764349E+00 
    1.1855893264179320E+01 
    7.4281549009134915E+00 
    8.7770049140129611E+00 
    1.1909138890699513E+01 
    4.6776292687647691E+00 
    1.1948071580726793E+01 
    7.5101519530170746E+00 
    8.4689098237790261E-01 
    8.0747200163445818E+00 
    1.2439069180623481E+01 
    1.1668028833546380E+01 
    1.1687413787283544E+01 
    8.9745184533351363E+00 
    8.8404349225151133E+00 
    7.4036176384855557E+00 
    5.9526546997731131E+00 
    1.2007141101336455E+01 
    8.1948286712047427E+00 
    5.7332498948487336E+00 
    1.1681249869198629E+01 
    1.2271718225925602E+01 
    8.7984029145308345E+00 
    8.4569061862659751E+00 
    1.4479997279077690E+01 
    9.0369474601406115E+00 
    1.2017495864198997E+01 
    7.0572492658457904E+00 
    1.4620188833272211E+01 
    5.6865781320368018E+00 
    7.7708934978512128E+00 
    6.3631037503643970E+00 
    9.2401443427103072E+00 
    7.3051955606587979E+00 
    1.4604406239012750E+01 
    9.0792172479867652E+00 
    1.1409838232517130E+01 
    5.8482331589738852E+00 
    8.6856792376720797E+00 
    1.1878331212147387E+01 
    7.3246715366762842E+00 
    6.2208206430425239E+00 
    9.4972316422943006E+00 
    1.2075033952565738E+01 
    6.2770369129897583E+00 
    8.1810373241791616E+00 
    8.4806968533315210E+00 
    1.1646772093018070E+01 
    8.2937599974242193E+00 
    1.2051104138021728E+01 
    1.2595551757341843E+01 
    7.4263605007010476E+00 
    7.2875473826559105E+00 
    6.8210133017190469E+00 
    1.1768502745860367E+01 
    8.9003019561134007E+00 
    1.4205156917291999E+01 
    1.1106230025880603E+01 
    1.1845054274484177E+01 
    1.3913747501217500E+01 
    1.3360944042926706E+01 
    8.7310432570935870E+00 
    8.6136817843783540E+00 
    1.1468311887783068E+01 
    1.1699326163344406E+01 
    1.2160368934555510E+01 
    1.1928226916035166E+01 
    1.4497307194065797E+01 
    9.0365381443854620E+00 
    7.5092184573213583E+00 
    9.0060117503742401E+00 
    1.2518933183665157E+01 
    8.8119269000272720E+00 
    5.0874316896221687E+00 
    8.5093542236215942E+00 
    1.2889214567285860E+01 
    8.9302862609830189E+00 
    7.5123258942903091E+00 
    8.4216754991188889E+00 
    1.2986645682253712E+01 
    1.1708718401013902E+01 
    7.1542945528187945E+00 
    1.3111561484107947E+01 
    8.7555206838381174E+00 
    1.2142567557969095E+01 
    1.2999942621798366E+01 
    9.1259817521904036E+00 
    4.6712720636562786E+00 
    9.4739938601550211E+00 
    4.8305244546552135E+00 
    8.8536509560184022E+00 
    8.6784344867707404E+00 
    9.9647377340394829E+00 
    5.0995154209332272E+00 
    1.0582011852599662E+01 
    8.6984193189285559E+00 
    1.1918747875997219E+01 
    9.0799895849835366E+00 
    6.9499687922519682E+00 
    8.3052824599058326E+00 
    9.1383317402351416E+00 
    9.1285296136670961E+00 
    1.2641237769943745E+01 
    7.1939813546587503E+00 
    7.0757445938047372E+00 
    5.3495242660690829E+00 
    1.2179236871619656E+01 
    8.3436602831886884E+00 
    1.1535627818714625E+01 
    8.6486128753811773E+00 
    5.8254279829643005E+00 
    1.1737619956440605E+01 
    8.6233815014575246E+00 
    6.3277075034185541E+00 
    6.6868640883707888E+00 
    6.9122080305814526E+00 
    1.1947422900038239E+01 
    8.6293621828882472E+00 
    1.2491666969615911E+01 
    8.5810588869347519E+00 
    8.5188066477993427E+00 
    8.1063594915411219E+00 
    1.1808054529890693E+01 
    8.4342142671134646E+00 
    6.9461953527746738E+00 
    1.3347885298505464E+01 
    1.1877934488928529E+01 
    5.9572579632038885E+00 
    2.3517149139571996E+00 
    8.6190963856623597E+00 
    8.0687411241879499E+00 
    7.2843224411219278E+00 
    7.9361674083309817E+00 
    1.1838813101928931E+01 
    8.3576055665632865E+00 
    7.5643830445527964E+00 
    1.1718135399092187E+01 
    5.9034115536171212E+00 
    1.1434665423616048E+01 
    7.7922370099911298E+00 
    6.8853715586827713E+00 
    7.3484947610555249E+00 
    1.2216391137174957E+01 
    8.6663306410725358E+00 
    8.6739670475438828E+00 
    5.1794849461859886E+00 
    5.5751070097125481E+00 
    1.0873520665601335E+01 
    8.6832655628758140E+00 
    8.6572277256144261E+00 
    1.3095836874129303E+01 
    7.0739606341897350E+00 
    8.6943613401950532E+00 
    6.1085263803614636E+00 
    6.3058803155750356E+00 
    1.1804127976251046E+01 
    8.3238199904825247E+00 
    6.1145302431447330E+00 
    9.1157662451963226E+00 
    8.5590115719144286E+00 
    1.1806280245123384E+01 
    1.3180823945791941E+01 
    9.0918435593884761E-01 
    8.6236424059929995E+00 
    8.8923454580125547E+00 
    1.1859493503293161E+01 
    8.1379878470713383E+00 
    8.6410591360140288E+00 
    1.2688295278384940E+01 
    7.3747449338066051E+00 
    6.1651337385759959E+00 
    1.0481802288226321E+01 
    1.1679763911919563E+01 
    1.2570393752073787E+01 
    1.2805523906528585E+01 
    8.4785321744114928E+00 
    8.6163058201624558E+00 
    9.7115507590747132E+00 
    5.6625722684431077E+00 
    1.1786667313024880E+01 
    6.6203270889029584E+00 
    5.8951488100724809E+00 
    1.0831457530860833E+01 
    1.0178177327945969E+01 
    5.7817306196861615E+00 
    1.1711016826352839E+01 
    1.2556994873464230E+01 
    9.0504400179255668E+00 
    1.3272955601693820E+01 
    1.1737904754471950E+01 
    8.2202193426117844E+00 
    1.2322962668479931E+01 
    6.3087917207192943E+00 
    1.1694610954366746E+01 
    8.6229082470357223E+00 
    8.5843827028835697E+00 
    1.3249552217265547E+01 
    8.3728230442501150E+00 
    1.0573889936955201E+01 
    7.3336891345390365E+00 
    1.2660844103302113E+01 
    1.1615604990041778E+01 
    7.6375766469353188E+00 
    1.1660295162559033E+01 
    7.7933503085678870E+00 
    8.6508332924073592E+00 
    1.2521267755144189E+01 
    1.1925238855557309E+01 
    1.2560097867715735E+01 
    1.1862935781405383E+01 
    7.8097333538489595E+00 
    8.0123035776080389E+00 
    1.2565604713937143E+01 
    8.1185094244056746E+00 
    1.1557752782534676E+01 
    8.3655899666580140E+00 
    3.4730287072977344E+00 
    5.9537674585506135E+00 
    5.5186329663102542E+00 
    1.2523988594741732E+01 
    1.3185707090687327E+01 
    1.1676208589630530E+01 
    1.0042945246352389E+01 
    1.1918715791145338E+01 
    1.1715538353716427E+01 
    1.2218466961187850E+01 
    5.0056689958879588E+00 
    3.2350306605340333E+00 
    9.8571020034829111E+00 
    8.2852676714428455E+00 
    1.1840431751691991E+01 
    1.1838400886275998E+01 
    8.9073516897964176E+00 
    1.1869877247974102E+01 
    8.6111505053848312E+00 
    8.5096470850264936E+00 
    4.5206019404252968E+00 
    3.2221894701511644E+00 
    1.2983568609321599E+01 
    6.7014788807760466E+00 
    7.5826437251582739E+00 
    8.8197971604828567E+00 
    1.4480293887862892E+01 
    8.9009299465949372E+00 
    8.8865341768094659E+00 
    3.6496167959509682E+00 
    8.9014282017605684E+00 
    8.9132524471170047E+00 
    1.2109822377773501E+01 
    7.3567761091291350E+00 
    8.2419551631228440E+00 
    1.3136000388349782E+01 
    8.6313422226554053E+00 
    1.1690236009718499E+01 
    1.1908795169449945E+01 
    1.0705905657606186E+01 
    7.2835919663129323E+00 
    1.1863216868302153E+01 
    8.4294950776653312E+00 
    1.1864939545537050E+01 
    1.1635084227791992E+01 
    1.2541082961181425E+01 
    1.1858903990483283E+01 
    1.1136623199372623E+01 
    8.6212220227511320E+00 
    5.7351298596344362E+00 
    1.4360174342417643E+01 
    6.7512191427940769E+00 
    1.2475054509871612E+01 
    8.6187326406804559E+00 
    7.1224730778238285E+00 
    4.2637144597276038E+00 
    8.9428265083734857E+00 
    1.1850962935918240E+01 
    1.1849178033824057E+01 
    8.6318414299836057E+00 
    8.6131157708727564E+00 
    1.3326570274002293E+01 
    1.2754470911106862E+01 
    8.9175064202917174E+00 
    3.0104072903262327E+00 
    1.1116795158021118E+01 
    1.4603118074495384E+01 
    8.6244220728746370E+00 
    1.0368422674088007E+01 
    8.1336431252355972E+00 
    1.4227331785313263E+01 
    1.2825915902763679E+01 
    1.2598159657989347E+01 
    8.9363717866243864E+00 
    3.9881240891076755E+00 
    8.0967875796644417E+00 
    8.1577907735302890E+00 
    8.2047376995728332E+00 
    3.2746531401832795E+00 