# vtk DataFile Version 2.0
Pressure Field Data 
ASCII 
DATASET UNSTRUCTURED_GRID 

POINTS 2860 double 

    0.0000000000000000E+00     0.0000000000000000E+00     0.0000000000000000E+00 
    1.0000000000000000E+00     0.0000000000000000E+00     0.0000000000000000E+00 
    1.0000000000000000E+00     1.0000000000000000E+00     0.0000000000000000E+00 
    0.0000000000000000E+00     1.0000000000000000E+00     0.0000000000000000E+00 
    2.5000000000000000E-01     2.5000000000000000E-01     0.0000000000000000E+00 
    7.5000000000000000E-01     2.5000000000000000E-01     0.0000000000000000E+00 
    7.5000000000000000E-01     7.5000000000000000E-01     0.0000000000000000E+00 
    2.5000000000000000E-01     7.5000000000000000E-01     0.0000000000000000E+00 
    3.1249999999942091E-02     0.0000000000000000E+00     0.0000000000000000E+00 
    6.2499999999873469E-02     0.0000000000000000E+00     0.0000000000000000E+00 
    9.3749999999826514E-02     0.0000000000000000E+00     0.0000000000000000E+00 
    1.2499999999977961E-01     0.0000000000000000E+00     0.0000000000000000E+00 
    1.5624999999968961E-01     0.0000000000000000E+00     0.0000000000000000E+00 
    1.8749999999959971E-01     0.0000000000000000E+00     0.0000000000000000E+00 
    2.1874999999950970E-01     0.0000000000000000E+00     0.0000000000000000E+00 
    2.4999999999941969E-01     0.0000000000000000E+00     0.0000000000000000E+00 
    2.8124999999932920E-01     0.0000000000000000E+00     0.0000000000000000E+00 
    3.1249999999923850E-01     0.0000000000000000E+00     0.0000000000000000E+00 
    3.4374999999914790E-01     0.0000000000000000E+00     0.0000000000000000E+00 
    3.7499999999905720E-01     0.0000000000000000E+00     0.0000000000000000E+00 
    4.0624999999896660E-01     0.0000000000000000E+00     0.0000000000000000E+00 
    4.3749999999887590E-01     0.0000000000000000E+00     0.0000000000000000E+00 
    4.6874999999878530E-01     0.0000000000000000E+00     0.0000000000000000E+00 
    4.9999999999869471E-01     0.0000000000000000E+00     0.0000000000000000E+00 
    5.3124999999877620E-01     0.0000000000000000E+00     0.0000000000000000E+00 
    5.6249999999885780E-01     0.0000000000000000E+00     0.0000000000000000E+00 
    5.9374999999893940E-01     0.0000000000000000E+00     0.0000000000000000E+00 
    6.2499999999902101E-01     0.0000000000000000E+00     0.0000000000000000E+00 
    6.5624999999910261E-01     0.0000000000000000E+00     0.0000000000000000E+00 
    6.8749999999918421E-01     0.0000000000000000E+00     0.0000000000000000E+00 
    7.1874999999926570E-01     0.0000000000000000E+00     0.0000000000000000E+00 
    7.4999999999934730E-01     0.0000000000000000E+00     0.0000000000000000E+00 
    7.8124999999942890E-01     0.0000000000000000E+00     0.0000000000000000E+00 
    8.1249999999951039E-01     0.0000000000000000E+00     0.0000000000000000E+00 
    8.4374999999959199E-01     0.0000000000000000E+00     0.0000000000000000E+00 
    8.7499999999967359E-01     0.0000000000000000E+00     0.0000000000000000E+00 
    9.0624999999975520E-01     0.0000000000000000E+00     0.0000000000000000E+00 
    9.3749999999983680E-01     0.0000000000000000E+00     0.0000000000000000E+00 
    9.6874999999991840E-01     0.0000000000000000E+00     0.0000000000000000E+00 
    1.0000000000000000E+00     3.1249999999942091E-02     0.0000000000000000E+00 
    1.0000000000000000E+00     6.2499999999873469E-02     0.0000000000000000E+00 
    1.0000000000000000E+00     9.3749999999826514E-02     0.0000000000000000E+00 
    1.0000000000000000E+00     1.2499999999977961E-01     0.0000000000000000E+00 
    1.0000000000000000E+00     1.5624999999968961E-01     0.0000000000000000E+00 
    1.0000000000000000E+00     1.8749999999959971E-01     0.0000000000000000E+00 
    1.0000000000000000E+00     2.1874999999950970E-01     0.0000000000000000E+00 
    1.0000000000000000E+00     2.4999999999941969E-01     0.0000000000000000E+00 
    1.0000000000000000E+00     2.8124999999932920E-01     0.0000000000000000E+00 
    1.0000000000000000E+00     3.1249999999923850E-01     0.0000000000000000E+00 
    1.0000000000000000E+00     3.4374999999914790E-01     0.0000000000000000E+00 
    1.0000000000000000E+00     3.7499999999905720E-01     0.0000000000000000E+00 
    1.0000000000000000E+00     4.0624999999896660E-01     0.0000000000000000E+00 
    1.0000000000000000E+00     4.3749999999887590E-01     0.0000000000000000E+00 
    1.0000000000000000E+00     4.6874999999878530E-01     0.0000000000000000E+00 
    1.0000000000000000E+00     4.9999999999869471E-01     0.0000000000000000E+00 
    1.0000000000000000E+00     5.3124999999877620E-01     0.0000000000000000E+00 
    1.0000000000000000E+00     5.6249999999885780E-01     0.0000000000000000E+00 
    1.0000000000000000E+00     5.9374999999893940E-01     0.0000000000000000E+00 
    1.0000000000000000E+00     6.2499999999902101E-01     0.0000000000000000E+00 
    1.0000000000000000E+00     6.5624999999910261E-01     0.0000000000000000E+00 
    1.0000000000000000E+00     6.8749999999918421E-01     0.0000000000000000E+00 
    1.0000000000000000E+00     7.1874999999926570E-01     0.0000000000000000E+00 
    1.0000000000000000E+00     7.4999999999934730E-01     0.0000000000000000E+00 
    1.0000000000000000E+00     7.8124999999942890E-01     0.0000000000000000E+00 
    1.0000000000000000E+00     8.1249999999951039E-01     0.0000000000000000E+00 
    1.0000000000000000E+00     8.4374999999959199E-01     0.0000000000000000E+00 
    1.0000000000000000E+00     8.7499999999967359E-01     0.0000000000000000E+00 
    1.0000000000000000E+00     9.0624999999975520E-01     0.0000000000000000E+00 
    1.0000000000000000E+00     9.3749999999983680E-01     0.0000000000000000E+00 
    1.0000000000000000E+00     9.6874999999991840E-01     0.0000000000000000E+00 
    9.6875000000003686E-01     1.0000000000000000E+00     0.0000000000000000E+00 
    9.3750000000011691E-01     1.0000000000000000E+00     0.0000000000000000E+00 
    9.0625000000015765E-01     1.0000000000000000E+00     0.0000000000000000E+00 
    8.7500000000017863E-01     1.0000000000000000E+00     0.0000000000000000E+00 
    8.4375000000028044E-01     1.0000000000000000E+00     0.0000000000000000E+00 
    8.1250000000040856E-01     1.0000000000000000E+00     0.0000000000000000E+00 
    7.8125000000054956E-01     1.0000000000000000E+00     0.0000000000000000E+00 
    7.5000000000066480E-01     1.0000000000000000E+00     0.0000000000000000E+00 
    7.1875000000086831E-01     1.0000000000000000E+00     0.0000000000000000E+00 
    6.8750000000102829E-01     1.0000000000000000E+00     0.0000000000000000E+00 
    6.5625000000114431E-01     1.0000000000000000E+00     0.0000000000000000E+00 
    6.2500000000129829E-01     1.0000000000000000E+00     0.0000000000000000E+00 
    5.9375000000147926E-01     1.0000000000000000E+00     0.0000000000000000E+00 
    5.6250000000168354E-01     1.0000000000000000E+00     0.0000000000000000E+00 
    5.3125000000188671E-01     1.0000000000000000E+00     0.0000000000000000E+00 
    5.0000000000205835E-01     1.0000000000000000E+00     0.0000000000000000E+00 
    4.6875000000192979E-01     1.0000000000000000E+00     0.0000000000000000E+00 
    4.3750000000180111E-01     1.0000000000000000E+00     0.0000000000000000E+00 
    4.0625000000167238E-01     1.0000000000000000E+00     0.0000000000000000E+00 
    3.7500000000154382E-01     1.0000000000000000E+00     0.0000000000000000E+00 
    3.4375000000141509E-01     1.0000000000000000E+00     0.0000000000000000E+00 
    3.1250000000128642E-01     1.0000000000000000E+00     0.0000000000000000E+00 
    2.8125000000115769E-01     1.0000000000000000E+00     0.0000000000000000E+00 
    2.5000000000102918E-01     1.0000000000000000E+00     0.0000000000000000E+00 
    2.1875000000090050E-01     1.0000000000000000E+00     0.0000000000000000E+00 
    1.8750000000077180E-01     1.0000000000000000E+00     0.0000000000000000E+00 
    1.5625000000064329E-01     1.0000000000000000E+00     0.0000000000000000E+00 
    1.2500000000051459E-01     1.0000000000000000E+00     0.0000000000000000E+00 
    9.3750000000385914E-02     1.0000000000000000E+00     0.0000000000000000E+00 
    6.2500000000257239E-02     1.0000000000000000E+00     0.0000000000000000E+00 
    3.1250000000128557E-02     1.0000000000000000E+00     0.0000000000000000E+00 
    0.0000000000000000E+00     9.6875000000003686E-01     0.0000000000000000E+00 
    0.0000000000000000E+00     9.3750000000011691E-01     0.0000000000000000E+00 
    0.0000000000000000E+00     9.0625000000015765E-01     0.0000000000000000E+00 
    0.0000000000000000E+00     8.7500000000017863E-01     0.0000000000000000E+00 
    0.0000000000000000E+00     8.4375000000028044E-01     0.0000000000000000E+00 
    0.0000000000000000E+00     8.1250000000040856E-01     0.0000000000000000E+00 
    0.0000000000000000E+00     7.8125000000054956E-01     0.0000000000000000E+00 
    0.0000000000000000E+00     7.5000000000066480E-01     0.0000000000000000E+00 
    0.0000000000000000E+00     7.1875000000086831E-01     0.0000000000000000E+00 
    0.0000000000000000E+00     6.8750000000102829E-01     0.0000000000000000E+00 
    0.0000000000000000E+00     6.5625000000114431E-01     0.0000000000000000E+00 
    0.0000000000000000E+00     6.2500000000129829E-01     0.0000000000000000E+00 
    0.0000000000000000E+00     5.9375000000147926E-01     0.0000000000000000E+00 
    0.0000000000000000E+00     5.6250000000168354E-01     0.0000000000000000E+00 
    0.0000000000000000E+00     5.3125000000188671E-01     0.0000000000000000E+00 
    0.0000000000000000E+00     5.0000000000205835E-01     0.0000000000000000E+00 
    0.0000000000000000E+00     4.6875000000192979E-01     0.0000000000000000E+00 
    0.0000000000000000E+00     4.3750000000180111E-01     0.0000000000000000E+00 
    0.0000000000000000E+00     4.0625000000167238E-01     0.0000000000000000E+00 
[...]
CELL_DATA 2795 
SCALARS Pressure double 1 
LOOKUP_TABLE default 

    5.3662739430262736E+00 
    1.1970238168200014E+01 
    8.4757169407594493E+00 
    8.0968299776072818E+00 
    6.5187270317697079E+00 
    1.1859929179364700E+01 
    1.2481274482632900E+01 
    4.8158365836875436E+00 
    8.9519370021175124E+00 
    6.8182117456916762E+00 
    5.7982911846878435E+00 
    1.1646744445329256E+01 
    1.1896641969454059E+01 
    1.1834174372918930E+01 
    7.7859678994290880E+00 
    4.7349903041633228E+00 
    7.4769172579441010E+00 
    6.1786836213519019E+00 
    1.1344250806393674E+01 
    8.4711027815147020E+00 
    8.3609379492077096E+00 
    1.1778997986303921E+01 
    7.8763175254934961E+00 
    3.1359656172908174E-01 
    1.1646711747133994E+01 
    1.1865191001561964E+01 
    1.2509508328675004E+01 
    5.5810438082462088E+00 
    1.1579911984196800E+01 
    1.2500691668842773E+01 
    8.5386024180589750E+00 
    8.6977832102096411E+00 
    6.0030866487411867E+00 
    8.4371033749983102E+00 
    2.7628296653299849E+00 
    7.4785142395315418E+00 
    8.4290526353228383E+00 
    1.2535650629179887E+01 
    1.2462449418397636E+01 
    1.1657785442016991E+01 
    6.4586493692781373E+00 
    1.1622123004306719E+01 
    6.5811725153130429E-01 
    8.3117992387066231E+00 
    1.2317325521474409E+01 
    1.2153459965280375E+01 
    1.1637686477527446E+01 
    9.2571478580683149E+00 
    1.1696699628077699E+01 
    7.6420234420596165E+00 
    7.2960441680445989E+00 
    8.6627533331233142E+00 
    8.2066418277281112E+00 
    7.5200042927831197E+00 
    8.6099110564846963E+00 
    1.1169583231596059E+01 
    1.0099251083602546E+01 
    6.5519461305330680E+00 
    1.1782790572982531E+01 
    1.1719380885012455E+01 
    8.1397826313102577E+00 
    8.1290105818741001E+00 
    8.0160289208522730E+00 
    1.2416231325328196E+01 
    1.2647974206056997E+01 
    7.4869310786233347E+00 
    8.6608263742756737E+00 
    1.1562908066402921E+01 
    9.9094517004715161E+00 
    8.1640984777823959E+00 
    1.2650176572954974E+01 
    1.1738777882008277E+01 
    7.3839242117910660E+00 
    1.2236262434132660E+01 
    8.8352777224293320E+00 
    1.1517994858951790E+01 
    1.2549990411840158E+01 
    8.7428467867789585E+00 
    5.4020945116040497E+00 
    8.6770116373278139E+00 
    1.2469094497197462E+01 
    1.2672301158148992E+01 
    7.5004544575439027E+00 
    8.5942976430257279E+00 
    1.2711260196505114E+01 
    8.4345044518854557E+00 
    7.9465896952907595E+00 
    1.0251027387739143E+01 
    5.1989602426643051E+00 
    7.3169239821823027E+00 
    8.5955728375772793E+00 
    9.0694510743717895E+00 
    1.4037605812776453E+01 
    6.3432918593972234E+00 
    8.6677955264631343E+00 
    1.1619481068158112E+01 
    1.1855522598797192E+01 
    5.6200788721210051E+00 
    8.3080038079424838E+00 
    8.6252275409583294E+00 
    1.1872762682016617E+01 
    8.6283098410059296E+00 
    1.1815241244756745E+01 
    3.4228675909799517E+00 
    5.6344181394583019E+00 
    8.8562074143162430E+00 
    1.1976618924388678E+01 
    7.4492320874289772E+00 
    7.9617219950902829E+00 
    8.6139814306590026E+00 
    7.9236887810064216E+00 
    9.8115295841162702E+00 
    7.7418436837444267E+00 
    7.3900823709800614E+00 
    5.8770432122768321E+00 
    1.0009513325317805E+01 
    8.6999157678222705E+00 
    1.2342254884143379E+01 
    7.4236700146308836E+00 
    8.0868437072519015E+00 
    1.1726737315870588E+01 
    6.8048204281453826E+00 
    1.2111602889011634E+01 
    8.5148386145390766E+00 
    8.0250145468105121E+00 
    1.1857241246280557E+01 
    8.6884342674274890E+00 
    1.2555388189719297E+01 
    1.0261259931118543E+01 
    1.1044315856678907E+01 
    1.2524239007751410E+01 
    6.3551349014662035E+00 
    8.8712243682226983E+00 
    1.1854465483725560E+01 
    2.5580978677416537E+00 
    8.5886723094861779E+00 
    1.2495171386961429E+01 
    8.0535022731296877E+00 
    9.2911768198719393E+00 
    5.5497386981054024E+00 
    1.1620049812004773E+01 
    1.4493605266144820E+01 
    1.0647068550021316E+01 
    8.0478097097874457E+00 
    7.2352503028468105E+00 
    9.2357791652340371E+00 
    8.5316869988939583E+00 
    5.8618588414713333E+00 
    1.2518904138946807E+01 
    1.1932859915383803E+01 
    1.1621058708125865E+01 
    9.0839987698443760E+00 
    7.3650885870388336E+00 
    8.3607223729965536E+00 
    1.2259348261905437E+01 
    7.5567655363584754E+00 
    8.4408841040976696E+00 
    7.6870486524704242E+00 
    9.7984283743783145E+00 
    1.4482607396137396E+01 
    1.1613502728547381E+01 
    7.3030385748528559E+00 
    1.2020713356601760E+01 
    1.1941932454146853E+01 
    1.2010400426645482E+01 
    1.2886535766986270E+01 
    1.3375524210652115E+01 
    1.2147606835108157E+01 
    8.6534576943064003E+00 
    9.1836524602646481E+00 
    1.2000606468154256E+01 
    1.2352326575852191E+01 
    6.1095195407990968E+00 
    1.1637033780969832E+01 
    1.2226027387903414E+01 
    5.9571250713240671E+00 
    1.2805819972520204E+01 
    1.2797610900357908E+01 
    1.1402354213235268E+01 
    8.9250650651969163E+00 
    2.2868596778639994E+00 
    1.2493855957685366E+01 
    8.8052578560778016E+00 
    1.2604922239813932E+01 
    7.9990063793291917E+00 
    1.2347071340593114E+01 
    8.0493402168410777E-01 
    1.1058802841826333E+01 
    8.1676740654970228E+00 
    7.3318387848325139E+00 
    7.1545211881181681E+00 
    8.4855285631503872E+00 
    9.5082454887024799E+00 
    8.7657493729745291E+00 
    5.9244673471316789E+00 
    1.2346966633980129E+01 
    1.1873287376269213E+01 
    1.0013418966227215E+01 
    8.8486260548691913E+00 
    1.3003148606495343E+00 
    6.6339318127503821E+00 
    4.6422667908924700E+00 
    1.2512149339781333E+01 
    9.6476874333204456E+00 
    1.1915394022918347E+01 
    1.1931496134700295E+01 
    7.6358691680632518E+00 
    1.0059236091874036E+01 
    1.1616423140493517E+01 
    1.2783656909903971E+01 
    5.5491284384059441E+00 
    1.0482417858791985E+01 
    8.8052307860200560E+00 
    4.9579389146478121E+00 
    7.6143655410930657E+00 
    1.0486261831104377E+01 
    1.1897669227017934E+01 
    8.5421677340631081E+00 
    1.1992084867892727E+01 
    1.1792511698539149E+01 
    1.1748857969570498E+01 
    8.3686423058215347E+00 
    7.2950359109302498E+00 
    1.1628637396322326E+01 
    7.3816959773334681E+00 
    8.6322715947975563E+00 
    7.2453005096067118E+00 
    8.3885159035820518E+00 
    1.1940026716292873E+01 
    5.3139518551855502E+00 
    7.5445258351412861E+00 
    1.2437037898046645E+01 
    8.3837409666963296E+00 
    9.5484280481570600E+00 
    5.4531336263138286E+00 
    7.4272823268506247E+00 
    1.1774486107183387E+01 
    1.2039778293505785E+01 
    4.4637329948778826E+00 
    8.3847206437854780E+00 
    7.2798484786690993E+00 
    1.3162394996532093E+01 
    1.2680467232018495E+01 
    1.3398702636485369E+01 
    8.4058889435209476E+00 
    1.1915612520902812E+01 
    1.1580269260518261E+01 
    8.2865149558166600E+00 
    1.1621035311845469E+01 
    8.8486427974500348E+00 
    4.9847760377789969E+00 
    8.5926516676512694E+00 
    1.2426275413743307E+01 
    1.1618267640132204E+01 
    5.7713437773556580E+00 
    1.1642974684557791E+01 
    9.5125808689331084E+00 
    8.5728422714945189E+00 
    8.1265217092294826E+00 
    1.1506381087452384E+01 
    9.0800083247177401E+00 
    1.1632667175758884E+01 
    8.2633322266712685E+00 
    5.1016692889837625E+00 
    8.6980201339600374E+00 
    7.1611727757445598E+00 
    1.0649561665974074E+01 
    1.2598866275733339E+01 
    1.1628094732146614E+01 
    1.2488693445379882E+01 
    8.3339477639106629E+00 
    5.6236844986645131E+00 
    5.7014287001990640E+00 
    8.7503195364207471E+00 
    8.6096740218092940E+00 
    1.2491130118778306E+00 
    1.1211702212207033E+01 
    1.2911314376140581E+01 
    8.0054626131518436E+00 
    5.2305431330345895E+00 
    9.7475534309559162E+00 
    1.1641587219250976E+01 
    6.1555032678367514E+00 
    4.1982671920693075E+00 
    8.5844511294925852E+00 
    1.1732974432855290E+01 
    1.2265464156746637E+01 
    1.2163656014441720E+01 
    1.2041848500963761E+01 
    6.0109780327567588E+00 
    8.5626591940367724E+00 
    1.1235959556861093E+01 
    6.6941757055497400E+00 
    1.1885535898634428E+01 
    1.0246512264097747E+01 
    5.7810066433414331E+00 
    1.1731834882176127E+01 
    1.2510428961372380E+01 
    1.1748024445875680E+01 
    5.9430855106439218E+00 
    8.6573085084773105E+00 
    6.4992237091552694E+00 
    8.1526891685667149E+00 
    1.1634573509175681E+01 
    1.1624758241992414E+01 
    5.9761700928467407E+00 
    1.2381855908123033E+01 
    9.1274716138505916E+00 
    1.1664018705062624E+01 
    1.2364515028548213E+01 
    1.1647666023058045E+01 
    1.0852136444652034E+01 
    1.3208577529127528E+01 
    7.9827132932042879E+00 
    1.2462477685499948E+01 
    1.1690448438469319E+01 
    1.2525428949103727E+01 
    1.2376090169704391E+01 
    8.0638542737231766E+00 
    8.4699985779277824E+00 
    7.9961059564876900E+00 
    1.0441949212978276E+01 
    3.4320899514849414E+00 
    8.6863652881835662E+00 
    1.3324316278713399E+01 
    8.8528040469651526E+00 
    9.0181241920473489E+00 
    1.2501338970123427E+01 
    1.2711340428526778E+01 
    7.9630687462969005E+00 
    1.1646512121548522E+01 
    1.1622233774811619E+01 
    9.0071812546139505E+00 
    1.2336873141774136E+01 
    6.0791872890679439E+00 
    3.9026448478591576E+00 
    9.2555959231461209E+00 
    8.8648828221005171E+00 
    1.1626126713810750E+01 
    5.6076972731454102E+00 
    1.2092583101257581E+01 
    3.9772247058410035E+00 
    8.8088086819695626E+00 
    8.1396438696256350E+00 
    8.6356760892556839E+00 
    1.4531544687976050E+01 
    3.3348049837076728E+00 
    8.6064532263445592E+00 
    1.0187543892929016E+01 
    8.2444054532303603E+00 
    6.5216571425800369E+00 
    1.2197115478804996E+01 
    1.4122752364151022E+01 
    1.2321763725614423E+01 
    8.5526232941516902E+00 
    4.9459923095217624E+00 
    1.3983982621643408E+01 
    1.1866268977361903E+01 
    6.1251645727035404E+00 
    8.1668068899491040E+00 
    1.2871888371423797E+01 
    2.8282684257494690E+00 
    8.9097770862082548E+00 
    1.2304525527095228E+01 
    8.6489137807406529E+00 
    7.4986498679760132E+00 
    8.6448030979219173E+00 
    1.1425688894678677E+01 
    8.6298869881237916E+00 
    4.4258673376424245E+00 
    7.9062028054741873E-01 
    6.3779533214369062E+00 
    1.3063358805787079E+01 
    7.9943512054694921E+00 
    9.8066343618822351E+00 
    9.3767265938044293E+00 
    1.0704480265141751E+01 
    8.6629099198134405E+00 
    1.1789295670047562E+01 
    1.4545034588436428E+01 
    1.0173625606166050E+01 
    1.2438381537260282E+01 
    4.6650236549320057E-01 
    1.1626311682802061E+01 
    4.7809715344489412E+00 
    1.3479730041344881E+01 
    8.6195884670300735E+00 
    7.5928278416767423E+00 
    6.6202041006503833E+00 
    4.6110110753901816E+00 
    9.6228180418503992E+00 
    6.7531020930046255E+00 
    1.0560317933684882E+01 
    1.9421934853458402E+00 
    9.5416950463807186E+00 
    1.1569400513305300E+01 
    5.1764767134646528E+00 
    1.2040265379581271E+01 
    1.3311701841638930E+01 
    1.1922306374757712E+01 
    8.4982723606059345E+00 
    8.6306172291988474E+00 
    8.6125225456159811E+00 
    5.0229745159618187E+00 
    7.7737162023986830E+00 
    7.6491614683099058E+00 
    8.6020427812662952E+00 
    7.9432014727270124E+00 
    5.9177122632366874E-01 
    5.4654495029797490E+00 
    8.2660050860581205E+00 
    8.5793947938844557E+00 
    1.0848651743195543E+01 
    1.8521322243937599E+00 
    8.9716504514027733E+00 
    8.8698324829697714E+00 
    3.2050772760444537E+00 
    1.1812954719985241E+01 
    7.4028230310403202E+00 
    8.7486961349313859E+00 
    1.1866499869466699E+01 
    4.6607669045800719E+00 
    1.1904419794387806E+01 
    7.4844008607854429E+00 
    8.4391157714595844E-01 
    8.0474105411878565E+00 
    1.2395003611299915E+01 
    1.1626903901063411E+01 
    1.1646367363307251E+01 
    8.9510838077065475E+00 
    8.8117966122017375E+00 
    7.3781071303839232E+00 
    5.9275374495314761E+00 
    1.1964055858939945E+01 
    8.1670301755049604E+00 
    5.7108934113381817E+00 
    1.1640072295077596E+01 
    1.2227831584844630E+01 
    8.7743265422815515E+00 
    8.4303102008484743E+00 
    1.4432961673636228E+01 
    9.0079491706337329E+00 
    1.1974568537632827E+01 
    7.0328304650117328E+00 
    1.4573061691797873E+01 
    5.6678121736393630E+00 
    7.7456868746932850E+00 
    6.3430059455516430E+00 
    9.2107410605614621E+00 
    7.2839792468777631E+00 
    1.4557285230387812E+01 
    9.0501407066392403E+00 
    1.1368801492864185E+01 
    5.8289629892601464E+00 
    8.6578269941063031E+00 
    1.1835925160173639E+01 
    7.3019690537093078E+00 
    6.1956950465670468E+00 
    9.4644476094706533E+00 
    1.2032311245564054E+01 
    6.2563255655727854E+00 
    8.1554754032803700E+00 
    8.4540496646229730E+00 
    1.1605717693354080E+01 
    8.2691903290877242E+00 
    1.2008255254000987E+01 
    1.2551103090200952E+01 
    7.4008048461896285E+00 
    7.2623913767271473E+00 
    6.7985406842707379E+00 
    1.1726819511765557E+01 
    8.8704941089003668E+00 
    1.4158235280549279E+01 
    1.1066744713484493E+01 
    1.1802729249718405E+01 
    1.3867198139813356E+01 
    1.3315093142870733E+01 
    8.7028636898537552E+00 
    8.5881957294204376E+00 
    1.1427884600017334E+01 
    1.1658047790552281E+01 
    1.2116703710358085E+01 
    1.1885586859075497E+01 
    1.4450205555087233E+01 
    9.0075409388811476E+00 
    7.4834182230805641E+00 
    8.9759068941007065E+00 
    1.2474692843712548E+01 
    8.7833389219058127E+00 
    5.0703566932757465E+00 
    8.4838372492483387E+00 
    1.2844032215658068E+01 
    8.9014643358907239E+00 
    7.4865453054589928E+00 
    8.3952404587512639E+00 
    1.2941333221815198E+01 
    1.1666974354215034E+01 
    7.1284582051974468E+00 
    1.3066027111250396E+01 
    8.7271529636487362E+00 
    1.2099405352105398E+01 
    1.2954618431362142E+01 
    9.0933685346667392E+00 
    4.6543902977318794E+00 
    9.4402763043800064E+00 
    4.8129970000755256E+00 
    8.8249275519855264E+00 
    8.6509695687437898E+00 
    9.9296249644765400E+00 
    5.0810174968742423E+00 
    1.0544637718329927E+01 
    8.6705572647600420E+00 
    1.1876163865771991E+01 
    9.0487849763995456E+00 
    6.9208486536431586E+00 
    8.2796737258171760E+00 
    9.1125981431976193E+00 
    9.0994179073321551E+00 
    1.2596468485863754E+01 
    7.1691119608542904E+00 
    7.0513134198923728E+00 
    5.3301854323895963E+00 
    1.2135628415001207E+01 
    8.3177006097265576E+00 
    1.1494671148297103E+01 
    8.6209909081684923E+00 
    5.8045276457331454E+00 
    1.1695787378676513E+01 
    8.5958780971574758E+00 
    6.3053863184030838E+00 
    6.6636433950386040E+00 
    6.8883495969427857E+00 
    1.1904675447714961E+01 
    8.6038943454132060E+00 
    1.2447503168047405E+01 
    8.5537403992495147E+00 
    8.4918950075256685E+00 
    8.0807035587598204E+00 
    1.1765886690662873E+01 
    8.4082064998360888E+00 
    6.9222584997346237E+00 
    1.3302033588959908E+01 
    1.1835421092044321E+01 
    5.9376312929975228E+00 
    2.3433401385288213E+00 
    8.5935952553557851E+00 
    8.0425373933942605E+00 
    7.2591445834700590E+00 
    7.9106099109275654E+00 
    1.1796948475469565E+01 
    8.3319587302871678E+00 
    7.5389042906611587E+00 
    1.1676774003162310E+01 
    5.8839167789347302E+00 
    1.1394398654726629E+01 
    7.7653023699221269E+00 
    6.8593745712495382E+00 
    7.3231253406492378E+00 
    1.2173019336193940E+01 
    8.6385661619583232E+00 
    8.6461733658110056E+00 
    5.1609908022087669E+00 
    5.5555223904088882E+00 
    1.0834245638153105E+01 
    8.6554305251891570E+00 
    8.6318462000671623E+00 
    1.3050329254664547E+01 
    7.0495826409905096E+00 
    8.6664662263158991E+00 
    6.0886814381964243E+00 
    6.2851643714545160E+00 
    1.1761822675937314E+01 
    8.2980569230852677E+00 
    6.0934274304162210E+00 
    9.0854219691142717E+00 
    8.5320752527850967E+00 
    1.1764048648036013E+01 
    1.3135163693738317E+01 
    9.0604191280317092E-01 
    8.5981474400360511E+00 
    8.8635756071927059E+00 
    1.1817097375834052E+01 
    8.1106474631794736E+00 
    8.6133861476762341E+00 
    1.2643048934649544E+01 
    7.3493224856756454E+00 
    6.1438177784514432E+00 
    1.0445525382075648E+01 
    1.1638572190458241E+01 
    1.2526021860109559E+01 
    1.2760688696310005E+01 
    8.4528325415358108E+00 
    8.5908176119789967E+00 
    9.6787389121716014E+00 
    5.6439791312463630E+00 
    1.1745025230143396E+01 
    6.5976483600279652E+00 
    5.8756525390597405E+00 
    1.0793392006173166E+01 
    1.0143257046883431E+01 
    5.7627158518970472E+00 
    1.1669662163912323E+01 
    1.2512649901807574E+01 
    9.0214179632905154E+00 
    1.3227138505708796E+01 
    1.1696437664827130E+01 
    8.1936911889725277E+00 
    1.2279249664415440E+01 
    6.2889441664416843E+00 
    1.1653348637725694E+01 
    8.5974230354470986E+00 
    8.5587427230381330E+00 
    1.3203725843293602E+01 
    8.3465879917222612E+00 
    1.0537171791054833E+01 
    7.3084171609797419E+00 
    1.2616236970735141E+01 
    1.1574651065620124E+01 
    7.6112931369906587E+00 
    1.1619256378628558E+01 
    7.7691609903739360E+00 
    8.6230703771062522E+00 
    1.2477029878186878E+01 
    1.1882442258214271E+01 
    1.2515748195007934E+01 
    1.1820511325593831E+01 
    7.7831054653639784E+00 
    7.9859500255847484E+00 
    1.2521231020457050E+01 
    8.0920316410925928E+00 
    1.1516961261495911E+01 
    8.3400223529467343E+00 
    3.4606220818368549E+00 
    5.9341136370928433E+00 
    5.5004146417420987E+00 
    1.2479736483153159E+01 
    1.3140021305674258E+01 
    1.1635104711293092E+01 
    1.0011460458369791E+01 
    1.1876495648648188E+01 
    1.1674192524383862E+01 
    1.2175254790372536E+01 
    4.9876484854239402E+00 
    3.2234976758490168E+00 
    9.8261802313521311E+00 
    8.2579560481999170E+00 
    1.1798576395684396E+01 
    1.1796553017008360E+01 
    8.8783927557982629E+00 
    1.1827905280942634E+01 
    8.5856565294073661E+00 
    8.4820878908620791E+00 
    4.5043194536591518E+00 
    3.2107075160844101E+00 
    1.2938297624679851E+01 
    6.6828573713053450E+00 
    7.5566747310855549E+00 
    8.7912577543864590E+00 
    1.4433236578079216E+01 
    8.8721456659998292E+00 
    8.8560999995448171E+00 
    3.6370115858132683E+00 
    8.8726194261287965E+00 
    8.8843883991332593E+00 
    1.2066167004888886E+01 
    7.3314555741334271E+00 
    8.2148120474191710E+00 
    1.3090423357295915E+01 
    8.6058508583609932E+00 
    1.1649075306008674E+01 
    1.1865813638856963E+01 
    1.0670910481674614E+01 
    7.2658767019590664E+00 
    1.1820770185395761E+01 
    8.4032856450104614E+00 
    1.1821789001007382E+01 
    1.1594071243080334E+01 
    1.2496781030804316E+01 
    1.1816538205319919E+01 
    1.1097487542578168E+01 
    8.5957366694663833E+00 
    5.7161923705016360E+00 
    1.4313192927422808E+01 
    6.7280234325819848E+00 
    1.2431045519756781E+01 
    8.5932394845976834E+00 
    7.0980596365261537E+00 
    4.2499358594926289E+00 
    8.9137913297053828E+00 
    1.1808597457229538E+01 
    1.1806770277839497E+01 
    8.6041543650464405E+00 
    8.5876044927379311E+00 
    1.3280679763022706E+01 
    1.2709740426155813E+01 
    8.8886924065481416E+00 
    2.9996562675633895E+00 
    1.1077489405502654E+01 
    1.4556013051847739E+01 
    8.5989456438257754E+00 
    1.0334575638562306E+01 
    8.1061966454642711E+00 
    1.4180478600407829E+01 
    1.2780985620432132E+01 
    1.2553218891814646E+01 
    8.9075303409554305E+00 
    3.9741912553547349E+00 
    8.0693801801168625E+00 
    8.1304340935718731E+00 
    8.1777234405785570E+00 
    3.2630551182969625E+00 