# vtk DataFile Version 2.0
Pressure Field Data 
ASCII 
DATASET UNSTRUCTURED_GRID 

POINTS 2860 double 

    0.0000000000000000E+00     0.0000000000000000E+00     0.0000000000000000E+00 
    1.0000000000000000E+00     0.0000000000000000E+00     0.0000000000000000E+00 
    1.0000000000000000E+00     1.0000000000000000E+00     0.0000000000000000E+00 
    0.0000000000000000E+00     1.0000000000000000E+00     0.0000000000000000E+00 
    2.5000000000000000E-01     2.5000000000000000E-01     0.0000000000000000E+00 
    7.5000000000000000E-01     2.5000000000000000E-01     0.0000000000000000E+00 
    7.5000000000000000E-01     7.5000000000000000E-01     0.0000000000000000E+00 
    2.5000000000000000E-01     7.5000000000000000E-01     0.0000000000000000E+00 
    3.1249999999942091E-02     0.0000000000000000E+00     0.0000000000000000E+00 
    6.2499999999873469E-02     0.0000000000000000E+00     0.0000000000000000E+00 
    9.3749999999826514E-02     0.0000000000000000E+00     0.0000000000000000E+00 
    1.2499999999977961E-01     0.0000000000000000E+00     0.0000000000000000E+00 
    1.5624999999968961E-01     0.0000000000000000E+00     0.0000000000000000E+00 
    1.8749999999959971E-01     0.0000000000000000E+00     0.0000000000000000E+00 
    2.1874999999950970E-01     0.0000000000000000E+00     0.0000000000000000E+00 
    2.4999999999941969E-01     0.0000000000000000E+00     0.0000000000000000E+00 
    2.8124999999932920E-01     0.0000000000000000E+00     0.0000000000000000E+00 
    3.1249999999923850E-01     0.0000000000000000E+00     0.0000000000000000E+00 
    3.4374999999914790E-01     0.0000000000000000E+00     0.0000000000000000E+00 
    3.7499999999905720E-01     0.0000000000000000E+00     0.0000000000000000E+00 
    4.0624999999896660E-01     0.0000000000000000E+00     0.0000000000000000E+00 
    4.3749999999887590E-01     0.0000000000000000E+00     0.0000000000000000E+00 
    4.6874999999878530E-01     0.0000000000000000E+00     0.0000000000000000E+00 
    4.9999999999869471E-01     0.0000000000000000E+00     0.0000000000000000E+00 
    5.3124999999877620E-01     0.0000000000000000E+00     0.0000000000000000E+00 
    5.6249999999885780E-01     0.0000000000000000E+00     0.0000000000000000E+00 
    5.9374999999893940E-01     0.0000000000000000E+00     0.0000000000000000E+00 
    6.2499999999902101E-01     0.0000000000000000E+00     0.0000000000000000E+00 
    6.5624999999910261E-01     0.0000000000000000E+00     0.0000000000000000E+00 
    6.8749999999918421E-01     0.0000000000000000E+00     0.0000000000000000E+00 
    7.1874999999926570E-01     0.0000000000000000E+00     0.0000000000000000E+00 
    7.4999999999934730E-01     0.0000000000000000E+00     0.0000000000000000E+00 
    7.8124999999942890E-01     0.0000000000000000E+00     0.0000000000000000E+00 
    8.1249999999951039E-01     0.0000000000000000E+00     0.0000000000000000E+00 
    8.4374999999959199E-01     0.0000000000000000E+00     0.0000000000000000E+00 
    8.7499999999967359E-01     0.0000000000000000E+00     0.0000000000000000E+00 
    9.0624999999975520E-01     0.0000000000000000E+00     0.0000000000000000E+00 
    9.3749999999983680E-01     0.0000000000000000E+00     0.0000000000000000E+00 
    9.6874999999991840E-01     0.0000000000000000E+00     0.0000000000000000E+00 
    1.0000000000000000E+00     3.1249999999942091E-02     0.0000000000000000E+00 
    1.0000000000000000E+00     6.2499999999873469E-02     0.0000000000000000E+00 
    1.0000000000000000E+00     9.3749999999826514E-02     0.0000000000000000E+00 
    1.0000000000000000E+00     1.2499999999977961E-01     0.0000000000000000E+00 
    1.0000000000000000E+00     1.5624999999968961E-01     0.0000000000000000E+00 
    1.0000000000000000E+00     1.8749999999959971E-01     0.0000000000000000E+00 
    1.0000000000000000E+00     2.1874999999950970E-01     0.0000000000000000E+00 
    1.0000000000000000E+00     2.4999999999941969E-01     0.0000000000000000E+00 
    1.0000000000000000E+00     2.8124999999932920E-01     0.0000000000000000E+00 
    1.0000000000000000E+00     3.1249999999923850E-01     0.0000000000000000E+00 
    1.0000000000000000E+00     3.4374999999914790E-01     0.0000000000000000E+00 
    1.0000000000000000E+00     3.7499999999905720E-01     0.0000000000000000E+00 
    1.0000000000000000E+00     4.0624999999896660E-01     0.0000000000000000E+00 
    1.0000000000000000E+00     4.3749999999887590E-01     0.0000000000000000E+00 
    1.0000000000000000E+00     4.6874999999878530E-01     0.0000000000000000E+00 
    1.0000000000000000E+00     4.9999999999869471E-01     0.0000000000000000E+00 
    1.0000000000000000E+00     5.3124999999877620E-01     0.0000000000000000E+00 
    1.0000000000000000E+00     5.6249999999885780E-01     0.0000000000000000E+00 
    1.0000000000000000E+00     5.9374999999893940E-01     0.0000000000000000E+00 
    1.0000000000000000E+00     6.2499999999902101E-01     0.0000000000000000E+00 
    1.0000000000000000E+00     6.5624999999910261E-01     0.0000000000000000E+00 
    1.0000000000000000E+00     6.8749999999918421E-01     0.0000000000000000E+00 
    1.0000000000000000E+00     7.1874999999926570E-01     0.0000000000000000E+00 
    1.0000000000000000E+00     7.4999999999934730E-01     0.0000000000000000E+00 
    1.0000000000000000E+00     7.8124999999942890E-01     0.0000000000000000E+00 
    1.0000000000000000E+00     8.1249999999951039E-01     0.0000000000000000E+00 
    1.0000000000000000E+00     8.4374999999959199E-01     0.0000000000000000E+00 
    1.0000000000000000E+00     8.7499999999967359E-01     0.0000000000000000E+00 
    1.0000000000000000E+00     9.0624999999975520E-01     0.0000000000000000E+00 
    1.0000000000000000E+00     9.3749999999983680E-01     0.0000000000000000E+00 
    1.0000000000000000E+00     9.6874999999991840E-01     0.0000000000000000E+00 
    9.6875000000003686E-01     1.0000000000000000E+00     0.0000000000000000E+00 
    9.3750000000011691E-01     1.0000000000000000E+00     0.0000000000000000E+00 
    9.0625000000015765E-01     1.0000000000000000E+00     0.0000000000000000E+00 
    8.7500000000017863E-01     1.0000000000000000E+00     0.0000000000000000E+00 
    8.4375000000028044E-01     1.0000000000000000E+00     0.0000000000000000E+00 
    8.1250000000040856E-01     1.0000000000000000E+00     0.0000000000000000E+00 
    7.8125000000054956E-01     1.0000000000000000E+00     0.0000000000000000E+00 
    7.5000000000066480E-01     1.0000000000000000E+00     0.0000000000000000E+00 
    7.1875000000086831E-01     1.0000000000000000E+00     0.0000000000000000E+00 
    6.8750000000102829E-01     1.0000000000000000E+00     0.0000000000000000E+00 
    6.5625000000114431E-01     1.0000000000000000E+00     0.0000000000000000E+00 
    6.2500000000129829E-01     1.0000000000000000E+00     0.0000000000000000E+00 
    5.9375000000147926E-01     1.0000000000000000E+00     0.0000000000000000E+00 
    5.6250000000168354E-01     1.0000000000000000E+00     0.0000000000000000E+00 
    5.3125000000188671E-01     1.0000000000000000E+00     0.0000000000000000E+00 
    5.0000000000205835E-01     1.0000000000000000E+00     0.0000000000000000E+00 
    4.6875000000192979E-01     1.0000000000000000E+00     0.0000000000000000E+00 
    4.3750000000180111E-01     1.0000000000000000E+00     0.0000000000000000E+00 
    4.0625000000167238E-01     1.0000000000000000E+00     0.0000000000000000E+00 
    3.7500000000154382E-01     1.0000000000000000E+00     0.0000000000000000E+00 
    3.4375000000141509E-01     1.0000000000000000E+00     0.0000000000000000E+00 
    3.1250000000128642E-01     1.0000000000000000E+00     0.0000000000000000E+00 
    2.8125000000115769E-01     1.0000000000000000E+00     0.0000000000000000E+00 
    2.5000000000102918E-01     1.0000000000000000E+00     0.0000000000000000E+00 
    2.1875000000090050E-01     1.0000000000000000E+00     0.0000000000000000E+00 
    1.8750000000077180E-01     1.0000000000000000E+00     0.0000000000000000E+00 
    1.5625000000064329E-01     1.0000000000000000E+00     0.0000000000000000E+00 
    1.2500000000051459E-01     1.0000000000000000E+00     0.0000000000000000E+00 
    9.3750000000385914E-02     1.0000000000000000E+00     0.0000000000000000E+00 
    6.2500000000257239E-02     1.0000000000000000E+00     0.0000000000000000E+00 
    3.1250000000128557E-02     1.0000000000000000E+00     0.0000000000000000E+00 
    0.0000000000000000E+00     9.6875000000003686E-01     0.0000000000000000E+00 
    0.0000000000000000E+00     9.3750000000011691E-01     0.0000000000000000E+00 
    0.0000000000000000E+00     9.0625000000015765E-01     0.0000000000000000E+00 
    0.0000000000000000E+00     8.7500000000017863E-01     0.0000000000000000E+00 
    0.0000000000000000E+00     8.4375000000028044E-01     0.0000000000000000E+00 
    0.0000000000000000E+00     8.1250000000040856E-01     0.0000000000000000E+00 
    0.0000000000000000E+00     7.8125000000054956E-01     0.0000000000000000E+00 
    0.0000000000000000E+00     7.5000000000066480E-01     0.0000000000000000E+00 
    0.0000000000000000E+00     7.1875000000086831E-01     0.0000000000000000E+00 
    0.0000000000000000E+00     6.8750000000102829E-01     0.0000000000000000E+00 
    0.0000000000000000E+00     6.5625000000114431E-01     0.0000000000000000E+00 
    0.0000000000000000E+00     6.2500000000129829E-01     0.0000000000000000E+00 
    0.0000000000000000E+00     5.9375000000147926E-01     0.0000000000000000E+00 
    0.0000000000000000E+00     5.6250000000168354E-01     0.0000000000000000E+00 
    0.0000000000000000E+00     5.3125000000188671E-01     0.0000000000000000E+00 
    0.0000000000000000E+00     5.0000000000205835E-01     0.0000000000000000E+00 
    0.0000000000000000E+00     4.6875000000192979E-01     0.0000000000000000E+00 
    0.0000000000000000E+00     4.3750000000180111E-01     0.0000000000000000E+00 
    0.0000000000000000E+00     4.0625000000167238E-01     0.0000000000000000E+00 
[...]
CELL_DATA 2795 
SCALARS Pressure double 1 
LOOKUP_TABLE default 

    5.3316951564874380E+00 
    1.1888650895756173E+01 
    8.4249672757913885E+00 
    8.0445904267088313E+00 
    6.4764014680588096E+00 
    1.1779620480682039E+01 
    1.2396772739398665E+01 
    4.7845380582896144E+00 
    8.8946333770002859E+00 
    6.7764698302739301E+00 
    5.7643418274094058E+00 
    1.1568073465970505E+01 
    1.1814930078104551E+01 
    1.1754036703169934E+01 
    7.7401918110692280E+00 
    4.7041497018171645E+00 
    7.4278766882825353E+00 
    6.1419357060342703E+00 
    1.1267879686200551E+01 
    8.4199492819902009E+00 
    8.3106960722307281E+00 
    1.1699256975071869E+01 
    7.8252787164418054E+00 
    3.1154529703039063E-01 
    1.1566715716562936E+01 
    1.1784263911706542E+01 
    1.2424883816388823E+01 
    5.5486951313781931E+00 
    1.1501766084352090E+01 
    1.2416331365928764E+01 
    8.4887019557255154E+00 
    8.6438191183568751E+00 
    5.9689112842762713E+00 
    8.3862970028301760E+00 
    2.7451607028329748E+00 
    7.4295562727928646E+00 
    8.3782917353878918E+00 
    1.2451150519491884E+01 
    1.2378109341792712E+01 
    1.1578997318888369E+01 
    6.4147949226015415E+00 
    1.1542970163575029E+01 
    6.5391332906823174E-01 
    8.2577705241308976E+00 
    1.2232791539579948E+01 
    1.2069626557883042E+01 
    1.1559106742332723E+01 
    9.1984438626293343E+00 
    1.1617414947502722E+01 
    7.5916587716446902E+00 
    7.2482032168668100E+00 
    8.6094480785524201E+00 
    8.1534887077328104E+00 
    7.4703299230351341E+00 
    8.5604037722959667E+00 
    1.1094546783885185E+01 
    1.0033279098299341E+01 
    6.5093401138621019E+00 
    1.1703030149784077E+01 
    1.1640087087135843E+01 
    8.0900471542811747E+00 
    8.0872606662838340E+00 
    7.9642041999332909E+00 
    1.2332306407758985E+01 
    1.2561720653134660E+01 
    7.4376909386774548E+00 
    8.6075841242143039E+00 
    1.1484173304837162E+01 
    9.8449230448337151E+00 
    8.1165146526567700E+00 
    1.2564922407647927E+01 
    1.1658583758725770E+01 
    7.3355153082125844E+00 
    1.2152321944398983E+01 
    8.7908490172824312E+00 
    1.1439557764381270E+01 
    1.2465306277116593E+01 
    8.6853467622267786E+00 
    5.3622891309475129E+00 
    8.6236006451831138E+00 
    1.2384669270922268E+01 
    1.2587173250692642E+01 
    7.4517662810921284E+00 
    8.5420517730171515E+00 
    1.2625762535139845E+01 
    8.3836107913875697E+00 
    7.8951806310853510E+00 
    1.0183561451150602E+01 
    5.1629266647449787E+00 
    7.2688788571377501E+00 
    8.5432374677005374E+00 
    9.0111682962266624E+00 
    1.3948277521668176E+01 
    6.3022090719858266E+00 
    8.6144791734032076E+00 
    1.1541089284225990E+01 
    1.1774070762838617E+01 
    5.5834986658017325E+00 
    8.2583955630776149E+00 
    8.5728157664375111E+00 
    1.1791204142810988E+01 
    8.5753794643740235E+00 
    1.1734125774548524E+01 
    3.4006247477236022E+00 
    5.6013932233927921E+00 
    8.8013010675968086E+00 
    1.1895048429931300E+01 
    7.4004703213189869E+00 
    7.9128711617189431E+00 
    8.5609702939265766E+00 
    7.8726128875584998E+00 
    9.7545751165634975E+00 
    7.6935556922635193E+00 
    7.3416641095137374E+00 
    5.8343026366094515E+00 
    9.9431992799439151E+00 
    8.6459896386211739E+00 
    1.2258726082050531E+01 
    7.3779540409217965E+00 
    8.0349232115677580E+00 
    1.1646657039843362E+01 
    6.7596539679089203E+00 
    1.2028798257615961E+01 
    8.4634077180931993E+00 
    7.9731722205753215E+00 
    1.1775809672562046E+01 
    8.6348880718009386E+00 
    1.2470587885736732E+01 
    1.0193667974818089E+01 
    1.0970284317958324E+01 
    1.2439539184150568E+01 
    6.3139833266778052E+00 
    8.8159457646157779E+00 
    1.1773438851584119E+01 
    2.5413197008570365E+00 
    8.5390816806995016E+00 
    1.2410634416677871E+01 
    8.0017593123157642E+00 
    9.2299392846468464E+00 
    5.5095908090768768E+00 
    1.1541831474880981E+01 
    1.4403657861761044E+01 
    1.0576268492620855E+01 
    7.9958279972422810E+00 
    7.1878080788419885E+00 
    9.1871778597481768E+00 
    8.4802522692009408E+00 
    5.8276932564720356E+00 
    1.2434245433412780E+01 
    1.1849214061395339E+01 
    1.1542669696863557E+01 
    9.0263882539350071E+00 
    7.3166295692518615E+00 
    8.3105584674268549E+00 
    1.2175386387588976E+01 
    7.5074069964620689E+00 
    8.3855939715280439E+00 
    7.6370598354510770E+00 
    9.7332688990061556E+00 
    1.4392680162064954E+01 
    1.1535124507142593E+01 
    7.2462904567485822E+00 
    1.1938221097956559E+01 
    1.1860548465747708E+01 
    1.1928620159459902E+01 
    1.2800349122359869E+01 
    1.3287759756553180E+01 
    1.2063747870104262E+01 
    8.6002930555818722E+00 
    9.1226486772336237E+00 
    1.1918179396548801E+01 
    1.2268606431747569E+01 
    6.0740903381706826E+00 
    1.1558447058892169E+01 
    1.2142355179267044E+01 
    5.9225344559539845E+00 
    1.2719549406646918E+01 
    1.2711862121741326E+01 
    1.1325527830315579E+01 
    8.8692791378604952E+00 
    2.2726636011927956E+00 
    1.2409316197846964E+01 
    8.7503562372648886E+00 
    1.2519793908741635E+01 
    7.9476188645030845E+00 
    1.2262955976906200E+01 
    7.9960076697341931E-01 
    1.0984640502883993E+01 
    8.1226626772036727E+00 
    7.2836714976727581E+00 
    7.1075630965914494E+00 
    8.4340888560408018E+00 
    9.4528830545011679E+00 
    8.7085033964176315E+00 
    5.8785982239273720E+00 
    1.2263385539162018E+01 
    1.1792240030669481E+01 
    9.9480458887981289E+00 
    8.7936010492338905E+00 
    1.2918320351467010E+00 
    6.5907212711661973E+00 
    4.6104935280054473E+00 
    1.2427774521077190E+01 
    9.5819325989854178E+00 
    1.1834105653526155E+01 
    1.1850018114286533E+01 
    7.5867377775613800E+00 
    9.9899483457749820E+00 
    1.1537986874706586E+01 
    1.2697850296072621E+01 
    5.5109989476093855E+00 
    1.0412510975463114E+01 
    8.7465133877242174E+00 
    4.9241885156050120E+00 
    7.5648315028257720E+00 
    1.0414429964098220E+01 
    1.1816452791552820E+01 
    8.4902604156578505E+00 
    1.1910347287938071E+01 
    1.1711920528239016E+01 
    1.1668604700528812E+01 
    8.3186139244097745E+00 
    7.2484729812943174E+00 
    1.1550213228918388E+01 
    7.3332652353128100E+00 
    8.5796727190711586E+00 
    7.1977088613865350E+00 
    8.3339111916469886E+00 
    1.1858439966239814E+01 
    5.2827984127567946E+00 
    7.4953883838527524E+00 
    1.2352888751668553E+01 
    8.3339136307263004E+00 
    9.4831107930246841E+00 
    5.4212197649203286E+00 
    7.3786556613651806E+00 
    1.1694012467987411E+01 
    1.1957778365819136E+01 
    4.4374088646458443E+00 
    8.3343528735072123E+00 
    7.2312862147631085E+00 
    1.3075200912373756E+01 
    1.2595230857011494E+01 
    1.3310811221758563E+01 
    8.3552570459178064E+00 
    1.1834265300815332E+01 
    1.1502065132424526E+01 
    8.2372884732925531E+00 
    1.1542611964119370E+01 
    8.7935024379273639E+00 
    4.9490952898650038E+00 
    8.5361561695891641E+00 
    1.2342286620501845E+01 
    1.1539859104281566E+01 
    5.7377117235455879E+00 
    1.1564345133964844E+01 
    9.4554253804318638E+00 
    8.5233157332221339E+00 
    8.0750562604367033E+00 
    1.1428783373806366E+01 
    9.0309151240417815E+00 
    1.1554146176591363E+01 
    8.2106821621135087E+00 
    5.0634780939901649E+00 
    8.6440432076424116E+00 
    7.1141983904556909E+00 
    1.0578713011772706E+01 
    1.2513826726700504E+01 
    1.1549789006556646E+01 
    1.2404172346838923E+01 
    8.2859491901972717E+00 
    5.5906254105176938E+00 
    5.6679646416931551E+00 
    8.7047091557422522E+00 
    8.5568712251434746E+00 
    1.2408488921469962E+00 
    1.1136333410631524E+01 
    1.2824569178678146E+01 
    7.9538213329677596E+00 
    5.1949966094611213E+00 
    9.6829520320290907E+00 
    1.1562951996644813E+01 
    6.1154409757209427E+00 
    4.1707445214019527E+00 
    8.5321696729191814E+00 
    1.1653350793848833E+01 
    1.2182314058087005E+01 
    1.2080556277945870E+01 
    1.1959914752844069E+01 
    5.9695278166018388E+00 
    8.5129322390498423E+00 
    1.1160115390984709E+01 
    6.6536490989322674E+00 
    1.1803886450629857E+01 
    1.0176075818820964E+01 
    5.7471180030071256E+00 
    1.1652283132486463E+01 
    1.2425444300994547E+01 
    1.1667308912837564E+01 
    5.9047439503469228E+00 
    8.6040976716038937E+00 
    6.4570122721191536E+00 
    8.1024577280910233E+00 
    1.1556017476492276E+01 
    1.1546293551461563E+01 
    5.9376472237960272E+00 
    1.2297591718186956E+01 
    9.0716991433530030E+00 
    1.1586147027150727E+01 
    1.2280513291146752E+01 
    1.1569611314158458E+01 
    1.0779605652306229E+01 
    1.3121093487582870E+01 
    7.9318723435214666E+00 
    1.2378136107968601E+01 
    1.1611409138065685E+01 
    1.2440716625739045E+01 
    1.2291895696456166E+01 
    8.0126142386158747E+00 
    8.4191660258636354E+00 
    7.9444503151361969E+00 
    1.0372875848256585E+01 
    3.4095972292258505E+00 
    8.6369244996937518E+00 
    1.3236568786867601E+01 
    8.7979301866591264E+00 
    8.9627067045854112E+00 
    1.2416741641054172E+01 
    1.2625848037723980E+01 
    7.9143167349686188E+00 
    1.1567846183741276E+01 
    1.1543861367789640E+01 
    8.9518054751503673E+00 
    1.2252966318191204E+01 
    6.0435694888085871E+00 
    3.8794900416970250E+00 
    9.1994846011102087E+00 
    8.8099385690132088E+00 
    1.1547600670326087E+01 
    5.5714054216448536E+00 
    1.2010258756810135E+01 
    3.9534862437670628E+00 
    8.7542298973916353E+00 
    8.0905819225893083E+00 
    8.5826718029526425E+00 
    1.4441613948926470E+01 
    3.3131727181714594E+00 
    8.5569345138714894E+00 
    1.0119746239851759E+01 
    8.1956520038149812E+00 
    6.4727868428288353E+00 
    1.2114515106149698E+01 
    1.4033205048967599E+01 
    1.2237895290947582E+01 
    8.5031137882357388E+00 
    4.9131210792587341E+00 
    1.3894908504121043E+01 
    1.1785144556502667E+01 
    6.0751071396418546E+00 
    8.1139624309144569E+00 
    1.2785814437044213E+01 
    2.8096977353055226E+00 
    8.8547185092970757E+00 
    1.2220560357893696E+01 
    8.5959942685925697E+00 
    7.4526207348994777E+00 
    8.5953436586548992E+00 
    1.1347103361036043E+01 
    8.5771744665954621E+00 
    4.3972413330070452E+00 
    7.8519402136703043E-01 
    6.3431505081390629E+00 
    1.2976367392828051E+01 
    7.9427087193703123E+00 
    9.7397195160554979E+00 
    9.3252922633069293E+00 
    1.0631023319352362E+01 
    8.6098786450406255E+00 
    1.1708676447764708E+01 
    1.4455090537490674E+01 
    1.0106725729889183E+01 
    1.2354187722621427E+01 
    4.6343314009425612E-01 
    1.1547823466891851E+01 
    4.7464905026941180E+00 
    1.3391638146000135E+01 
    8.5700872175739260E+00 
    7.5515569430134795E+00 
    6.5770954900571565E+00 
    4.5808328972389791E+00 
    9.5608652622949535E+00 
    6.7093134568954707E+00 
    1.0490159341610751E+01 
    1.9301368842612581E+00 
    9.4839043632784588E+00 
    1.1491300804809342E+01 
    5.1460718515923363E+00 
    1.1956615420855176E+01 
    1.3224126690658483E+01 
    1.1838647589561138E+01 
    8.4488018419042028E+00 
    8.5776546188766911E+00 
    8.5630173510707319E+00 
    4.9904240899017793E+00 
    7.7231943304704478E+00 
    7.5993092543387526E+00 
    8.5525176860539460E+00 
    7.8919948727773770E+00 
    5.8778156881009624E-01 
    5.4241222026172755E+00 
    8.2123321347329359E+00 
    8.5298701115242359E+00 
    1.0776181844865750E+01 
    1.8399929117929346E+00 
    8.9163890081739083E+00 
    8.8149015724572664E+00 
    3.1840596231064322E+00 
    1.1730843994775570E+01 
    7.3547558942271829E+00 
    8.6946290505094286E+00 
    1.1785186909696179E+01 
    4.6304629477519708E+00 
    1.1821132123044304E+01 
    7.4354452671512856E+00 
    8.3848418888217879E-01 
    7.9955137349041907E+00 
    1.2310928988592632E+01 
    1.1548452939636057E+01 
    1.1567999330876253E+01 
    8.9068110514465051E+00 
    8.7571325252619800E+00 
    7.3297067801334466E+00 
    5.8802708044934446E+00 
    1.1881892827381201E+01 
    8.1142344438864153E+00 
    5.6696372327352256E+00 
    1.1561469821191913E+01 
    1.2144188468868455E+01 
    8.7275773328257600E+00 
    8.3794358582042534E+00 
    1.4343197562265658E+01 
    8.9525662319240080E+00 
    1.1892689938516469E+01 
    6.9865898397104429E+00 
    1.4483121869665453E+01 
    5.6345794792062973E+00 
    7.6974917180939766E+00 
    6.3059354501812779E+00 
    9.1545301471270530E+00 
    7.2394096876063614E+00 
    1.4467357173215735E+01 
    8.9945987833358512E+00 
    1.1291047876187216E+01 
    5.7949025722959240E+00 
    8.6045897674732075E+00 
    1.1755048428262223E+01 
    7.2593218795278665E+00 
    6.1481834223656362E+00 
    9.4022749754280763E+00 
    1.1950779803005819E+01 
    6.2190563014523104E+00 
    8.1062823240157655E+00 
    8.4031918357576583E+00 
    1.1527405621171301E+01 
    8.2236648800738106E+00 
    1.1926522138741250E+01 
    1.2466272503581832E+01 
    7.3523070070738274E+00 
    7.2146870030625285E+00 
    6.7573578701974402E+00 
    1.1647257808656542E+01 
    8.8136884569719953E+00 
    1.4068683236646388E+01 
    1.0991479635532363E+01 
    1.1722009140987357E+01 
    1.3778366077219237E+01 
    1.3227581444509084E+01 
    8.6488554411000163E+00 
    8.5386650157029855E+00 
    1.1350792021945393E+01 
    1.1579287516822188E+01 
    1.2033418450443488E+01 
    1.1804263358771250E+01 
    1.4360313765637420E+01 
    8.9521602458502088E+00 
    7.4345378029396203E+00 
    8.9185178044888094E+00 
    1.2390258029537831E+01 
    8.7287450116885026E+00 
    5.0404787576248768E+00 
    8.4343694343742008E+00 
    1.2757818990723887E+01 
    8.8464358944831645E+00 
    7.4376150567892134E+00 
    8.3447229103612077E+00 
    1.2854875846196586E+01 
    1.1587367012885496E+01 
    7.0793013861627250E+00 
    1.2979138840906026E+01 
    8.6729230242654527E+00 
    1.2017071095010857E+01 
    1.2868131353968504E+01 
    9.0320417627765917E+00 
    4.6238279304910703E+00 
    9.3770756812002034E+00 
    4.7813234753560936E+00 
    8.7700996445336141E+00 
    8.5983626710233825E+00 
    9.8636025771953619E+00 
    5.0474671997701135E+00 
    1.0473755201407496E+01 
    8.6171755097993312E+00 
    1.1794946365160909E+01 
    8.9895090579999160E+00 
    6.8646371248640312E+00 
    8.2304260417107162E+00 
    9.0653860477005868E+00 
    9.0438173568349818E+00 
    1.2511047442185577E+01 
    7.1219566053331382E+00 
    7.0050011494876996E+00 
    5.2948602264420899E+00 
    1.2052447749918795E+01 
    8.2681243210500810E+00 
    1.1416674333196696E+01 
    8.5682673111841954E+00 
    5.7658189543057938E+00 
    1.1616031414075557E+01 
    8.5433683798940425E+00 
    6.2635961888146685E+00 
    6.6198733954728404E+00 
    6.8432132316920988E+00 
    1.1823148213475880E+01 
    8.5543721589490254E+00 
    1.2363215557532587E+01 
    8.5015437708519492E+00 
    8.4402778345615808E+00 
    8.0314392631469147E+00 
    1.1685470175493348E+01 
    8.3584417944747393E+00 
    6.8769154228913827E+00 
    1.3214521585066789E+01 
    1.1754345709150849E+01 
    5.9033922108151264E+00 
    2.3279375772967597E+00 
    8.5440423458469521E+00 
    7.9955053584442979E+00 
    7.2113982504591103E+00 
    7.8616813963924184E+00 
    1.1717067172249152E+01 
    8.2824450856747838E+00 
    7.4904854566044712E+00 
    1.1597833712700455E+01 
    5.8496583535705602E+00 
    1.1317605173571772E+01 
    7.7191108185103250E+00 
    6.8098210629947777E+00 
    7.2750045291777843E+00 
    1.2090282785869990E+01 
    8.5855304640283627E+00 
    8.5930632222925816E+00 
    5.1276368659410236E+00 
    5.5197082174845633E+00 
    1.0759970482864293E+01 
    8.6022367504826995E+00 
    8.5824202387890178E+00 
    1.2963494918261073E+01 
    7.0033765570393616E+00 
    8.6131639311278043E+00 
    6.0536114792087652E+00 
    6.2440323207078308E+00 
    1.1681211328220996E+01 
    8.2509155544943216E+00 
    6.0540415401608279E+00 
    9.0275395112066512E+00 
    8.4807612167904409E+00 
    1.1683546020495971E+01 
    1.3048035660146621E+01 
    9.0031741919330255E-01 
    8.5486029934050958E+00 
    8.8086557400250314E+00 
    1.1736241081418871E+01 
    8.0586491679996985E+00 
    8.5605441770435640E+00 
    1.2556728481330570E+01 
    7.3011397580578690E+00 
    6.1039834788433653E+00 
    1.0376675382286685E+01 
    1.1559968593478654E+01 
    1.2441333320804242E+01 
    1.2675141856763569E+01 
    8.4031100153689540E+00 
    8.5412813534559469E+00 
    9.6163973262330273E+00 
    5.6108986618826382E+00 
    1.1665567530510643E+01 
    6.5547472230149220E+00 
    5.8416820141438794E+00 
    1.0721101614973364E+01 
    1.0076819558648806E+01 
    5.7289476853300281E+00 
    1.1590699976329413E+01 
    1.2428013088732701E+01 
    8.9659869636489162E+00 
    1.3139709770618435E+01 
    1.1617286643306423E+01 
    8.1429121468899552E+00 
    1.2195829139617409E+01 
    6.2511895928637804E+00 
    1.1574621092066554E+01 
    8.5478855105766698E+00 
    8.5090223564114389E+00 
    1.3116277718553576E+01 
    8.2965010980692924E+00 
    1.0467291553662296E+01 
    7.2604997378892744E+00 
    1.2531104278024600E+01 
    1.1496528035374192E+01 
    7.5613309404239981E+00 
    1.1540997631019422E+01 
    7.7239310132256591E+00 
    8.5700538467522982E+00 
    1.2392598335239537E+01 
    1.1800847292174346E+01 
    1.2431102256230838E+01 
    1.1739601536817011E+01 
    7.7328482531085179E+00 
    7.9356718586570834E+00 
    1.2436541414648604E+01 
    8.0414394907961526E+00 
    1.1439167243028917E+01 
    8.2906685089138374E+00 
    3.4381745023944372E+00 
    5.8991843553545991E+00 
    5.4681684979285112E+00 
    1.2395280056562950E+01 
    1.3052843334062956E+01 
    1.1556678465216399E+01 
    9.9513556854903733E+00 
    1.1795934408305362E+01 
    1.1595298891684401E+01 
    1.2092799089072141E+01 
    4.9551597964432128E+00 
    3.2025715444393361E+00 
    9.7671406864602943E+00 
    8.2059184535225711E+00 
    1.1718710455271911E+01 
    1.1716700324600493E+01 
    8.8231208307312396E+00 
    1.1747816887126858E+01 
    8.5361173945446875E+00 
    8.4298018895184317E+00 
    4.4750495856925649E+00 
    3.1897755074428611E+00 
    1.2851916707698772E+01 
    6.6402014104227298E+00 
    7.5073365578259574E+00 
    8.7367678295981204E+00 
    1.4343430596016967E+01 
    8.8171896452998606E+00 
    8.7983085007651951E+00 
    3.6142288253768511E+00 
    8.8176214391839842E+00 
    8.8292736444533322E+00 
    1.1982933083101834E+01 
    7.2834379103581055E+00 
    8.1655153468567523E+00 
    1.3003454980907055E+01 
    8.5563215268951431E+00 
    1.1570443787318036E+01 
    1.1783807092043309E+01 
    1.0604658872123130E+01 
    7.2197451278683715E+00 
    1.1739819782386054E+01 
    8.3528132561375070E+00 
    1.1739251504638041E+01 
    1.1515837960590652E+01 
    1.2412226507980071E+01 
    1.1735739572491472E+01 
    1.1022921630060511E+01 
    8.5461996245123135E+00 
    5.6827093803191238E+00 
    1.4223532182481474E+01 
    6.6841181281732842E+00 
    1.2347083257381470E+01 
    8.5436948964058157E+00 
    7.0517764426914002E+00 
    4.2251702930773778E+00 
    8.8583380596618984E+00 
    1.1727800004171879E+01 
    1.1725902918203857E+01 
    8.5512995924428470E+00 
    8.5380409128331376E+00 
    1.3193106474626099E+01 
    1.2624393258222740E+01 
    8.8336687850414535E+00 
    2.9801867833633326E+00 
    1.1002706352406847E+01 
    1.4466115774959857E+01 
    8.5494173483165774E+00 
    1.0270327027903750E+01 
    8.0540325804247566E+00 
    1.4091064000909965E+01 
    1.2695252672131165E+01 
    1.2467486189244065E+01 
    8.8524424027762336E+00 
    3.9496838590648342E+00 
    8.0173065910793699E+00 
    8.0783912049877795E+00 
    8.1261830277857072E+00 
    3.2421469563284626E+00 