# vtk DataFile Version 2.0
Pressure Field Data 
ASCII 
DATASET UNSTRUCTURED_GRID 

POINTS 2860 double 

    0.0000000000000000E+00     0.0000000000000000E+00     0.0000000000000000E+00 
    1.0000000000000000E+00     0.0000000000000000E+00     0.0000000000000000E+00 
    1.0000000000000000E+00     1.0000000000000000E+00     0.0000000000000000E+00 
    0.0000000000000000E+00     1.0000000000000000E+00     0.0000000000000000E+00 
    2.5000000000000000E-01     2.5000000000000000E-01     0.0000000000000000E+00 
    7.5000000000000000E-01     2.5000000000000000E-01     0.0000000000000000E+00 
    7.5000000000000000E-01     7.5000000000000000E-01     0.0000000000000000E+00 
    2.5000000000000000E-01     7.5000000000000000E-01     0.0000000000000000E+00 
    3.1249999999942091E-02     0.0000000000000000E+00     0.0000000000000000E+00 
    6.2499999999873469E-02     0.0000000000000000E+00     0.0000000000000000E+00 
    9.3749999999826514E-02     0.0000000000000000E+00     0.0000000000000000E+00 
    1.2499999999977961E-01     0.0000000000000000E+00     0.0000000000000000E+00 
    1.5624999999968961E-01     0.0000000000000000E+00     0.0000000000000000E+00 
    1.8749999999959971E-01     0.0000000000000000E+00     0.0000000000000000E+00 
    2.1874999999950970E-01     0.0000000000000000E+00     0.0000000000000000E+00 
    2.4999999999941969E-01     0.0000000000000000E+00     0.0000000000000000E+00 
    2.8124999999932920E-01     0.0000000000000000E+00     0.0000000000000000E+00 
    3.1249999999923850E-01     0.0000000000000000E+00     0.0000000000000000E+00 
    3.4374999999914790E-01     0.0000000000000000E+00     0.0000000000000000E+00 
    3.7499999999905720E-01     0.0000000000000000E+00     0.0000000000000000E+00 
    4.0624999999896660E-01     0.0000000000000000E+00     0.0000000000000000E+00 
    4.3749999999887590E-01     0.0000000000000000E+00     0.0000000000000000E+00 
    4.6874999999878530E-01     0.0000000000000000E+00     0.0000000000000000E+00 
    4.9999999999869471E-01     0.0000000000000000E+00     0.0000000000000000E+00 
    5.3124999999877620E-01     0.0000000000000000E+00     0.0000000000000000E+00 
    5.6249999999885780E-01     0.0000000000000000E+00     0.0000000000000000E+00 
    5.9374999999893940E-01     0.0000000000000000E+00     0.0000000000000000E+00 
    6.2499999999902101E-01     0.0000000000000000E+00     0.0000000000000000E+00 
    6.5624999999910261E-01     0.0000000000000000E+00     0.0000000000000000E+00 
    6.8749999999918421E-01     0.0000000000000000E+00     0.0000000000000000E+00 
    7.1874999999926570E-01     0.0000000000000000E+00     0.0000000000000000E+00 
    7.4999999999934730E-01     0.0000000000000000E+00     0.0000000000000000E+00 
    7.8124999999942890E-01     0.0000000000000000E+00     0.0000000000000000E+00 
    8.1249999999951039E-01     0.0000000000000000E+00     0.0000000000000000E+00 
    8.4374999999959199E-01     0.0000000000000000E+00     0.0000000000000000E+00 
    8.7499999999967359E-01     0.0000000000000000E+00     0.0000000000000000E+00 
    9.0624999999975520E-01     0.0000000000000000E+00     0.0000000000000000E+00 
    9.3749999999983680E-01     0.0000000000000000E+00     0.0000000000000000E+00 
    9.6874999999991840E-01     0.0000000000000000E+00     0.0000000000000000E+00 
    1.0000000000000000E+00     3.1249999999942091E-02     0.0000000000000000E+00 
    1.0000000000000000E+00     6.2499999999873469E-02     0.0000000000000000E+00 
    1.0000000000000000E+00     9.3749999999826514E-02     0.0000000000000000E+00 
    1.0000000000000000E+00     1.2499999999977961E-01     0.0000000000000000E+00 
    1.0000000000000000E+00     1.5624999999968961E-01     0.0000000000000000E+00 
    1.0000000000000000E+00     1.8749999999959971E-01     0.0000000000000000E+00 
    1.0000000000000000E+00     2.1874999999950970E-01     0.0000000000000000E+00 
    1.0000000000000000E+00     2.4999999999941969E-01     0.0000000000000000E+00 
    1.0000000000000000E+00     2.8124999999932920E-01     0.0000000000000000E+00 
    1.0000000000000000E+00     3.1249999999923850E-01     0.0000000000000000E+00 
    1.0000000000000000E+00     3.4374999999914790E-01     0.0000000000000000E+00 
    1.0000000000000000E+00     3.7499999999905720E-01     0.0000000000000000E+00 
    1.0000000000000000E+00     4.0624999999896660E-01     0.0000000000000000E+00 
    1.0000000000000000E+00     4.3749999999887590E-01     0.0000000000000000E+00 
    1.0000000000000000E+00     4.6874999999878530E-01     0.0000000000000000E+00 
    1.0000000000000000E+00     4.9999999999869471E-01     0.0000000000000000E+00 
    1.0000000000000000E+00     5.3124999999877620E-01     0.0000000000000000E+00 
    1.0000000000000000E+00     5.6249999999885780E-01     0.0000000000000000E+00 
    1.0000000000000000E+00     5.9374999999893940E-01     0.0000000000000000E+00 
    1.0000000000000000E+00     6.2499999999902101E-01     0.0000000000000000E+00 
    1.0000000000000000E+00     6.5624999999910261E-01     0.0000000000000000E+00 
    1.0000000000000000E+00     6.8749999999918421E-01     0.0000000000000000E+00 
    1.0000000000000000E+00     7.1874999999926570E-01     0.0000000000000000E+00 
    1.0000000000000000E+00     7.4999999999934730E-01     0.0000000000000000E+00 
    1.0000000000000000E+00     7.8124999999942890E-01     0.0000000000000000E+00 
    1.0000000000000000E+00     8.1249999999951039E-01     0.0000000000000000E+00 
    1.0000000000000000E+00     8.4374999999959199E-01     0.0000000000000000E+00 
    1.0000000000000000E+00     8.7499999999967359E-01     0.0000000000000000E+00 
    1.0000000000000000E+00     9.0624999999975520E-01     0.0000000000000000E+00 
    1.0000000000000000E+00     9.3749999999983680E-01     0.0000000000000000E+00 
    1.0000000000000000E+00     9.6874999999991840E-01     0.0000000000000000E+00 
    9.6875000000003686E-01     1.0000000000000000E+00     0.0000000000000000E+00 
    9.3750000000011691E-01     1.0000000000000000E+00     0.0000000000000000E+00 
    9.0625000000015765E-01     1.0000000000000000E+00     0.0000000000000000E+00 
    8.7500000000017863E-01     1.0000000000000000E+00     0.0000000000000000E+00 
    8.4375000000028044E-01     1.0000000000000000E+00     0.0000000000000000E+00 
    8.1250000000040856E-01     1.0000000000000000E+00     0.0000000000000000E+00 
    7.8125000000054956E-01     1.0000000000000000E+00     0.0000000000000000E+00 
    7.5000000000066480E-01     1.0000000000000000E+00     0.0000000000000000E+00 
    7.1875000000086831E-01     1.0000000000000000E+00     0.0000000000000000E+00 
    6.8750000000102829E-01     1.0000000000000000E+00     0.0000000000000000E+00 
    6.5625000000114431E-01     1.0000000000000000E+00     0.0000000000000000E+00 
    6.2500000000129829E-01     1.0000000000000000E+00     0.0000000000000000E+00 
    5.9375000000147926E-01     1.0000000000000000E+00     0.0000000000000000E+00 
    5.6250000000168354E-01     1.0000000000000000E+00     0.0000000000000000E+00 
    5.3125000000188671E-01     1.0000000000000000E+00     0.0000000000000000E+00 
    5.0000000000205835E-01     1.0000000000000000E+00     0.0000000000000000E+00 
    4.6875000000192979E-01     1.0000000000000000E+00     0.0000000000000000E+00 
    4.3750000000180111E-01     1.0000000000000000E+00     0.0000000000000000E+00 
    4.0625000000167238E-01     1.0000000000000000E+00     0.0000000000000000E+00 
    3.7500000000154382E-01     1.0000000000000000E+00     0.0000000000000000E+00 
    3.4375000000141509E-01     1.0000000000000000E+00     0.0000000000000000E+00 
    3.1250000000128642E-01     1.0000000000000000E+00     0.0000000000000000E+00 
    2.8125000000115769E-01     1.0000000000000000E+00     0.0000000000000000E+00 
    2.5000000000102918E-01     1.0000000000000000E+00     0.0000000000000000E+00 
    2.1875000000090050E-01     1.0000000000000000E+00     0.0000000000000000E+00 
    1.8750000000077180E-01     1.0000000000000000E+00     0.0000000000000000E+00 
    1.5625000000064329E-01     1.0000000000000000E+00     0.0000000000000000E+00 
    1.2500000000051459E-01     1.0000000000000000E+00     0.0000000000000000E+00 
    9.3750000000385914E-02     1.0000000000000000E+00     0.0000000000000000E+00 
    6.2500000000257239E-02     1.0000000000000000E+00     0.0000000000000000E+00 
    3.1250000000128557E-02     1.0000000000000000E+00     0.0000000000000000E+00 
    0.0000000000000000E+00     9.6875000000003686E-01     0.0000000000000000E+00 
    0.0000000000000000E+00     9.3750000000011691E-01     0.0000000000000000E+00 
    0.0000000000000000E+00     9.0625000000015765E-01     0.0000000000000000E+00 
    0.0000000000000000E+00     8.7500000000017863E-01     0.0000000000000000E+00 
    0.0000000000000000E+00     8.4375000000028044E-01     0.0000000000000000E+00 
    0.0000000000000000E+00     8.1250000000040856E-01     0.0000000000000000E+00 
    0.0000000000000000E+00     7.8125000000054956E-01     0.0000000000000000E+00 
    0.0000000000000000E+00     7.5000000000066480E-01     0.0000000000000000E+00 
    0.0000000000000000E+00     7.1875000000086831E-01     0.0000000000000000E+00 
    0.0000000000000000E+00     6.8750000000102829E-01     0.0000000000000000E+00 
    0.0000000000000000E+00     6.5625000000114431E-01     0.0000000000000000E+00 
    0.0000000000000000E+00     6.2500000000129829E-01     0.0000000000000000E+00 
    0.0000000000000000E+00     5.9375000000147926E-01     0.0000000000000000E+00 
    0.0000000000000000E+00     5.6250000000168354E-01     0.0000000000000000E+00 
    0.0000000000000000E+00     5.3125000000188671E-01     0.0000000000000000E+00 
    0.0000000000000000E+00     5.0000000000205835E-01     0.0000000000000000E+00 
    0.0000000000000000E+00     4.6875000000192979E-01     0.0000000000000000E+00 
    0.0000000000000000E+00     4.3750000000180111E-01     0.0000000000000000E+00 
    0.0000000000000000E+00     4.0625000000167238E-01     0.0000000000000000E+00 
[...]
CELL_DATA 2795 
SCALARS Pressure double 1 
LOOKUP_TABLE default 

    5.9780835141863333E+00 
    1.3238567367010274E+01 
    9.3253745091332263E+00 
    8.9769874188961829E+00 
    7.2539689529959999E+00 
    1.3111074337315813E+01 
    1.3790494441793401E+01 
    5.3701455809337206E+00 
    9.8758304489792810E+00 
    7.4977020052662988E+00 
    6.3762106202995685E+00 
    1.2875429824247133E+01 
    1.3165643466816487E+01 
    1.3082945282617439E+01 
    8.5694214447626127E+00 
    5.2811295043487894E+00 
    8.3110304481196629E+00 
    6.7941089092192390E+00 
    1.2541272197236115E+01 
    9.3151744905410805E+00 
    9.2064204271715440E+00 
    1.3022080103736227E+01 
    8.7410950724090100E+00 
    3.4831249848818402E-01 
    1.2890285923275703E+01 
    1.3124068435138920E+01 
    1.3820482832762949E+01 
    6.1188608772078803E+00 
    1.2802019453643473E+01 
    1.3809090243235250E+01 
    9.4026527342303243E+00 
    9.5417987742426629E+00 
    6.5463539774990593E+00 
    9.2862683531239831E+00 
    3.0649422705067857E+00 
    8.3121385411297126E+00 
    9.2757046082359231E+00 
    1.3846145851862088E+01 
    1.3769523461915869E+01 
    1.2887554917389000E+01 
    7.2025157565660614E+00 
    1.2857034051727011E+01 
    7.2954763159347880E-01 
    9.2049619807834429E+00 
    1.3626676260573314E+01 
    1.3447208361884245E+01 
    1.2865504709785954E+01 
    1.0192264800436616E+01 
    1.2931638336651453E+01 
    8.4922525668553597E+00 
    8.1146956851719718E+00 
    9.5086320501041133E+00 
    9.0982110263372817E+00 
    8.3605634992220690E+00 
    9.4709243300032675E+00 
    1.2348147265427169E+01 
    1.1110738644400080E+01 
    7.2911055640624127E+00 
    1.3026190427995941E+01 
    1.2956243703065045E+01 
    8.9940151231464220E+00 
    8.9558158274711825E+00 
    8.8905283281053986E+00 
    1.3718451857090150E+01 
    1.3981664940781933E+01 
    8.3230516308845885E+00 
    9.5067240751257209E+00 
    1.2786031649222689E+01 
    1.0932456630060397E+01 
    8.9916019342688980E+00 
    1.3970083232474213E+01 
    1.2987443562255249E+01 
    8.2114596528772630E+00 
    1.3536786963272418E+01 
    9.6905686040955761E+00 
    1.2746381967983549E+01 
    1.3863317784361529E+01 
    9.6905449631765990E+00 
    6.0660459707400545E+00 
    9.5254032119884844E+00 
    1.3777246729406176E+01 
    1.3991856968069465E+01 
    8.3329948163477816E+00 
    9.4382675332840158E+00 
    1.4035442634891554E+01 
    9.2788574727571227E+00 
    8.8168543004823263E+00 
    1.1316635652276455E+01 
    5.8172570140754001E+00 
    8.1384837840737454E+00 
    9.4380555606263634E+00 
    1.0010067217679536E+01 
    1.5417086685854146E+01 
    7.0600126970524064E+00 
    9.5147919264153273E+00 
    1.2845435343021997E+01 
    1.3119767383963255E+01 
    6.2627678114392911E+00 
    9.1494546184180727E+00 
    9.4685902420796673E+00 
    1.3138761665194989E+01 
    9.4706428287805515E+00 
    1.3074734665934097E+01 
    3.8164183017484139E+00 
    6.1961542099396665E+00 
    9.7328492887764657E+00 
    1.3245139636148004E+01 
    8.2809199445685113E+00 
    8.8025272040403699E+00 
    9.4562144947422251E+00 
    8.7915408995755584E+00 
    1.0750766809228649E+01 
    8.5719256093219247E+00 
    8.2169852738627807E+00 
    6.5792918242952538E+00 
    1.1081534434455200E+01 
    9.5425891139706440E+00 
    1.3639120178333448E+01 
    8.1593475771734738E+00 
    8.9633616757164543E+00 
    1.2972762643693263E+01 
    7.5784953474712804E+00 
    1.3396444660953071E+01 
    9.3585033951078778E+00 
    8.8997861730303249E+00 
    1.3121194050730837E+01 
    9.5384515803556109E+00 
    1.3869379495361567E+01 
    1.1329749930629623E+01 
    1.2206874656378158E+01 
    1.3836292564791320E+01 
    7.0730760194384708E+00 
    9.7544109458709372E+00 
    1.3113308710734930E+01 
    2.8490751382001340E+00 
    9.4502686049996960E+00 
    1.3804898855936313E+01 
    8.9277451947290078E+00 
    1.0293398398030925E+01 
    6.2167250695646779E+00 
    1.2844423170970797E+01 
    1.5882303902041969E+01 
    1.1760445827290162E+01 
    8.9244159454545713E+00 
    8.0478018988844493E+00 
    1.0071456011145790E+01 
    9.3759402839879318E+00 
    6.4383694715497324E+00 
    1.3830654541837303E+01 
    1.3186830536034504E+01 
    1.2847099698495516E+01 
    1.0006104516155839E+01 
    8.1907568966332338E+00 
    9.2048164831652013E+00 
    1.3559643637968776E+01 
    8.3967735439570017E+00 
    9.3563011314424731E+00 
    8.5367103546261855E+00 
    1.0845695281461589E+01 
    1.5871023043167501E+01 
    1.2838981472107918E+01 
    8.1626923925670276E+00 
    1.3300074728668291E+01 
    1.3207589532127111E+01 
    1.3281852369909126E+01 
    1.4221043374915840E+01 
    1.4732778048309545E+01 
    1.3443287330338796E+01 
    9.4981032398328100E+00 
    1.0179654232479342E+01 
    1.3280707388488212E+01 
    1.3651459727220333E+01 
    6.7053579794015539E+00 
    1.2864962488177715E+01 
    1.3522919227675601E+01 
    6.5445942079034412E+00 
    1.4142399698466688E+01 
    1.4125935668831536E+01 
    1.2605096186947289E+01 
    9.8161399966632725E+00 
    2.5292965877439921E+00 
    1.3803899330702757E+01 
    9.6788313180470364E+00 
    1.3924332262808161E+01 
    8.8689457369314866E+00 
    1.3651739145674544E+01 
    8.9722041587484069E-01 
    1.2220283878070081E+01 
    8.9979966394289548E+00 
    8.1550699692126951E+00 
    7.9597091855111737E+00 
    9.3277226835109470E+00 
    1.0419545544744295E+01 
    9.7130407815006361E+00 
    6.6542758669989981E+00 
    1.3644257452873108E+01 
    1.3133322443927359E+01 
    1.1047621893230161E+01 
    9.7274528395644619E+00 
    1.4454984337731904E+00 
    7.3817851635404121E+00 
    5.1998327105437747E+00 
    1.3821037064392753E+01 
    1.0517341965070624E+01 
    1.3183413979351389E+01 
    1.3197173291921501E+01 
    8.4754206747948828E+00 
    1.1058337514236101E+01 
    1.2842265853880530E+01 
    1.4112583955364020E+01 
    6.1997646589768864E+00 
    1.1604566098379559E+01 
    9.7579413541548945E+00 
    5.5458053218158154E+00 
    8.4584904173506956E+00 
    1.1604167804390361E+01 
    1.3160027588654799E+01 
    9.3840868732282914E+00 
    1.3262447205780600E+01 
    1.3045277444206334E+01 
    1.2997112279673612E+01 
    9.2112911481561603E+00 
    8.0961328094913636E+00 
    1.2854928059363168E+01 
    8.2077873367581535E+00 
    9.4751054958004133E+00 
    8.0599294459900879E+00 
    9.2986867931036539E+00 
    1.3206969666855921E+01 
    5.8439403954223206E+00 
    8.3830419532677869E+00 
    1.3742042945251997E+01 
    9.2247657684513609E+00 
    1.0416970057674828E+01 
    5.9964918034029688E+00 
    8.2581305747159881E+00 
    1.3025524376357309E+01 
    1.3314097903704399E+01 
    4.9112339540358487E+00 
    9.2289921817967411E+00 
    8.1010460679761298E+00 
    1.4511438828907400E+01 
    1.4001519045166404E+01 
    1.4757678139744595E+01 
    9.2499668127232333E+00 
    1.3179669978490869E+01 
    1.2802128807781468E+01 
    9.1249213474264241E+00 
    1.2847197274337645E+01 
    9.7300725217848374E+00 
    5.5930248716642170E+00 
    9.4925953553005797E+00 
    1.3729709079731919E+01 
    1.2844188610019344E+01 
    6.3358027263432266E+00 
    1.2871430968359519E+01 
    1.0433550680648452E+01 
    9.4333402738654186E+00 
    8.9989714334734821E+00 
    1.2720904297049028E+01 
    9.9179614508884004E+00 
    1.2859593422045631E+01 
    9.1439032820879742E+00 
    5.7435667711749012E+00 
    9.5446420157589564E+00 
    7.9665813341556495E+00 
    1.1765778548361386E+01 
    1.3916098894745556E+01 
    1.2853532523421165E+01 
    1.3798214835933853E+01 
    9.1733839071658085E+00 
    6.1849166430085747E+00 
    6.2695813992964018E+00 
    9.6060702049422098E+00 
    9.4515147991741841E+00 
    1.3921044811299503E+00 
    1.2392391101717408E+01 
    1.4254583877114385E+01 
    8.8782846804225315E+00 
    5.8444110470159139E+00 
    1.0799167768996973E+01 
    1.2870039524708297E+01 
    6.8548979342931391E+00 
    4.6796616257565455E+00 
    9.4262664586894669E+00 
    1.2950323356100826E+01 
    1.3556855160062661E+01 
    1.3453594824378232E+01 
    1.3315693293651480E+01 
    6.7117565272737814E+00 
    9.4251935574536976E+00 
    1.2431893831417408E+01 
    7.3597717407426932E+00 
    1.3153291260025263E+01 
    1.1291794052027152E+01 
    6.3572092404017626E+00 
    1.2970938017439529E+01 
    1.3827859610318891E+01 
    1.3001691462839794E+01 
    6.6168977921004322E+00 
    9.5027520517294981E+00 
    7.2327491856947663E+00 
    8.9543697467459733E+00 
    1.2862186950490845E+01 
    1.2851336207475603E+01 
    6.6536824500261531E+00 
    1.3687227630798731E+01 
    1.0022473637062330E+01 
    1.2884572696128814E+01 
    1.3667900226026120E+01 
    1.2872044687338091E+01 
    1.1986645508537604E+01 
    1.4561304943672193E+01 
    8.8463566851753104E+00 
    1.3769514974239458E+01 
    1.2911182594791429E+01 
    1.3837729083051709E+01 
    1.3680241836648683E+01 
    8.9329469985868126E+00 
    9.3173596004122015E+00 
    8.8691373991087286E+00 
    1.1528035679206342E+01 
    3.8262240207533109E+00 
    9.5464916369561159E+00 
    1.4681168977240461E+01 
    9.7286869581124744E+00 
    9.9056156896770329E+00 
    1.3812008637799250E+01 
    1.4034593748501619E+01 
    8.8027512908311731E+00 
    1.2875406718723914E+01 
    1.2848278783150217E+01 
    9.8939110403541317E+00 
    1.3637158085632761E+01 
    6.6814140983131658E+00 
    4.2955612542817798E+00 
    1.0159241497281302E+01 
    9.7426491973519518E+00 
    1.2852998472823788E+01 
    6.2475749680974184E+00 
    1.3373525214313661E+01 
    4.3811801044323246E+00 
    9.6785412706849847E+00 
    8.9863215670337961E+00 
    9.4784477547204276E+00 
    1.5920055711797934E+01 
    3.7173458795159529E+00 
    9.4674586467497672E+00 
    1.1274554133930337E+01 
    9.0794263378626052E+00 
    7.3000476842638751E+00 
    1.3480130243818861E+01 
    1.5505218687445677E+01 
    1.3623927709556360E+01 
    9.4125276333137293E+00 
    5.5237387357856198E+00 
    1.5360124902666874E+01 
    1.3126363983961609E+01 
    6.9190044679488523E+00 
    9.0544243474164094E+00 
    1.4204892325797061E+01 
    3.1521902304546634E+00 
    9.7898354404068364E+00 
    1.3606768157313590E+01 
    9.4919676394537742E+00 
    8.2402150561836738E+00 
    9.5054210547666269E+00 
    1.2648855964355027E+01 
    9.4721842462772834E+00 
    4.9353498612717575E+00 
    8.8521922261390462E-01 
    7.0163240398534503E+00 
    1.4409113954099633E+01 
    8.8672520964725869E+00 
    1.0704244785683432E+01 
    1.0213573232121538E+01 
    1.1852506533997857E+01 
    9.5057106853880970E+00 
    1.3042103541210574E+01 
    1.5933738102438410E+01 
    1.1232860830813401E+01 
    1.3743312379910849E+01 
    5.1856967496774775E-01 
    1.2853103156567707E+01 
    5.3860539281335313E+00 
    1.4841603880535821E+01 
    9.4804646208571359E+00 
    8.3678319802306547E+00 
    7.3666619704976899E+00 
    5.1462197807575789E+00 
    1.0606988522356474E+01 
    7.4362020253300765E+00 
    1.1667522854768734E+01 
    2.1466376135616914E+00 
    1.0466213915954288E+01 
    1.2790221483589031E+01 
    5.6933010440373417E+00 
    1.3324164854236464E+01 
    1.4665065631042609E+01 
    1.3167231698234946E+01 
    9.3566600050212969E+00 
    9.4734107337126900E+00 
    9.4734866895915015E+00 
    5.5990365607332144E+00 
    8.6304458845517509E+00 
    8.4963046879925095E+00 
    9.4630714513287106E+00 
    8.8114768993770749E+00 
    6.6060314787443697E-01 
    6.1547599088819513E+00 
    9.1634776309618804E+00 
    9.4399985877492476E+00 
    1.1987637446821765E+01 
    2.0632865466946382E+00 
    9.8559433355891954E+00 
    9.7471403528184375E+00 
    3.5724687817400573E+00 
    1.3036642909178461E+01 
    8.2252755072990631E+00 
    9.6087797678461921E+00 
    1.3128296084972645E+01 
    5.1975713264210626E+00 
    1.3156875594235876E+01 
    8.3189809110383433E+00 
    9.3805403412202337E-01 
    8.9231708379588319E+00 
    1.3698855123359582E+01 
    1.2853474514683594E+01 
    1.2872334639532504E+01 
    9.8029558603343308E+00 
    9.6831045792536958E+00 
    8.2047822134080022E+00 
    6.6718021728614527E+00 
    1.3239263099492106E+01 
    9.0535219474333228E+00 
    6.4392537687043081E+00 
    1.2867096178766369E+01 
    1.3526246665878952E+01 
    9.6269253269160906E+00 
    9.2721538893529178E+00 
    1.5819089518901206E+01 
    9.8947391884609548E+00 
    1.3245584274883166E+01 
    7.8265916958417714E+00 
    1.5961714741027725E+01 
    6.2325429631346738E+00 
    8.5747159715094838E+00 
    6.9676137093945023E+00 
    1.0111712443075417E+01 
    8.0119958159201357E+00 
    1.5945768939174327E+01 
    9.9398625497574091E+00 
    1.2584968148285425E+01 
    6.4076151104038743E+00 
    9.5030223430482206E+00 
    1.3092844219921401E+01 
    8.0292895228909753E+00 
    6.9486220794438500E+00 
    1.0479784565193750E+01 
    1.3300649291961410E+01 
    6.8789191194281392E+00 
    9.0039525778717771E+00 
    9.3009829523748024E+00 
    1.2830408999380083E+01 
    9.1052125996126918E+00 
    1.3279268992308978E+01 
    1.3865160303542696E+01 
    8.2283471415873564E+00 
    8.0779561213489188E+00 
    7.4736156700134124E+00 
    1.2966736179068867E+01 
    9.7677816071631831E+00 
    1.5540896899886450E+01 
    1.2191033865155346E+01 
    1.3056889326319418E+01 
    1.5239834447054001E+01 
    1.4667784454589501E+01 
    9.5504396243763825E+00 
    9.4490422054637193E+00 
    1.2632219063717088E+01 
    1.2888166033865902E+01 
    1.3407456100371773E+01 
    1.3148172457783499E+01 
    1.5838108179698560E+01 
    9.8943011525080138E+00 
    8.3179658287332430E+00 
    9.8984052709272383E+00 
    1.3783009037366165E+01 
    9.6520344208998612E+00 
    5.5875598908537274E+00 
    9.3419079337078426E+00 
    1.4178503113146487E+01 
    9.7809354443965706E+00 
    8.3217731665487982E+00 
    9.2408093021245197E+00 
    1.4279844300960095E+01 
    1.2906546750581082E+01 
    7.9427899765063108E+00 
    1.4410592942643968E+01 
    9.5820447569289176E+00 
    1.3378799310450933E+01 
    1.4293339093084407E+01 
    1.0052627408716004E+01 
    5.1978103014095742E+00 
    1.0458963066530194E+01 
    5.3733482714756082E+00 
    9.6997734314873991E+00 
    9.4929459937841667E+00 
    1.1002005406464832E+01 
    5.6699458010563024E+00 
    1.1676272058539434E+01 
    9.5151870204875255E+00 
    1.3137420213753474E+01 
    1.0020380312408617E+01 
    7.7637540974196684E+00 
    9.1183122077293088E+00 
    9.9499460217913995E+00 
    9.9924109778348864E+00 
    1.3919407432831049E+01 
    7.9766096545252596E+00 
    7.8462604682299162E+00 
    5.9469736296384621E+00 
    1.3425674457662591E+01 
    9.1586056435189604E+00 
    1.2717786193864372E+01 
    9.4629493803460498E+00 
    6.4739357320286119E+00 
    1.2938840346317081E+01 
    9.4374619638956236E+00 
    7.0264489149582614E+00 
    7.4194893164606102E+00 
    7.6659963133597762E+00 
    1.3170040704350299E+01 
    9.4649303129582716E+00 
    1.3753759366012977E+01 
    9.3947373990061234E+00 
    9.3311069047774637E+00 
    8.9285309391055332E+00 
    1.3016306923742167E+01 
    9.2470480563424093E+00 
    7.7028054017398366E+00 
    1.4654725027484288E+01 
    1.3093706971373534E+01 
    6.5267773978531185E+00 
    2.6105658424914515E+00 
    9.4548217008025883E+00 
    8.8590719240162787E+00 
    8.0754893470644475E+00 
    8.7513608383766393E+00 
    1.3041961442419998E+01 
    9.1875139800383181E+00 
    8.3676978289408570E+00 
    1.2908806016400352E+01 
    6.4702827801977669E+00 
    1.2595492704609786E+01 
    8.5537851357811689E+00 
    7.6594544902933173E+00 
    8.1451803093345241E+00 
    1.3458378529348556E+01 
    9.4816675824828653E+00 
    9.4898524415834853E+00 
    5.7515750223788622E+00 
    6.1885746753056772E+00 
    1.2001300231024700E+01 
    9.5002484004176875E+00 
    9.4927292302705553E+00 
    1.4394740626607021E+01 
    7.8434826482951880E+00 
    9.5132311458589047E+00 
    6.6960792423223019E+00 
    6.9140486619675414E+00 
    1.3014764549515235E+01 
    9.1366154200678391E+00 
    6.7842362944471697E+00 
    1.0014430316781942E+01 
    9.3787827391415508E+00 
    1.3015882457843766E+01 
    1.4483260785497995E+01 
    1.0015683871263401E+00 
    9.4593880367152448E+00 
    9.7409199353592779E+00 
    1.3072865209434681E+01 
    8.9882595420462330E+00 
    9.4554691619527098E+00 
    1.3977588381107168E+01 
    8.1731575694526608E+00 
    6.8408551136169011E+00 
    1.1467890552900609E+01 
    1.2866296470225016E+01 
    1.3837872416912884E+01 
    1.4086202681813507E+01 
    9.3130727766423416E+00 
    9.4517823479500507E+00 
    1.0669704318552487E+01 
    6.2035279721099732E+00 
    1.2984391969195640E+01 
    7.3412703086913798E+00 
    6.4596901016952177E+00 
    1.1905842231464359E+01 
    1.1190230263358144E+01 
    6.3342175696070653E+00 
    1.2900529353185242E+01 
    1.3823787515222165E+01 
    9.9091399321637255E+00 
    1.4579481119261885E+01 
    1.2931001105916708E+01 
    9.0601669725995873E+00 
    1.3573340780839676E+01 
    6.9137360081845625E+00 
    1.2883011306913305E+01 
    9.4585459872716076E+00 
    9.4210746013053139E+00 
    1.4555963396831986E+01 
    9.1909343867038658E+00 
    1.1629523444918684E+01 
    8.1276614300554737E+00 
    1.3934681009897131E+01 
    1.2796153019015108E+01 
    8.4574663187197423E+00 
    1.2844099255579565E+01 
    8.5473107892527125E+00 
    9.4656511308570579E+00 
    1.3785287732762024E+01 
    1.3149342073831972E+01 
    1.3827010427460518E+01 
    1.3076820976601354E+01 
    8.6397342205864369E+00 
    8.8434175242717981E+00 
    1.3833137057863521E+01 
    8.9546978872101182E+00 
    1.2731477457491089E+01 
    9.1805939040851072E+00 
    3.8615458016118911E+00 
    6.5253108846599455E+00 
    6.0486750982315813E+00 
    1.3788374491903708E+01 
    1.4488638430398179E+01 
    1.2861149013493851E+01 
    1.0955638187441883E+01 
    1.3133329616192574E+01 
    1.2906041840348806E+01 
    1.3456106229968208E+01 
    5.5617252568303446E+00 
    3.5933460196160119E+00 
    1.0759700131684463E+01 
    9.1360862325522518E+00 
    1.3043579474276328E+01 
    1.3041337027279191E+01 
    9.7609766164766221E+00 
    1.3075964589244544E+01 
    9.4465528118392630E+00 
    9.3522968901256824E+00 
    5.0225182521325200E+00 
    3.5784888988119246E+00 
    1.4275713221333991E+01 
    7.3500157451391166E+00 
    8.3966781237935191E+00 
    9.6588367252261715E+00 
    1.5819953769055797E+01 
    9.7498645044308407E+00 
    9.7385555451657364E+00 
    4.0559851395972393E+00 
    9.7511051732740270E+00 
    9.7643291031444193E+00 
    1.3353219020201015E+01 
    8.1520951258863548E+00 
    9.0469905223498195E+00 
    1.4436263638434941E+01 
    9.4671201815997090E+00 
    1.2876169602967391E+01 
    1.3125897242640034E+01 
    1.1681731661125223E+01 
    8.0025041150960661E+00 
    1.3077462862292865E+01 
    9.2704105868619724E+00 
    1.3053206337464735E+01 
    1.2817632257947219E+01 
    1.3806765661929333E+01 
    1.3071920541005412E+01 
    1.2260511735648075E+01 
    9.4568114407593242E+00 
    6.2858873415305387E+00 
    1.5697798567207398E+01 
    7.4860731397651232E+00 
    1.3733922227711769E+01 
    9.4543545543154135E+00 
    7.8923161560725195E+00 
    4.7114061121172455E+00 
    9.7986748864958138E+00 
    1.3063547473141787E+01 
    1.3062632936987185E+01 
    9.4462856781105984E+00 
    9.4488202280839051E+00 
    1.4634916789688940E+01 
    1.4032291545104384E+01 
    9.7673092253149054E+00 
    3.3422519162650892E+00 
    1.2233205384172280E+01 
    1.5944061608183592E+01 
    9.4599633565842378E+00 
    1.1308667621845448E+01 
    8.9854015770355744E+00 
    1.5561545701816550E+01 
    1.4108881203565655E+01 
    1.3878648070687680E+01 
    9.7876610880430430E+00 
    4.4001701623326479E+00 
    8.9472692848859445E+00 
    9.0086768130456445E+00 
    9.0517510904456842E+00 
    3.6347600272886789E+00 