# vtk DataFile Version 2.0
Pressure Field Data 
ASCII 
DATASET UNSTRUCTURED_GRID 

POINTS 2860 double 

    0.0000000000000000E+00     0.0000000000000000E+00     0.0000000000000000E+00 
    1.0000000000000000E+00     0.0000000000000000E+00     0.0000000000000000E+00 
    1.0000000000000000E+00     1.0000000000000000E+00     0.0000000000000000E+00 
    0.0000000000000000E+00     1.0000000000000000E+00     0.0000000000000000E+00 
    2.5000000000000000E-01     2.5000000000000000E-01     0.0000000000000000E+00 
    7.5000000000000000E-01     2.5000000000000000E-01     0.0000000000000000E+00 
    7.5000000000000000E-01     7.5000000000000000E-01     0.0000000000000000E+00 
    2.5000000000000000E-01     7.5000000000000000E-01     0.0000000000000000E+00 
    3.1249999999942091E-02     0.0000000000000000E+00     0.0000000000000000E+00 
    6.2499999999873469E-02     0.0000000000000000E+00     0.0000000000000000E+00 
    9.3749999999826514E-02     0.0000000000000000E+00     0.0000000000000000E+00 
    1.2499999999977961E-01     0.0000000000000000E+00     0.0000000000000000E+00 
    1.5624999999968961E-01     0.0000000000000000E+00     0.0000000000000000E+00 
    1.8749999999959971E-01     0.0000000000000000E+00     0.0000000000000000E+00 
    2.1874999999950970E-01     0.0000000000000000E+00     0.0000000000000000E+00 
    2.4999999999941969E-01     0.0000000000000000E+00     0.0000000000000000E+00 
    2.8124999999932920E-01     0.0000000000000000E+00     0.0000000000000000E+00 
    3.1249999999923850E-01     0.0000000000000000E+00     0.0000000000000000E+00 
    3.4374999999914790E-01     0.0000000000000000E+00     0.0000000000000000E+00 
    3.7499999999905720E-01     0.0000000000000000E+00     0.0000000000000000E+00 
    4.0624999999896660E-01     0.0000000000000000E+00     0.0000000000000000E+00 
    4.3749999999887590E-01     0.0000000000000000E+00     0.0000000000000000E+00 
    4.6874999999878530E-01     0.0000000000000000E+00     0.0000000000000000E+00 
    4.9999999999869471E-01     0.0000000000000000E+00     0.0000000000000000E+00 
    5.3124999999877620E-01     0.0000000000000000E+00     0.0000000000000000E+00 
    5.6249999999885780E-01     0.0000000000000000E+00     0.0000000000000000E+00 
    5.9374999999893940E-01     0.0000000000000000E+00     0.0000000000000000E+00 
    6.2499999999902101E-01     0.0000000000000000E+00     0.0000000000000000E+00 
    6.5624999999910261E-01     0.0000000000000000E+00     0.0000000000000000E+00 
    6.8749999999918421E-01     0.0000000000000000E+00     0.0000000000000000E+00 
    7.1874999999926570E-01     0.0000000000000000E+00     0.0000000000000000E+00 
    7.4999999999934730E-01     0.0000000000000000E+00     0.0000000000000000E+00 
    7.8124999999942890E-01     0.0000000000000000E+00     0.0000000000000000E+00 
    8.1249999999951039E-01     0.0000000000000000E+00     0.0000000000000000E+00 
    8.4374999999959199E-01     0.0000000000000000E+00     0.0000000000000000E+00 
    8.7499999999967359E-01     0.0000000000000000E+00     0.0000000000000000E+00 
    9.0624999999975520E-01     0.0000000000000000E+00     0.0000000000000000E+00 
    9.3749999999983680E-01     0.0000000000000000E+00     0.0000000000000000E+00 
    9.6874999999991840E-01     0.0000000000000000E+00     0.0000000000000000E+00 
    1.0000000000000000E+00     3.1249999999942091E-02     0.0000000000000000E+00 
    1.0000000000000000E+00     6.2499999999873469E-02     0.0000000000000000E+00 
    1.0000000000000000E+00     9.3749999999826514E-02     0.0000000000000000E+00 
    1.0000000000000000E+00     1.2499999999977961E-01     0.0000000000000000E+00 
    1.0000000000000000E+00     1.5624999999968961E-01     0.0000000000000000E+00 
    1.0000000000000000E+00     1.8749999999959971E-01     0.0000000000000000E+00 
    1.0000000000000000E+00     2.1874999999950970E-01     0.0000000000000000E+00 
    1.0000000000000000E+00     2.4999999999941969E-01     0.0000000000000000E+00 
    1.0000000000000000E+00     2.8124999999932920E-01     0.0000000000000000E+00 
    1.0000000000000000E+00     3.1249999999923850E-01     0.0000000000000000E+00 
    1.0000000000000000E+00     3.4374999999914790E-01     0.0000000000000000E+00 
    1.0000000000000000E+00     3.7499999999905720E-01     0.0000000000000000E+00 
    1.0000000000000000E+00     4.0624999999896660E-01     0.0000000000000000E+00 
    1.0000000000000000E+00     4.3749999999887590E-01     0.0000000000000000E+00 
    1.0000000000000000E+00     4.6874999999878530E-01     0.0000000000000000E+00 
    1.0000000000000000E+00     4.9999999999869471E-01     0.0000000000000000E+00 
    1.0000000000000000E+00     5.3124999999877620E-01     0.0000000000000000E+00 
    1.0000000000000000E+00     5.6249999999885780E-01     0.0000000000000000E+00 
    1.0000000000000000E+00     5.9374999999893940E-01     0.0000000000000000E+00 
    1.0000000000000000E+00     6.2499999999902101E-01     0.0000000000000000E+00 
    1.0000000000000000E+00     6.5624999999910261E-01     0.0000000000000000E+00 
    1.0000000000000000E+00     6.8749999999918421E-01     0.0000000000000000E+00 
    1.0000000000000000E+00     7.1874999999926570E-01     0.0000000000000000E+00 
    1.0000000000000000E+00     7.4999999999934730E-01     0.0000000000000000E+00 
    1.0000000000000000E+00     7.8124999999942890E-01     0.0000000000000000E+00 
    1.0000000000000000E+00     8.1249999999951039E-01     0.0000000000000000E+00 
    1.0000000000000000E+00     8.4374999999959199E-01     0.0000000000000000E+00 
    1.0000000000000000E+00     8.7499999999967359E-01     0.0000000000000000E+00 
    1.0000000000000000E+00     9.0624999999975520E-01     0.0000000000000000E+00 
    1.0000000000000000E+00     9.3749999999983680E-01     0.0000000000000000E+00 
    1.0000000000000000E+00     9.6874999999991840E-01     0.0000000000000000E+00 
    9.6875000000003686E-01     1.0000000000000000E+00     0.0000000000000000E+00 
    9.3750000000011691E-01     1.0000000000000000E+00     0.0000000000000000E+00 
    9.0625000000015765E-01     1.0000000000000000E+00     0.0000000000000000E+00 
    8.7500000000017863E-01     1.0000000000000000E+00     0.0000000000000000E+00 
    8.4375000000028044E-01     1.0000000000000000E+00     0.0000000000000000E+00 
    8.1250000000040856E-01     1.0000000000000000E+00     0.0000000000000000E+00 
    7.8125000000054956E-01     1.0000000000000000E+00     0.0000000000000000E+00 
    7.5000000000066480E-01     1.0000000000000000E+00     0.0000000000000000E+00 
    7.1875000000086831E-01     1.0000000000000000E+00     0.0000000000000000E+00 
    6.8750000000102829E-01     1.0000000000000000E+00     0.0000000000000000E+00 
    6.5625000000114431E-01     1.0000000000000000E+00     0.0000000000000000E+00 
    6.2500000000129829E-01     1.0000000000000000E+00     0.0000000000000000E+00 
    5.9375000000147926E-01     1.0000000000000000E+00     0.0000000000000000E+00 
    5.6250000000168354E-01     1.0000000000000000E+00     0.0000000000000000E+00 
    5.3125000000188671E-01     1.0000000000000000E+00     0.0000000000000000E+00 
    5.0000000000205835E-01     1.0000000000000000E+00     0.0000000000000000E+00 
    4.6875000000192979E-01     1.0000000000000000E+00     0.0000000000000000E+00 
    4.3750000000180111E-01     1.0000000000000000E+00     0.0000000000000000E+00 
    4.0625000000167238E-01     1.0000000000000000E+00     0.0000000000000000E+00 
    3.7500000000154382E-01     1.0000000000000000E+00     0.0000000000000000E+00 
    3.4375000000141509E-01     1.0000000000000000E+00     0.0000000000000000E+00 
    3.1250000000128642E-01     1.0000000000000000E+00     0.0000000000000000E+00 
    2.8125000000115769E-01     1.0000000000000000E+00     0.0000000000000000E+00 
    2.5000000000102918E-01     1.0000000000000000E+00     0.0000000000000000E+00 
    2.1875000000090050E-01     1.0000000000000000E+00     0.0000000000000000E+00 
    1.8750000000077180E-01     1.0000000000000000E+00     0.0000000000000000E+00 
    1.5625000000064329E-01     1.0000000000000000E+00     0.0000000000000000E+00 
    1.2500000000051459E-01     1.0000000000000000E+00     0.0000000000000000E+00 
    9.3750000000385914E-02     1.0000000000000000E+00     0.0000000000000000E+00 
    6.2500000000257239E-02     1.0000000000000000E+00     0.0000000000000000E+00 
    3.1250000000128557E-02     1.0000000000000000E+00     0.0000000000000000E+00 
    0.0000000000000000E+00     9.6875000000003686E-01     0.0000000000000000E+00 
    0.0000000000000000E+00     9.3750000000011691E-01     0.0000000000000000E+00 
    0.0000000000000000E+00     9.0625000000015765E-01     0.0000000000000000E+00 
    0.0000000000000000E+00     8.7500000000017863E-01     0.0000000000000000E+00 
    0.0000000000000000E+00     8.4375000000028044E-01     0.0000000000000000E+00 
    0.0000000000000000E+00     8.1250000000040856E-01     0.0000000000000000E+00 
    0.0000000000000000E+00     7.8125000000054956E-01     0.0000000000000000E+00 
    0.0000000000000000E+00     7.5000000000066480E-01     0.0000000000000000E+00 
    0.0000000000000000E+00     7.1875000000086831E-01     0.0000000000000000E+00 
    0.0000000000000000E+00     6.8750000000102829E-01     0.0000000000000000E+00 
    0.0000000000000000E+00     6.5625000000114431E-01     0.0000000000000000E+00 
    0.0000000000000000E+00     6.2500000000129829E-01     0.0000000000000000E+00 
    0.0000000000000000E+00     5.9375000000147926E-01     0.0000000000000000E+00 
    0.0000000000000000E+00     5.6250000000168354E-01     0.0000000000000000E+00 
    0.0000000000000000E+00     5.3125000000188671E-01     0.0000000000000000E+00 
    0.0000000000000000E+00     5.0000000000205835E-01     0.0000000000000000E+00 
    0.0000000000000000E+00     4.6875000000192979E-01     0.0000000000000000E+00 
    0.0000000000000000E+00     4.3750000000180111E-01     0.0000000000000000E+00 
    0.0000000000000000E+00     4.0625000000167238E-01     0.0000000000000000E+00 
[...]
CELL_DATA 2795 
SCALARS Pressure double 1 
LOOKUP_TABLE default 

    5.2206797865224983E+00 
    1.1618058054244086E+01 
    8.2482944265073073E+00 
    7.8698291986769826E+00 
    6.3364288757084308E+00 
    1.1513211090087479E+01 
    1.2116936906411837E+01 
    4.6869106040916479E+00 
    8.6991716880486241E+00 
    6.6469889325877576E+00 
    5.6637883919218437E+00 
    1.1306854815208160E+01 
    1.1543879889604467E+01 
    1.1488187932070566E+01 
    7.5844731929455351E+00 
    4.6083358210502823E+00 
    7.2642686148388194E+00 
    6.0312412731734515E+00 
    1.1013851371539745E+01 
    8.2429117267915171E+00 
    8.1362824258538762E+00 
    1.1434688085630166E+01 
    7.6545867994998611E+00 
    3.0694678415433119E-01 
    1.1301466712008180E+01 
    1.1515766045870262E+01 
    1.2144634706034893E+01 
    5.4537653372829418E+00 
    1.1242287714000099E+01 
    1.2136956060772789E+01 
    8.3229808638480112E+00 
    8.4566739354477569E+00 
    5.8632396232928183E+00 
    8.2098436899435470E+00 
    2.7083099225992684E+00 
    7.2664040138185282E+00 
    8.2022268627141131E+00 
    1.2171327684113535E+01 
    1.2098740160146377E+01 
    1.1317404672196206E+01 
    6.2690354580778074E+00 
    1.1279839467584997E+01 
    6.4449423746194656E-01 
    8.0773850548702786E+00 
    1.1952679798174790E+01 
    1.1793580498682687E+01 
    1.1298199070912286E+01 
    8.9983356478829233E+00 
    1.1354518328619065E+01 
    7.4227541409636828E+00 
    7.0890558869756282E+00 
    8.4254801508394106E+00 
    7.9759007276766800E+00 
    7.3031858810624071E+00 
    8.3970483328774179E+00 
    1.0844598092593859E+01 
    9.8139412910760235E+00 
    6.3684527198782392E+00 
    1.1438377071867132E+01 
    1.1376958391759057E+01 
    7.9249751545566429E+00 
    7.9329555302886297E+00 
    7.7906939432475690E+00 
    1.2054330446219291E+01 
    1.2276197311607582E+01 
    7.2729637262499347E+00 
    8.4238287969013399E+00 
    1.1223686624543010E+01 
    9.6272315777983675E+00 
    7.9486009388630068E+00 
    1.2282653477747978E+01 
    1.1392116361504979E+01 
    7.1746070403563955E+00 
    1.1875416657041603E+01 
    8.6301607338410609E+00 
    1.1179439372934251E+01 
    1.2184865947759736E+01 
    8.4952895923752827E+00 
    5.2309360714063251E+00 
    8.4393808804303134E+00 
    1.2105074786066513E+01 
    1.2305315172743844E+01 
    7.2899343962369452E+00 
    8.3641157518370424E+00 
    1.2342719911607141E+01 
    8.2073418110290799E+00 
    7.7231573805928821E+00 
    9.9570546263570900E+00 
    5.0465095709816126E+00 
    7.1092274284948171E+00 
    8.3639761768117378E+00 
    8.8126593635928714E+00 
    1.3652977151926448E+01 
    6.1666133023967440E+00 
    8.4305344284107520E+00 
    1.1280848628050068E+01 
    1.1503823256987593E+01 
    5.4652378403152868E+00 
    8.0855554036239727E+00 
    8.3928113526749453E+00 
    1.1520626848818770E+01 
    8.3927543670603324E+00 
    1.1464949062995078E+01 
    3.3356940945568416E+00 
    5.5038920149382911E+00 
    8.6125945608325125E+00 
    1.1624535097258764E+01 
    7.2381255009941308E+00 
    7.7509333724555018E+00 
    8.3784826238452581E+00 
    7.7012712667245680E+00 
    9.5587733746552974E+00 
    7.5334259996449617E+00 
    7.1804892000915528E+00 
    5.6915930360860916E+00 
    9.7231408140345739E+00 
    8.4582355917306611E+00 
    1.1982011792055532E+01 
    7.2295843977107248E+00 
    7.8613255534958881E+00 
    1.1380611644404574E+01 
    6.6095160056702298E+00 
    1.1754293101817762E+01 
    8.2856939789817829E+00 
    7.7997071946208880E+00 
    1.1505609464759502E+01 
    8.4502939807361663E+00 
    1.2189785208016030E+01 
    9.9666268478129858E+00 
    1.0723473137094643E+01 
    1.2159051736920606E+01 
    6.1781062824408357E+00 
    8.6261947943370352E+00 
    1.1504509385752630E+01 
    2.4940405529185536E+00 
    8.3753056536557207E+00 
    1.2130660995588936E+01 
    7.8287602840382968E+00 
    9.0274995647974716E+00 
    5.3772630160513426E+00 
    1.1282069931165427E+01 
    1.4106386014401892E+01 
    1.0339610881467829E+01 
    7.8219628418838907E+00 
    7.0299391446631736E+00 
    9.0004284252790026E+00 
    8.3027060625532805E+00 
    5.7252590356682331E+00 
    1.2153899529236773E+01 
    1.1574292598619719E+01 
    1.1282411789791984E+01 
    8.8296587821826709E+00 
    7.1545695313969544E+00 
    8.1362356550474608E+00 
    1.1898212720972857E+01 
    7.3428695715351653E+00 
    8.2019151565208865E+00 
    7.4702274801193891E+00 
    9.5161135721263452E+00 
    1.4095473228883533E+01 
    1.1274921147746563E+01 
    7.0486004386497836E+00 
    1.1664599579127154E+01 
    1.1590607133501679E+01 
    1.1657443134091094E+01 
    1.2515117568927085E+01 
    1.2997474649633039E+01 
    1.1787651836302095E+01 
    8.4168103215344612E+00 
    8.9221925726370017E+00 
    1.1646259582482948E+01 
    1.1991360103249962E+01 
    5.9668614166369487E+00 
    1.1297552661110903E+01 
    1.1866035546714151E+01 
    5.8177581263878722E+00 
    1.2434146192352017E+01 
    1.2428011589211305E+01 
    1.1070128105214129E+01 
    8.6779797481169432E+00 
    2.2355615529874724E+00 
    1.2129358926246496E+01 
    8.5618989251616497E+00 
    1.2237907867965049E+01 
    7.7758231120350656E+00 
    1.1984834346581367E+01 
    7.8805769020360272E-01 
    1.0737682530835798E+01 
    7.9689375584526063E+00 
    7.1237725554986895E+00 
    6.9516196959720133E+00 
    8.2561944224343531E+00 
    9.2582827152841904E+00 
    8.5183318698132400E+00 
    5.7241995018007827E+00 
    1.1986533903931857E+01 
    1.1523314353686452E+01 
    9.7281499219375078E+00 
    8.6046251754704883E+00 
    1.2694917432529684E+00 
    6.4477930909927350E+00 
    4.5117362119295592E+00 
    1.2148338415555990E+01 
    9.3647376006074570E+00 
    1.1565259364060106E+01 
    1.1579704333577585E+01 
    7.4232180285405862E+00 
    9.7631491837726223E+00 
    1.1277580692829334E+01 
    1.2413805143420246E+01 
    5.3865205035454746E+00 
    1.0180593837779501E+01 
    8.5531152588487203E+00 
    4.8167625264948324E+00 
    7.3996609590034490E+00 
    1.0177488649122393E+01 
    1.1546983949291803E+01 
    8.3110439630005040E+00 
    1.1639276194589392E+01 
    1.1444343848834372E+01 
    1.1402105198866129E+01 
    8.1442467861913599E+00 
    7.0942137054098371E+00 
    1.1289724136976965E+01 
    7.1717144593104809E+00 
    8.3985521277326001E+00 
    7.0396396961724941E+00 
    8.1521005647029288E+00 
    1.1587766724021581E+01 
    5.1941214757891592E+00 
    7.3318350643187360E+00 
    1.2074198070602931E+01 
    8.1599776903904520E+00 
    9.2665062254962258E+00 
    5.3321601263953502E+00 
    7.2171153029732045E+00 
    1.1426783412158839E+01 
    1.1685891868867561E+01 
    4.3613620334460146E+00 
    8.1594107083320662E+00 
    7.0682799310578757E+00 
    1.2786740294671469E+01 
    1.2313013729849450E+01 
    1.3020119046937165E+01 
    8.1797276223586870E+00 
    1.1564374631820963E+01 
    1.1242433630153894E+01 
    8.0651280412771058E+00 
    1.1282258355392113E+01 
    8.6042156742218818E+00 
    4.8355573247773487E+00 
    8.3475951982565029E+00 
    1.2064092405618242E+01 
    1.1279557440332924E+01 
    5.6377203886581917E+00 
    1.1303296239052631E+01 
    9.2564279467066264E+00 
    8.3598106648983812E+00 
    7.9032683600096059E+00 
    1.1171007539476438E+01 
    8.8367783812864982E+00 
    1.1293335195349600E+01 
    8.0339784706217365E+00 
    4.9466799879119501E+00 
    8.4565393110315803E+00 
    6.9578125401774171E+00 
    1.0341688686818859E+01 
    1.2232248058285727E+01 
    1.1289795687436463E+01 
    1.2124259489490798E+01 
    8.1153171208621089E+00 
    5.4963049445757761E+00 
    5.5710581849605658E+00 
    8.5446011252772305E+00 
    8.3747867752716409E+00 
    1.2232776199156472E+00 
    1.0885498073647412E+01 
    1.2537705534916892E+01 
    7.7810592435263706E+00 
    5.0805919871178773E+00 
    9.4693580658690379E+00 
    1.1301904471332081E+01 
    5.9840249066580924E+00 
    4.0874937437941883E+00 
    8.3522263792587381E+00 
    1.1387978216491231E+01 
    1.1906811961123433E+01 
    1.1805938026882480E+01 
    1.1688266411946845E+01 
    5.8323452355821477E+00 
    8.3484567961540357E+00 
    1.0907840848949904E+01 
    6.5275264482855073E+00 
    1.1533037196747205E+01 
    9.9450536082907792E+00 
    5.6466694457973725E+00 
    1.1388504112186773E+01 
    1.2144053232737360E+01 
    1.1399550548341326E+01 
    5.7792150020210258E+00 
    8.4204687920968677E+00 
    6.3174421619568788E+00 
    7.9328116187634583E+00 
    1.1295215509676323E+01 
    1.1285796864796270E+01 
    5.8112497978207704E+00 
    1.2018875145359905E+01 
    8.8787423677329294E+00 
    1.1326130200551248E+01 
    1.2002254684302228E+01 
    1.1309836480976372E+01 
    1.0537992332890157E+01 
    1.2831685663782164E+01 
    7.7621916134443731E+00 
    1.2098777315753166E+01 
    1.1347909083956022E+01 
    1.2160194078450200E+01 
    1.2013359618170329E+01 
    7.8415704855769874E+00 
    8.2422254162104363E+00 
    7.7715682238232002E+00 
    1.0141777556692210E+01 
    3.3439247355811816E+00 
    8.4732208167959051E+00 
    1.2946335890761622E+01 
    8.6093100849057898E+00 
    8.7714989426319114E+00 
    1.2136592994270405E+01 
    1.2342798514216184E+01 
    7.7527636636005672E+00 
    1.1306693819701495E+01 
    1.1283617960757681E+01 
    8.7607783331330964E+00 
    1.1975322590696418E+01 
    5.9355700171310222E+00 
    3.8130635140611027E+00 
    9.0044920734287022E+00 
    8.6210430863095890E+00 
    1.1286910171122145E+01 
    5.4538538324327588E+00 
    1.1737838234241403E+01 
    3.8913375591691746E+00 
    8.5665984995081867E+00 
    7.9281304145493774E+00 
    8.3998179838813982E+00 
    1.4144397906854598E+01 
    3.2501758943920929E+00 
    8.3934869052217049E+00 
    9.8934215142938484E+00 
    8.0246548753703149E+00 
    6.3044074341608347E+00 
    1.1840712322386286E+01 
    1.3737191201261084E+01 
    1.1960505416075922E+01 
    8.3396394854142208E+00 
    4.8092258478796355E+00 
    1.3600434686866254E+01 
    1.1515897959708452E+01 
    5.9210429980007087E+00 
    7.9372492286579481E+00 
    1.2500936598912981E+01 
    2.7564603836564348E+00 
    8.6652125051133755E+00 
    1.1942371444541735E+01 
    8.4129091899686674E+00 
    7.3022022836614111E+00 
    8.4322337635364306E+00 
    1.1086819566683491E+01 
    8.3952547860183664E+00 
    4.3096757495234463E+00 
    7.7301191398704439E-01 
    6.2271975725183912E+00 
    1.2688516140787126E+01 
    7.7697146152603578E+00 
    9.5191253079942211E+00 
    9.1332409380908768E+00 
    1.0388452919064111E+01 
    8.4255931653211356E+00 
    1.1440939310790556E+01 
    1.4157831909681619E+01 
    9.8816978381122169E+00 
    1.2075316951397230E+01 
    4.5665032122640198E-01 
    1.1287248789584146E+01 
    4.6427300933073647E+00 
    1.3100304866463429E+01 
    8.4066418513841228E+00 
    7.4273175233545974E+00 
    6.4344974410425095E+00 
    4.4876014403960260E+00 
    9.3510955539161831E+00 
    6.6053507324553884E+00 
    1.0255180610531404E+01 
    1.8982158584092890E+00 
    9.2837483873073747E+00 
    1.1231971022279110E+01 
    5.0570657897844002E+00 
    1.1681655054788724E+01 
    1.2934399872854785E+01 
    1.1563965774230047E+01 
    8.2853847919086601E+00 
    8.3950551222901630E+00 
    8.3996256901625586E+00 
    4.8876415117838823E+00 
    7.5544022840188623E+00 
    7.4329780960161127E+00 
    8.3890552588177503E+00 
    7.7205573644419614E+00 
    5.7892027212919961E-01 
    5.2881038416677573E+00 
    8.0331311964507108E+00 
    8.3663824149519748E+00 
    1.0534253141817384E+01 
    1.8062262996583258E+00 
    8.7259139442029916E+00 
    8.6260169877732871E+00 
    3.1232144380124822E+00 
    1.1458854392425796E+01 
    7.1951963752032819E+00 
    8.5085846371387710E+00 
    1.1515342441324924E+01 
    4.5367164412896424E+00 
    1.1547427845637500E+01 
    7.2724668582754948E+00 
    8.2464477696036587E-01 
    7.8219191545147044E+00 
    1.2032582508015491E+01 
    1.1287925588638979E+01 
    1.1307232497117411E+01 
    8.7437856825995652E+00 
    8.5693244801104278E+00 
    7.1691313977957787E+00 
    5.7210770452385624E+00 
    1.1609348143038453E+01 
    7.9375170416523577E+00 
    5.5377989100556064E+00 
    1.1300317447820957E+01 
    1.1868010681089563E+01 
    8.5631709005182728E+00 
    8.2032474654358030E+00 
    1.4046516031157717E+01 
    8.7615196748707405E+00 
    1.1621088899776991E+01 
    6.8326752805860034E+00 
    1.4185877314532972E+01 
    5.5375082745423079E+00 
    7.5377227250610606E+00 
    6.1937019661521164E+00 
    8.9601011751831550E+00 
    7.0983802030476353E+00 
    1.4170150293289156E+01 
    8.8028634789155884E+00 
    1.1033794333571942E+01 
    5.6936114542095240E+00 
    8.4208690401401434E+00 
    1.1486602355781677E+01 
    7.1199307489660484E+00 
    5.9865833623980347E+00 
    9.1952292822809856E+00 
    1.1680480044026586E+01 
    6.1056160665659318E+00 
    7.9433485526643235E+00 
    8.2265983653646000E+00 
    1.1267430535351529E+01 
    8.0567053555234338E+00 
    1.1655509611070494E+01 
    1.2185363545909164E+01 
    7.1907589301571129E+00 
    7.0554644013656782E+00 
    6.6279272144854895E+00 
    1.1383411934119483E+01 
    8.6201611177762008E+00 
    1.3772661628228580E+01 
    1.0742977309694817E+01 
    1.1453981281706705E+01 
    1.3484665900167283E+01 
    1.2938078615534783E+01 
    8.4622416319475811E+00 
    8.3751692681730052E+00 
    1.1094757271514634E+01 
    1.1317811511307550E+01 
    1.1757230121012098E+01 
    1.1534384071168894E+01 
    1.4063220201130195E+01 
    8.7611214749150346E+00 
    7.2721285010951826E+00 
    8.7228232635871787E+00 
    1.2110618645289193E+01 
    8.5410942096660900E+00 
    4.9600957072816589E+00 
    8.2709378277587824E+00 
    1.2472506009748175E+01 
    8.6570626109626634E+00 
    7.2747833285110239E+00 
    8.1694577374683632E+00 
    1.2568821212663208E+01 
    1.1322935787166049E+01 
    6.9128561198635889E+00 
    1.2691652991693379E+01 
    8.4861742693746649E+00 
    1.1744142070557160E+01 
    1.2581925881925446E+01 
    8.8298727800045338E+00 
    4.5294046125913301E+00 
    9.1689600688070243E+00 
    4.6823051666161906E+00 
    8.5817366307751026E+00 
    8.4156042369432544E+00 
    9.6439379635226583E+00 
    4.9409291936877207E+00 
    1.0238892110786040E+01 
    8.4324173521378203E+00 
    1.1525403209093101E+01 
    8.7914722080062333E+00 
    6.6642215450918849E+00 
    8.0584336351729746E+00 
    8.8779386844834853E+00 
    8.8514507013161428E+00 
    1.2228168783966931E+01 
    6.9656088453196130E+00 
    6.8514921305180749E+00 
    5.1814654794107957E+00 
    1.1776716838628962E+01 
    8.0951377703938441E+00 
    1.1157558208551489E+01 
    8.3863237560672985E+00 
    5.6396732116353521E+00 
    1.1350937482853976E+01 
    8.3620237797020547E+00 
    6.1261119616709934E+00 
    6.4750239648839756E+00 
    6.6934260430658705E+00 
    1.1552625215520450E+01 
    8.3909260390851497E+00 
    1.2084057058998679E+01 
    8.3212423832268030E+00 
    8.2616857193841327E+00 
    7.8680996972507025E+00 
    1.1418319757871625E+01 
    8.1860114389135656E+00 
    6.7266434092352432E+00 
    1.2925020564778407E+01 
    1.1485216468044030E+01 
    5.7988500845477091E+00 
    2.2846754287016231E+00 
    8.3804743478327808E+00 
    7.8313883065844392E+00 
    7.0530987003912236E+00 
    7.6993568448046590E+00 
    1.1452051518523191E+01 
    8.1185693992778702E+00 
    7.3296327625479583E+00 
    1.1335778888384638E+01 
    5.7474386002026607E+00 
    1.1062389645313115E+01 
    7.5759614953578627E+00 
    6.6396403879659314E+00 
    7.1154515512844076E+00 
    1.1816083848121178E+01 
    8.4025733636729214E+00 
    8.4098008278413996E+00 
    5.0214901004437582E+00 
    5.4036964667142344E+00 
    1.0514901036413292E+01 
    8.4186487574222095E+00 
    8.4204430259411680E+00 
    1.2676170868011926E+01 
    6.8499204607071018E+00 
    8.4291920015574835E+00 
    5.9478197223967282E+00 
    6.1380576256635138E+00 
    1.1413619068919486E+01 
    8.0894654643561328E+00 
    5.9245689647753244E+00 
    8.8300531392649866E+00 
    8.3040654525053945E+00 
    1.1416159414849641E+01 
    1.2759787082595876E+01 
    8.8661080082670962E-01 
    8.3850890328033465E+00 
    8.6198384909270018E+00 
    1.1467779508884474E+01 
    7.8848104177861273E+00 
    8.3784116265813999E+00 
    1.2271073182662928E+01 
    7.1408601659249875E+00 
    5.9731020377690731E+00 
    1.0150580875742152E+01 
    1.1298946295425180E+01 
    1.2160869670039052E+01 
    1.2391946904887208E+01 
    8.2386256872907921E+00 
    8.3777700513267650E+00 
    9.4061240919678948E+00 
    5.5146557171729116E+00 
    1.1401881345153537E+01 
    6.4128229765759537E+00 
    5.7388417553992417E+00 
    1.0482748127927472E+01 
    9.8540953960969411E+00 
    5.6295445744545507E+00 
    1.1328578071349234E+01 
    1.2147722394973785E+01 
    8.7747240141856775E+00 
    1.2850498551729419E+01 
    1.1354587228627990E+01 
    7.9738826700097150E+00 
    1.1919648173982486E+01 
    6.1365137469501105E+00 
    1.1313267307197242E+01 
    8.3843863385077206E+00 
    8.3446566411876919E+00 
    1.2826986045468036E+01 
    8.1225272663970536E+00 
    1.0234269830768135E+01 
    7.1007947062551127E+00 
    1.2249220172795422E+01 
    1.1237114168446722E+01 
    7.3944592897377239E+00 
    1.1281166043836471E+01 
    7.5684127727332777E+00 
    8.3873898095953354E+00 
    1.2112960880214349E+01 
    1.1530167417721293E+01 
    1.2150779598295843E+01 
    1.1470965924859845E+01 
    7.5643510891512387E+00 
    7.7682068323075963E+00 
    1.2156090160156854E+01 
    7.8729537450255673E+00 
    1.1180967556678667E+01 
    8.1172885606645924E+00 
    3.3724943724871133E+00 
    5.7948932070637609E+00 
    5.3736418852828258E+00 
    1.2115561938252773E+01 
    1.2764434749524456E+01 
    1.1296133300825673E+01 
    9.7469184830672493E+00 
    1.1528892768598409E+01 
    1.1333391440506892E+01 
    1.1819492876185359E+01 
    4.8527336627098849E+00 
    3.1421854833309260E+00 
    9.5627487422363711E+00 
    8.0315382477641677E+00 
    1.1453721741475114E+01 
    1.1451752180529196E+01 
    8.6333559093079693E+00 
    1.1482118923105748E+01 
    8.3725863569411434E+00 
    8.2522538357831259E+00 
    4.3851512964171775E+00 
    3.1292308557212958E+00 
    1.2566071630541378E+01 
    6.5143153573217845E+00 
    7.3429858859858799E+00 
    8.5495187240578741E+00 
    1.4046614027039890E+01 
    8.6282001444021752E+00 
    8.6023321916452620E+00 
    3.5499872252382070E+00 
    8.6285121419537614E+00 
    8.6397230221282744E+00 
    1.1708751983103754E+01 
    7.1241519710993044E+00 
    8.0106329684523327E+00 
    1.2715717862148621E+01 
    8.3929314272469924E+00 
    1.1308934479693795E+01 
    1.1513674217090777E+01 
    1.0385101950823650E+01 
    7.0775240241038269E+00 
    1.1471044116069105E+01 
    8.1852573506315167E+00 
    1.1467757939153577E+01 
    1.1256104789529809E+01 
    1.2132201220974105E+01 
    1.1467493480746990E+01 
    1.0775135834871531E+01 
    8.3826954922856682E+00 
    5.5838322138359100E+00 
    1.3927179313858851E+01 
    6.5389235596564470E+00 
    1.2068989484631155E+01 
    8.3801577844121820E+00 
    6.8985019474084774E+00 
    4.1551031436063699E+00 
    8.6678445983595704E+00 
    1.1459498894949302E+01 
    1.1457354624536888E+01 
    8.3693056157726406E+00 
    8.3744157647741559E+00 
    1.2903421125144384E+01 
    1.2341847672596579E+01 
    8.6443399121946527E+00 
    2.9248224076282634E+00 
    1.0755600833674393E+01 
    1.4169007897353588E+01 
    8.3859434984788592E+00 
    1.0057395322890088E+01 
    7.8795857058054910E+00 
    1.3795499751319756E+01 
    1.2411463666170727E+01 
    1.2183668976381483E+01 
    8.6627834330589728E+00 
    3.8906110985459756E+00 
    7.8431002223234376E+00 
    7.9044206531713339E+00 
    7.9541861041842283E+00 
    3.1839625453147669E+00 