# vtk DataFile Version 2.0
Pressure Field Data 
ASCII 
DATASET UNSTRUCTURED_GRID 

POINTS 2860 double 

    0.0000000000000000E+00     0.0000000000000000E+00     0.0000000000000000E+00 
    1.0000000000000000E+00     0.0000000000000000E+00     0.0000000000000000E+00 
    1.0000000000000000E+00     1.0000000000000000E+00     0.0000000000000000E+00 
    0.0000000000000000E+00     1.0000000000000000E+00     0.0000000000000000E+00 
    2.5000000000000000E-01     2.5000000000000000E-01     0.0000000000000000E+00 
    7.5000000000000000E-01     2.5000000000000000E-01     0.0000000000000000E+00 
    7.5000000000000000E-01     7.5000000000000000E-01     0.0000000000000000E+00 
    2.5000000000000000E-01     7.5000000000000000E-01     0.0000000000000000E+00 
    3.1249999999942091E-02     0.0000000000000000E+00     0.0000000000000000E+00 
    6.2499999999873469E-02     0.0000000000000000E+00     0.0000000000000000E+00 
    9.3749999999826514E-02     0.0000000000000000E+00     0.0000000000000000E+00 
    1.2499999999977961E-01     0.0000000000000000E+00     0.0000000000000000E+00 
    1.5624999999968961E-01     0.0000000000000000E+00     0.0000000000000000E+00 
    1.8749999999959971E-01     0.0000000000000000E+00     0.0000000000000000E+00 
    2.1874999999950970E-01     0.0000000000000000E+00     0.0000000000000000E+00 
    2.4999999999941969E-01     0.0000000000000000E+00     0.0000000000000000E+00 
    2.8124999999932920E-01     0.0000000000000000E+00     0.0000000000000000E+00 
    3.1249999999923850E-01     0.0000000000000000E+00     0.0000000000000000E+00 
    3.4374999999914790E-01     0.0000000000000000E+00     0.0000000000000000E+00 
    3.7499999999905720E-01     0.0000000000000000E+00     0.0000000000000000E+00 
    4.0624999999896660E-01     0.0000000000000000E+00     0.0000000000000000E+00 
    4.3749999999887590E-01     0.0000000000000000E+00     0.0000000000000000E+00 
    4.6874999999878530E-01     0.0000000000000000E+00     0.0000000000000000E+00 
    4.9999999999869471E-01     0.0000000000000000E+00     0.0000000000000000E+00 
    5.3124999999877620E-01     0.0000000000000000E+00     0.0000000000000000E+00 
    5.6249999999885780E-01     0.0000000000000000E+00     0.0000000000000000E+00 
    5.9374999999893940E-01     0.0000000000000000E+00     0.0000000000000000E+00 
    6.2499999999902101E-01     0.0000000000000000E+00     0.0000000000000000E+00 
    6.5624999999910261E-01     0.0000000000000000E+00     0.0000000000000000E+00 
    6.8749999999918421E-01     0.0000000000000000E+00     0.0000000000000000E+00 
    7.1874999999926570E-01     0.0000000000000000E+00     0.0000000000000000E+00 
    7.4999999999934730E-01     0.0000000000000000E+00     0.0000000000000000E+00 
    7.8124999999942890E-01     0.0000000000000000E+00     0.0000000000000000E+00 
    8.1249999999951039E-01     0.0000000000000000E+00     0.0000000000000000E+00 
    8.4374999999959199E-01     0.0000000000000000E+00     0.0000000000000000E+00 
    8.7499999999967359E-01     0.0000000000000000E+00     0.0000000000000000E+00 
    9.0624999999975520E-01     0.0000000000000000E+00     0.0000000000000000E+00 
    9.3749999999983680E-01     0.0000000000000000E+00     0.0000000000000000E+00 
    9.6874999999991840E-01     0.0000000000000000E+00     0.0000000000000000E+00 
    1.0000000000000000E+00     3.1249999999942091E-02     0.0000000000000000E+00 
    1.0000000000000000E+00     6.2499999999873469E-02     0.0000000000000000E+00 
    1.0000000000000000E+00     9.3749999999826514E-02     0.0000000000000000E+00 
    1.0000000000000000E+00     1.2499999999977961E-01     0.0000000000000000E+00 
    1.0000000000000000E+00     1.5624999999968961E-01     0.0000000000000000E+00 
    1.0000000000000000E+00     1.8749999999959971E-01     0.0000000000000000E+00 
    1.0000000000000000E+00     2.1874999999950970E-01     0.0000000000000000E+00 
    1.0000000000000000E+00     2.4999999999941969E-01     0.0000000000000000E+00 
    1.0000000000000000E+00     2.8124999999932920E-01     0.0000000000000000E+00 
    1.0000000000000000E+00     3.1249999999923850E-01     0.0000000000000000E+00 
    1.0000000000000000E+00     3.4374999999914790E-01     0.0000000000000000E+00 
    1.0000000000000000E+00     3.7499999999905720E-01     0.0000000000000000E+00 
    1.0000000000000000E+00     4.0624999999896660E-01     0.0000000000000000E+00 
    1.0000000000000000E+00     4.3749999999887590E-01     0.0000000000000000E+00 
    1.0000000000000000E+00     4.6874999999878530E-01     0.0000000000000000E+00 
    1.0000000000000000E+00     4.9999999999869471E-01     0.0000000000000000E+00 
    1.0000000000000000E+00     5.3124999999877620E-01     0.0000000000000000E+00 
    1.0000000000000000E+00     5.6249999999885780E-01     0.0000000000000000E+00 
    1.0000000000000000E+00     5.9374999999893940E-01     0.0000000000000000E+00 
    1.0000000000000000E+00     6.2499999999902101E-01     0.0000000000000000E+00 
    1.0000000000000000E+00     6.5624999999910261E-01     0.0000000000000000E+00 
    1.0000000000000000E+00     6.8749999999918421E-01     0.0000000000000000E+00 
    1.0000000000000000E+00     7.1874999999926570E-01     0.0000000000000000E+00 
    1.0000000000000000E+00     7.4999999999934730E-01     0.0000000000000000E+00 
    1.0000000000000000E+00     7.8124999999942890E-01     0.0000000000000000E+00 
    1.0000000000000000E+00     8.1249999999951039E-01     0.0000000000000000E+00 
    1.0000000000000000E+00     8.4374999999959199E-01     0.0000000000000000E+00 
    1.0000000000000000E+00     8.7499999999967359E-01     0.0000000000000000E+00 
    1.0000000000000000E+00     9.0624999999975520E-01     0.0000000000000000E+00 
    1.0000000000000000E+00     9.3749999999983680E-01     0.0000000000000000E+00 
    1.0000000000000000E+00     9.6874999999991840E-01     0.0000000000000000E+00 
    9.6875000000003686E-01     1.0000000000000000E+00     0.0000000000000000E+00 
    9.3750000000011691E-01     1.0000000000000000E+00     0.0000000000000000E+00 
    9.0625000000015765E-01     1.0000000000000000E+00     0.0000000000000000E+00 
    8.7500000000017863E-01     1.0000000000000000E+00     0.0000000000000000E+00 
    8.4375000000028044E-01     1.0000000000000000E+00     0.0000000000000000E+00 
    8.1250000000040856E-01     1.0000000000000000E+00     0.0000000000000000E+00 
    7.8125000000054956E-01     1.0000000000000000E+00     0.0000000000000000E+00 
    7.5000000000066480E-01     1.0000000000000000E+00     0.0000000000000000E+00 
    7.1875000000086831E-01     1.0000000000000000E+00     0.0000000000000000E+00 
    6.8750000000102829E-01     1.0000000000000000E+00     0.0000000000000000E+00 
    6.5625000000114431E-01     1.0000000000000000E+00     0.0000000000000000E+00 
    6.2500000000129829E-01     1.0000000000000000E+00     0.0000000000000000E+00 
    5.9375000000147926E-01     1.0000000000000000E+00     0.0000000000000000E+00 
    5.6250000000168354E-01     1.0000000000000000E+00     0.0000000000000000E+00 
    5.3125000000188671E-01     1.0000000000000000E+00     0.0000000000000000E+00 
    5.0000000000205835E-01     1.0000000000000000E+00     0.0000000000000000E+00 
    4.6875000000192979E-01     1.0000000000000000E+00     0.0000000000000000E+00 
    4.3750000000180111E-01     1.0000000000000000E+00     0.0000000000000000E+00 
    4.0625000000167238E-01     1.0000000000000000E+00     0.0000000000000000E+00 
    3.7500000000154382E-01     1.0000000000000000E+00     0.0000000000000000E+00 
    3.4375000000141509E-01     1.0000000000000000E+00     0.0000000000000000E+00 
    3.1250000000128642E-01     1.0000000000000000E+00     0.0000000000000000E+00 
    2.8125000000115769E-01     1.0000000000000000E+00     0.0000000000000000E+00 
    2.5000000000102918E-01     1.0000000000000000E+00     0.0000000000000000E+00 
    2.1875000000090050E-01     1.0000000000000000E+00     0.0000000000000000E+00 
    1.8750000000077180E-01     1.0000000000000000E+00     0.0000000000000000E+00 
    1.5625000000064329E-01     1.0000000000000000E+00     0.0000000000000000E+00 
    1.2500000000051459E-01     1.0000000000000000E+00     0.0000000000000000E+00 
    9.3750000000385914E-02     1.0000000000000000E+00     0.0000000000000000E+00 
    6.2500000000257239E-02     1.0000000000000000E+00     0.0000000000000000E+00 
    3.1250000000128557E-02     1.0000000000000000E+00     0.0000000000000000E+00 
    0.0000000000000000E+00     9.6875000000003686E-01     0.0000000000000000E+00 
    0.0000000000000000E+00     9.3750000000011691E-01     0.0000000000000000E+00 
    0.0000000000000000E+00     9.0625000000015765E-01     0.0000000000000000E+00 
    0.0000000000000000E+00     8.7500000000017863E-01     0.0000000000000000E+00 
    0.0000000000000000E+00     8.4375000000028044E-01     0.0000000000000000E+00 
    0.0000000000000000E+00     8.1250000000040856E-01     0.0000000000000000E+00 
    0.0000000000000000E+00     7.8125000000054956E-01     0.0000000000000000E+00 
    0.0000000000000000E+00     7.5000000000066480E-01     0.0000000000000000E+00 
    0.0000000000000000E+00     7.1875000000086831E-01     0.0000000000000000E+00 
    0.0000000000000000E+00     6.8750000000102829E-01     0.0000000000000000E+00 
    0.0000000000000000E+00     6.5625000000114431E-01     0.0000000000000000E+00 
    0.0000000000000000E+00     6.2500000000129829E-01     0.0000000000000000E+00 
    0.0000000000000000E+00     5.9375000000147926E-01     0.0000000000000000E+00 
    0.0000000000000000E+00     5.6250000000168354E-01     0.0000000000000000E+00 
    0.0000000000000000E+00     5.3125000000188671E-01     0.0000000000000000E+00 
    0.0000000000000000E+00     5.0000000000205835E-01     0.0000000000000000E+00 
    0.0000000000000000E+00     4.6875000000192979E-01     0.0000000000000000E+00 
    0.0000000000000000E+00     4.3750000000180111E-01     0.0000000000000000E+00 
    0.0000000000000000E+00     4.0625000000167238E-01     0.0000000000000000E+00 
[...]
CELL_DATA 2795 
SCALARS Pressure double 1 
LOOKUP_TABLE default 

    8.6693189721886288E+00 
    1.9239079644453863E+01 
    1.3564642877376103E+01 
    1.3264049176048967E+01 
    1.0658040789046220E+01 
    1.9031202793963750E+01 
    2.0048156322397766E+01 
    7.7482892201684574E+00 
    1.4121765841093238E+01 
    1.0865340354846252E+01 
    9.2500046278102186E+00 
    1.8639840856503110E+01 
    1.9064343840780015E+01 
    1.8981508531572153E+01 
    1.2563463732305630E+01 
    7.6124976223005580E+00 
    1.2289422583517103E+01 
    9.8535918917245500E+00 
    1.8071931731274130E+01 
    1.3543330768305157E+01 
    1.3440310286619447E+01 
    1.8878661115921663E+01 
    1.2933974915211937E+01 
    5.3618615448207985E-01 
    1.8563254029623138E+01 
    1.9067664271192584E+01 
    2.0091593664900994E+01 
    8.9081815034623020E+00 
    1.8508218496733129E+01 
    2.0072259576958896E+01 
    1.3773726434481912E+01 
    1.3747287635543900E+01 
    9.6739683674890138E+00 
    1.3527873899854930E+01 
    4.4593477804326991E+00 
    1.2293361014729806E+01 
    1.3512142047058019E+01 
    2.0123798516520122E+01 
    2.0019683330324906E+01 
    1.8658639843413784E+01 
    1.0512341932521561E+01 
    1.8634450578526561E+01 
    1.1026080324909575E+00 
    1.3539133914040310E+01 
    1.9731389201127314E+01 
    1.9437475068173079E+01 
    1.8623898042745484E+01 
    1.4544603954179477E+01 
    1.8659503623871704E+01 
    1.2563116294406932E+01 
    1.1998459507559437E+01 
    1.3709485873061666E+01 
    1.3428006671756577E+01 
    1.2357949404274756E+01 
    1.3854713274912397E+01 
    1.7760498788506069E+01 
    1.5758205007573016E+01 
    1.0716167408076887E+01 
    1.8891566810030877E+01 
    1.8761264838864530E+01 
    1.3221159313911899E+01 
    1.3064776111126978E+01 
    1.3148735060952523E+01 
    1.9942651125606432E+01 
    2.0277186800224513E+01 
    1.2305814386283579E+01 
    1.3707568323971028E+01 
    1.8334689415506304E+01 
    1.5575496035408472E+01 
    1.3145487116556765E+01 
    2.0292234888500619E+01 
    1.8796807663765765E+01 
    1.2146351436773692E+01 
    1.9571982281259235E+01 
    1.4132046001701712E+01 
    1.8400070470399172E+01 
    2.0149698024577109E+01 
    1.4166885922825017E+01 
    8.7378811331975328E+00 
    1.3726956733639213E+01 
    2.0029668893042583E+01 
    2.0328710581284209E+01 
    1.2312970433033204E+01 
    1.3653391780133694E+01 
    2.0395582241445368E+01 
    1.3509315003790203E+01 
    1.3042760927970708E+01 
    1.6128281618507931E+01 
    8.3873787270512388E+00 
    1.2035382470399140E+01 
    1.3649818755723524E+01 
    1.4281170817782849E+01 
    2.2133814874178238E+01 
    1.0354114784746127E+01 
    1.3715915824609398E+01 
    1.8591066142409741E+01 
    1.8976262566542349E+01 
    9.1079899692583517E+00 
    1.3365089810256098E+01 
    1.3684999993678513E+01 
    1.9018304279229621E+01 
    1.3672101499587736E+01 
    1.8899638360459800E+01 
    5.5206763331106838E+00 
    8.9868996318542518E+00 
    1.3948266590267805E+01 
    1.9254625662181482E+01 
    1.2252440673702518E+01 
    1.2938002247545651E+01 
    1.3645361451251382E+01 
    1.3003940460087865E+01 
    1.5325224606240514E+01 
    1.2611582003886451E+01 
    1.2154428385616535E+01 
    9.5010398329846417E+00 
    1.6112680241376594E+01 
    1.3752722964283885E+01 
    1.9828831333754039E+01 
    1.1805234111868458E+01 
    1.3239784080447185E+01 
    1.8805016435916905E+01 
    1.1128946687634786E+01 
    1.9462437117941146E+01 
    1.3582163459621697E+01 
    1.3158942811046828E+01 
    1.8986544289826099E+01 
    1.3740142581298953E+01 
    2.0162814440518709E+01 
    1.6158054923381499E+01 
    1.7518932322669038E+01 
    2.0113733942822343E+01 
    1.0375426882246053E+01 
    1.3969420109923908E+01 
    1.9026594817708663E+01 
    4.1195791432388935E+00 
    1.3829419342399685E+01 
    2.0069386358773290E+01 
    1.3189638449890843E+01 
    1.4993237235545642E+01 
    8.9647421798667573E+00 
    1.8596278072625356E+01 
    2.2676468944421782E+01 
    1.6793163605676718E+01 
    1.3192348832595515E+01 
    1.1893617749329360E+01 
    1.4612780469763997E+01 
    1.3599468623349189E+01 
    9.3686662737472943E+00 
    2.0108871262396868E+01 
    1.9047874054617694E+01 
    1.8593916090044235E+01 
    1.4281692099469844E+01 
    1.2096498810712601E+01 
    1.3434263090398826E+01 
    1.9606572014469936E+01 
    1.2425465730998273E+01 
    1.3726509076810103E+01 
    1.2634423420326558E+01 
    1.5889196205066547E+01 
    2.2663595093916388E+01 
    1.8576982707325545E+01 
    1.1935757006115725E+01 
    1.9279245878217527E+01 
    1.9194645884352823E+01 
    1.9309037608164338E+01 
    2.0653287430668623E+01 
    2.1316237740726855E+01 
    1.9410079669831475E+01 
    1.3698694877987993E+01 
    1.4773084954947079E+01 
    1.9176946915201388E+01 
    1.9829188293523426E+01 
    9.8208564307758124E+00 
    1.8620971169588103E+01 
    1.9547740821508636E+01 
    9.5415435777137212E+00 
    2.0584628656778090E+01 
    2.0519015871465019E+01 
    1.8168650323681522E+01 
    1.4046174286406954E+01 
    3.6423309578697842E+00 
    2.0070330010294683E+01 
    1.3882135593686748E+01 
    2.0230962692223056E+01 
    1.3104095280802575E+01 
    1.9776993719389097E+01 
    1.3678022091515385E+00 
    1.7513914009536570E+01 
    1.3115779205814560E+01 
    1.2057973125283233E+01 
    1.1764917169334902E+01 
    1.3548607765187931E+01 
    1.4860773990657142E+01 
    1.4238937203728016E+01 
    9.6022496404960656E+00 
    1.9833377555570628E+01 
    1.9071211185579489E+01 
    1.5721857624755712E+01 
    1.3938390341103560E+01 
    2.0994754250902865E+00 
    1.0858609823839096E+01 
    7.4956777346128796E+00 
    2.0087310578974673E+01 
    1.5172442195241832E+01 
    1.9064903365822172E+01 
    1.9165330831091296E+01 
    1.2514388789764396E+01 
    1.5813922249096816E+01 
    1.8575505118250220E+01 
    2.0501423292132539E+01 
    8.9635819212855576E+00 
    1.6813218998094037E+01 
    1.4204109118582970E+01 
    7.9915646237749520E+00 
    1.2518080146589302E+01 
    1.6508468845066314E+01 
    1.9109826867245143E+01 
    1.3600176274950302E+01 
    1.9275030718935295E+01 
    1.8924073921328787E+01 
    1.8856772483460752E+01 
    1.3436746814734457E+01 
    1.1919117216889665E+01 
    1.8606560467163810E+01 
    1.2132104331235645E+01 
    1.3682364615266149E+01 
    1.1917410612122783E+01 
    1.3674269220290986E+01 
    1.9178146769731601E+01 
    8.4732331328522097E+00 
    1.2403069664798993E+01 
    1.9979245275142887E+01 
    1.3442989255194458E+01 
    1.5048388235475587E+01 
    8.6888628648945527E+00 
    1.2219408323638604E+01 
    1.8890501392723881E+01 
    1.9354818956652817E+01 
    7.1185110240958815E+00 
    1.3459969327418863E+01 
    1.1931814492311094E+01 
    2.1038933250128977E+01 
    2.0344731261811841E+01 
    2.1354978272630227E+01 
    1.3480397201787856E+01 
    1.9138753292425772E+01 
    1.8494010216853269E+01 
    1.3326721525366661E+01 
    1.8593642212398787E+01 
    1.3938738599575329E+01 
    8.0572874513604358E+00 
    1.3883617370662707E+01 
    1.9957859633536607E+01 
    1.8587732260114844E+01 
    9.2125061365303829E+00 
    1.8633463160287405E+01 
    1.4894138239451719E+01 
    1.3804753630787063E+01 
    1.3274965673702749E+01 
    1.8371856288365841E+01 
    1.4420129427749082E+01 
    1.8613641258243220E+01 
    1.3467218286436054E+01 
    8.2877629044435981E+00 
    1.3763714788995847E+01 
    1.1761868403079333E+01 
    1.6822004379296391E+01 
    2.0228493097575658E+01 
    1.8606335124397344E+01 
    2.0060301933419463E+01 
    1.3377736413799353E+01 
    8.9626403812873665E+00 
    9.0909454525720648E+00 
    1.4026173905303922E+01 
    1.3650964035872475E+01 
    2.0834472459480438E+00 
    1.7805107851727076E+01 
    2.0709612755770511E+01 
    1.3124841316134690E+01 
    8.4385203696470334E+00 
    1.5642965785227691E+01 
    1.8626550680230363E+01 
    1.0030621672491931E+01 
    6.8289219505194634E+00 
    1.3637883072258413E+01 
    1.8740197944557327E+01 
    1.9710713709821675E+01 
    1.9450879460369030E+01 
    1.9361724038353362E+01 
    9.7387803682500067E+00 
    1.3799274636168816E+01 
    1.8014651607008648E+01 
    1.0663326219442315E+01 
    1.9043709410840993E+01 
    1.6095179324430859E+01 
    9.2217914421976008E+00 
    1.8729678185417217E+01 
    2.0111321531861769E+01 
    1.8748048707739613E+01 
    9.6570157896614628E+00 
    1.3703330340275533E+01 
    1.0626062434788963E+01 
    1.2934193345171785E+01 
    1.8617884611583218E+01 
    1.8600123895783021E+01 
    9.7203868036702001E+00 
    1.9835934490566018E+01 
    1.4337482212198093E+01 
    1.8654953678705404E+01 
    1.9858270421238352E+01 
    1.8633175344788420E+01 
    1.7117923349352893E+01 
    2.1122806835980001E+01 
    1.3057290624210701E+01 
    2.0019641855083684E+01 
    1.8685110438329193E+01 
    2.0117380608161579E+01 
    1.9824890430320362E+01 
    1.3182328999596129E+01 
    1.3552809906372964E+01 
    1.3114863011565211E+01 
    1.6418669933574968E+01 
    5.5498570794823072E+00 
    1.3950051902496991E+01 
    2.1264265783768618E+01 
    1.3944715212205383E+01 
    1.4179781026464289E+01 
    2.0080804819067730E+01 
    2.0373236099203311E+01 
    1.2935219880102990E+01 
    1.8639340379812406E+01 
    1.8596059582529865E+01 
    1.4163904681802462E+01 
    1.9758689092438143E+01 
    9.7559004252558008E+00 
    6.2116066721624241E+00 
    1.4521604340933466E+01 
    1.3959100376596997E+01 
    1.8590861905662010E+01 
    9.0936668886702616E+00 
    1.9354048846747169E+01 
    6.3455464534767119E+00 
    1.3889203755095131E+01 
    1.3190869658616428E+01 
    1.3678876515063108E+01 
    2.2715351579179245E+01 
    5.3816635827636592E+00 
    1.3850190639086156E+01 
    1.6427458466341680E+01 
    1.3263448817739265E+01 
    1.0586719994211144E+01 
    1.9596935490199645E+01 
    2.2238207428493606E+01 
    1.9748142056742360E+01 
    1.3776306291589158E+01 
    7.9655598827433041E+00 
    2.2074624476666813E+01 
    1.9044760376348599E+01 
    1.0029286805931786E+01 
    1.3366700882699183E+01 
    2.0628517975060230E+01 
    4.5804289135331482E+00 
    1.4024454926050050E+01 
    1.9756196053421100E+01 
    1.3695993066803309E+01 
    1.1918436473220471E+01 
    1.3898297610781817E+01 
    1.8120394209147854E+01 
    1.3677827358761123E+01 
    7.1013222377093435E+00 
    1.3463891683020113E+00 
    1.0207734497560244E+01 
    2.0944313510744468E+01 
    1.3114721058407952E+01 
    1.5398657985452246E+01 
    1.4791138679054066E+01 
    1.6851407146000014E+01 
    1.3710213752458001E+01 
    1.8905903693058722E+01 
    2.2730298879826201E+01 
    1.6021891079670723E+01 
    1.9981977235804660E+01 
    8.0500731902657996E-01 
    1.8601896741249337E+01 
    7.7673866471053667E+00 
    2.1458744233109716E+01 
    1.3866673840029540E+01 
    1.2188568886898798E+01 
    1.0836156599983306E+01 
    7.4725200680721304E+00 
    1.5108600649244666E+01 
    1.0813783074527258E+01 
    1.6677596349001838E+01 
    3.0711874421784997E+00 
    1.4941589756157251E+01 
    1.8479176968929782E+01 
    8.2527730155177235E+00 
    1.9224401418805318E+01 
    2.1187460737528188E+01 
    1.9045076891512316E+01 
    1.3700143875964425E+01 
    1.3671935959484056E+01 
    1.3857889929887204E+01 
    8.0909304060595542E+00 
    1.2770937253661890E+01 
    1.2572767326900168E+01 
    1.3844575347458729E+01 
    1.3027934652494586E+01 
    1.0275197151365481E+00 
    8.8744263306537317E+00 
    1.3495602691074067E+01 
    1.3813637262802811E+01 
    1.7158324803341184E+01 
    3.0098060569535328E+00 
    1.4112969493876379E+01 
    1.3967958417809495E+01 
    5.1821459740523137E+00 
    1.8854859343167419E+01 
    1.2145029267604189E+01 
    1.3814913470285823E+01 
    1.9027412147844863E+01 
    7.4922717513893744E+00 
    1.8998257955007396E+01 
    1.2310033276009380E+01 
    1.3742644442651002E+00 
    1.3188413252276208E+01 
    1.9887476388280760E+01 
    1.8604343927194115E+01 
    1.8632657871942190E+01 
    1.4273567929254954E+01 
    1.3892271924518143E+01 
    1.2140166817378628E+01 
    9.6259919139909567E+00 
    1.9177627948572873E+01 
    1.3360149386117916E+01 
    9.3316115538122215E+00 
    1.8625237547906583E+01 
    1.9586481813103763E+01 
    1.4054022779070616E+01 
    1.3494829442494970E+01 
    2.2600101313378246E+01 
    1.4165128571958368E+01 
    1.9236275463814966E+01 
    1.1534981876943730E+01 
    2.2758465748944047E+01 
    9.0391868798048058E+00 
    1.2612269123638763E+01 
    1.0232778613999432E+01 
    1.4459250682532446E+01 
    1.1737032580884966E+01 
    2.2741439125528078E+01 
    1.4226153791306167E+01 
    1.8103455480030028E+01 
    9.3058147665335547E+00 
    1.3703891450880976E+01 
    1.8999141460127181E+01 
    1.1823183603012421E+01 
    1.0042267728175112E+01 
    1.5310937414952773E+01 
    1.9320497273844250E+01 
    9.9729979654473730E+00 
    1.3218475466816775E+01 
    1.3536198755908616E+01 
    1.8562210068057237E+01 
    1.3283667161350385E+01 
    1.9308508058074604E+01 
    2.0155880338588211E+01 
    1.2168876581593649E+01 
    1.1923851467736192E+01 
    1.0824420448349098E+01 
    1.8772284401480679E+01 
    1.3987982426028953E+01 
    2.2279689028265555E+01 
    1.7332256355625223E+01 
    1.8931199738951641E+01 
    2.1929026212337909E+01 
    2.1192690427300874E+01 
    1.3753594885836238E+01 
    1.3825958744004128E+01 
    1.8188634974457663E+01 
    1.8660460763878678E+01 
    1.9412529294381400E+01 
    1.9073631351527354E+01 
    2.2626901273154850E+01 
    1.4164513809106234E+01 
    1.2304733351667233E+01 
    1.4130558755190048E+01 
    2.0038801486543544E+01 
    1.3854338670078477E+01 
    8.0997329273704892E+00 
    1.3680253949672128E+01 
    2.0595355684061431E+01 
    1.4012074713880525E+01 
    1.2314648402020921E+01 
    1.3475476538983614E+01 
    2.0737101579320967E+01 
    1.8729240502814179E+01 
    1.1651088317106892E+01 
    2.0906289278807112E+01 
    1.3783666321121380E+01 
    1.9451505937107555E+01 
    2.0750300342023785E+01 
    1.4554812399605607E+01 
    7.4924633103144656E+00 
    1.5095831435982127E+01 
    7.7477161125228218E+00 
    1.3907436130439780E+01 
    1.3701236632882946E+01 
    1.5864142865810702E+01 
    8.1891286228310793E+00 
    1.6846108615692646E+01 
    1.3717690507882541E+01 
    1.9059871229087921E+01 
    1.4720670722922064E+01 
    1.1280521016316486E+01 
    1.3322626407527991E+01 
    1.4459803316972479E+01 
    1.4296091089690592E+01 
    2.0209254680782788E+01 
    1.1785403900770977E+01 
    1.1587887016956207E+01 
    8.6027241507736534E+00 
    1.9483410985367684E+01 
    1.3372710301928043E+01 
    1.8404699143475604E+01 
    1.3668407364323109E+01 
    9.4010253079952069E+00 
    1.8743749210668383E+01 
    1.3644773970775011E+01 
    1.0270575826778254E+01 
    1.0901416545840014E+01 
    1.1295943658810684E+01 
    1.9104528115082445E+01 
    1.3847000638290767E+01 
    1.9996759421459561E+01 
    1.3604704177469014E+01 
    1.3542047584051810E+01 
    1.3119489329002480E+01 
    1.8864042517110942E+01 
    1.3450107099813597E+01 
    1.1362421120277570E+01 
    2.1180539269939526E+01 
    1.8973357665773641E+01 
    9.5012815786716764E+00 
    3.7857658367710689E+00 
    1.3834395159400485E+01 
    1.2942871777936789E+01 
    1.1934455778099442E+01 
    1.2871963843388643E+01 
    1.8911649863479340E+01 
    1.3474275163511637E+01 
    1.2345672156463424E+01 
    1.8693704840087225E+01 
    9.3921286898454834E+00 
    1.8139277130865679E+01 
    1.2447071989710563E+01 
    1.1169160759266861E+01 
    1.2046603818535537E+01 
    1.9567541983869070E+01 
    1.3681323381749012E+01 
    1.3690528769268385E+01 
    8.3261864849086393E+00 
    9.0022924018369821E+00 
    1.7169325623456420E+01 
    1.3701080621426540E+01 
    1.3882622333019693E+01 
    2.0894664463542988E+01 
    1.1579158405687334E+01 
    1.3714141499993914E+01 
    9.7326462574442392E+00 
    1.0047960797497701E+01 
    1.8813139093215153E+01 
    1.3307751270526643E+01 
    9.9270207657686100E+00 
    1.4283996474578281E+01 
    1.3606719681314699E+01 
    1.8833525969212971E+01 
    2.1006515249647755E+01 
    1.4577371088132500E+00 
    1.3840334267683208E+01 
    1.3957796749539982E+01 
    1.8950753739331724E+01 
    1.3273157039436818E+01 
    1.3651136741013280E+01 
    2.0282396405821448E+01 
    1.2088278118336989E+01 
    1.0014060798943568E+01 
    1.6281016131280118E+01 
    1.8624553848347752E+01 
    2.0113923675155945E+01 
    2.0461482605694844E+01 
    1.3648702339152250E+01 
    1.3829806125631727E+01 
    1.5171723855561227E+01 
    8.9952694995693001E+00 
    1.8823554155697039E+01 
    1.0795706995522826E+01 
    9.3869493869523328E+00 
    1.6907884655166175E+01 
    1.5898217942438968E+01 
    9.1902438254894498E+00 
    1.8677129699410223E+01 
    2.0095829112894183E+01 
    1.4184563309723941E+01 
    2.1131779141325087E+01 
    1.8726585014462877E+01 
    1.3338469748027702E+01 
    1.9674908613108393E+01 
    1.0097440323529042E+01 
    1.8650761987939646E+01 
    1.3838958199819954E+01 
    1.3793474845250953E+01 
    2.1113163256833264E+01 
    1.3420502020330010E+01 
    1.6542536217150030E+01 
    1.2011084669573282E+01 
    2.0253266741235638E+01 
    1.8494107681416452E+01 
    1.2509941134068290E+01 
    1.8593488198569226E+01 
    1.2573102235153254E+01 
    1.3657469336152554E+01 
    2.0041960259834923E+01 
    1.9039511438775985E+01 
    2.0099759376916104E+01 
    1.8952759749563512E+01 
    1.2787302174639221E+01 
    1.3036336865836995E+01 
    2.0109782436637872E+01 
    1.3193077820245286E+01 
    1.8352971004613803E+01 
    1.3396789176400166E+01 
    5.5945675155742665E+00 
    9.4651523992783737E+00 
    8.7726589370943575E+00 
    2.0046412165929567E+01 
    2.1018039023708969E+01 
    1.8616619980642895E+01 
    1.5597785852214129E+01 
    1.9032045536952115E+01 
    1.8690802669904585E+01 
    1.9557890448458391E+01 
    8.0340225145648496E+00 
    5.2047886925828006E+00 
    1.5315693504936785E+01 
    1.3456607084291528E+01 
    1.8922841784168089E+01 
    1.8918385453200493E+01 
    1.3978914234356534E+01 
    1.8976587322277545E+01 
    1.3822866201452030E+01 
    1.3723585083879543E+01 
    7.2551333309531385E+00 
    5.1797560872834598E+00 
    2.0727862197031911E+01 
    1.0728644329516182E+01 
    1.2426389724243586E+01 
    1.3867237089765167E+01 
    2.2603486521443180E+01 
    1.3968711151664062E+01 
    1.4189372301627010E+01 
    5.8905231520981092E+00 
    1.3968526438645483E+01 
    1.3984295277362305E+01 
    1.9272471556396820E+01 
    1.2046570198546160E+01 
    1.3147419690694944E+01 
    2.0943869455915692E+01 
    1.3850388106822056E+01 
    1.8638946092976497E+01 
    1.8954796177328777E+01 
    1.6627528635660436E+01 
    1.1667915290470482E+01 
    1.8948332075913875E+01 
    1.3610612733997637E+01 
    1.8868537606105566E+01 
    1.8538744860801280E+01 
    2.0072327897042154E+01 
    1.8958304338744512E+01 
    1.7547404144284872E+01 
    1.3836592928445706E+01 
    9.1179990957114025E+00 
    2.2465491634343387E+01 
    1.1019695848364210E+01 
    1.9963626118819555E+01 
    1.3833514796207144E+01 
    1.1637080577626088E+01 
    6.8453460829692148E+00 
    1.4025486737741472E+01 
    1.8933525881495594E+01 
    1.8915284671350090E+01 
    1.3635716913718111E+01 
    1.3826606851013029E+01 
    2.1188034337207853E+01 
    2.0386768319789606E+01 
    1.3991345424887056E+01 
    4.8408144253080891E+00 
    1.7428818943746208E+01 
    2.2737424275299425E+01 
    1.3840526270277312E+01 
    1.6090634852103900E+01 
    1.3272389464974562E+01 
    2.2306853201356343E+01 
    2.0495902903849935E+01 
    2.0151382984923405E+01 
    1.4016768292591774E+01 
    6.3855518625816829E+00 
    1.3223649226054084E+01 
    1.3299702270240386E+01 
    1.3345857784651530E+01 
    5.2826640941032741E+00 