# vtk DataFile Version 2.0
Pressure Field Data 
ASCII 
DATASET UNSTRUCTURED_GRID 

POINTS 2860 double 

    0.0000000000000000E+00     0.0000000000000000E+00     0.0000000000000000E+00 
    1.0000000000000000E+00     0.0000000000000000E+00     0.0000000000000000E+00 
    1.0000000000000000E+00     1.0000000000000000E+00     0.0000000000000000E+00 
    0.0000000000000000E+00     1.0000000000000000E+00     0.0000000000000000E+00 
    2.5000000000000000E-01     2.5000000000000000E-01     0.0000000000000000E+00 
    7.5000000000000000E-01     2.5000000000000000E-01     0.0000000000000000E+00 
    7.5000000000000000E-01     7.5000000000000000E-01     0.0000000000000000E+00 
    2.5000000000000000E-01     7.5000000000000000E-01     0.0000000000000000E+00 
    3.1249999999942091E-02     0.0000000000000000E+00     0.0000000000000000E+00 
    6.2499999999873469E-02     0.0000000000000000E+00     0.0000000000000000E+00 
    9.3749999999826514E-02     0.0000000000000000E+00     0.0000000000000000E+00 
    1.2499999999977961E-01     0.0000000000000000E+00     0.0000000000000000E+00 
    1.5624999999968961E-01     0.0000000000000000E+00     0.0000000000000000E+00 
    1.8749999999959971E-01     0.0000000000000000E+00     0.0000000000000000E+00 
    2.1874999999950970E-01     0.0000000000000000E+00     0.0000000000000000E+00 
    2.4999999999941969E-01     0.0000000000000000E+00     0.0000000000000000E+00 
    2.8124999999932920E-01     0.0000000000000000E+00     0.0000000000000000E+00 
    3.1249999999923850E-01     0.0000000000000000E+00     0.0000000000000000E+00 
    3.4374999999914790E-01     0.0000000000000000E+00     0.0000000000000000E+00 
    3.7499999999905720E-01     0.0000000000000000E+00     0.0000000000000000E+00 
    4.0624999999896660E-01     0.0000000000000000E+00     0.0000000000000000E+00 
    4.3749999999887590E-01     0.0000000000000000E+00     0.0000000000000000E+00 
    4.6874999999878530E-01     0.0000000000000000E+00     0.0000000000000000E+00 
    4.9999999999869471E-01     0.0000000000000000E+00     0.0000000000000000E+00 
    5.3124999999877620E-01     0.0000000000000000E+00     0.0000000000000000E+00 
    5.6249999999885780E-01     0.0000000000000000E+00     0.0000000000000000E+00 
    5.9374999999893940E-01     0.0000000000000000E+00     0.0000000000000000E+00 
    6.2499999999902101E-01     0.0000000000000000E+00     0.0000000000000000E+00 
    6.5624999999910261E-01     0.0000000000000000E+00     0.0000000000000000E+00 
    6.8749999999918421E-01     0.0000000000000000E+00     0.0000000000000000E+00 
    7.1874999999926570E-01     0.0000000000000000E+00     0.0000000000000000E+00 
    7.4999999999934730E-01     0.0000000000000000E+00     0.0000000000000000E+00 
    7.8124999999942890E-01     0.0000000000000000E+00     0.0000000000000000E+00 
    8.1249999999951039E-01     0.0000000000000000E+00     0.0000000000000000E+00 
    8.4374999999959199E-01     0.0000000000000000E+00     0.0000000000000000E+00 
    8.7499999999967359E-01     0.0000000000000000E+00     0.0000000000000000E+00 
    9.0624999999975520E-01     0.0000000000000000E+00     0.0000000000000000E+00 
    9.3749999999983680E-01     0.0000000000000000E+00     0.0000000000000000E+00 
    9.6874999999991840E-01     0.0000000000000000E+00     0.0000000000000000E+00 
    1.0000000000000000E+00     3.1249999999942091E-02     0.0000000000000000E+00 
    1.0000000000000000E+00     6.2499999999873469E-02     0.0000000000000000E+00 
    1.0000000000000000E+00     9.3749999999826514E-02     0.0000000000000000E+00 
    1.0000000000000000E+00     1.2499999999977961E-01     0.0000000000000000E+00 
    1.0000000000000000E+00     1.5624999999968961E-01     0.0000000000000000E+00 
    1.0000000000000000E+00     1.8749999999959971E-01     0.0000000000000000E+00 
    1.0000000000000000E+00     2.1874999999950970E-01     0.0000000000000000E+00 
    1.0000000000000000E+00     2.4999999999941969E-01     0.0000000000000000E+00 
    1.0000000000000000E+00     2.8124999999932920E-01     0.0000000000000000E+00 
    1.0000000000000000E+00     3.1249999999923850E-01     0.0000000000000000E+00 
    1.0000000000000000E+00     3.4374999999914790E-01     0.0000000000000000E+00 
    1.0000000000000000E+00     3.7499999999905720E-01     0.0000000000000000E+00 
    1.0000000000000000E+00     4.0624999999896660E-01     0.0000000000000000E+00 
    1.0000000000000000E+00     4.3749999999887590E-01     0.0000000000000000E+00 
    1.0000000000000000E+00     4.6874999999878530E-01     0.0000000000000000E+00 
    1.0000000000000000E+00     4.9999999999869471E-01     0.0000000000000000E+00 
    1.0000000000000000E+00     5.3124999999877620E-01     0.0000000000000000E+00 
    1.0000000000000000E+00     5.6249999999885780E-01     0.0000000000000000E+00 
    1.0000000000000000E+00     5.9374999999893940E-01     0.0000000000000000E+00 
    1.0000000000000000E+00     6.2499999999902101E-01     0.0000000000000000E+00 
    1.0000000000000000E+00     6.5624999999910261E-01     0.0000000000000000E+00 
    1.0000000000000000E+00     6.8749999999918421E-01     0.0000000000000000E+00 
    1.0000000000000000E+00     7.1874999999926570E-01     0.0000000000000000E+00 
    1.0000000000000000E+00     7.4999999999934730E-01     0.0000000000000000E+00 
    1.0000000000000000E+00     7.8124999999942890E-01     0.0000000000000000E+00 
    1.0000000000000000E+00     8.1249999999951039E-01     0.0000000000000000E+00 
    1.0000000000000000E+00     8.4374999999959199E-01     0.0000000000000000E+00 
    1.0000000000000000E+00     8.7499999999967359E-01     0.0000000000000000E+00 
    1.0000000000000000E+00     9.0624999999975520E-01     0.0000000000000000E+00 
    1.0000000000000000E+00     9.3749999999983680E-01     0.0000000000000000E+00 
    1.0000000000000000E+00     9.6874999999991840E-01     0.0000000000000000E+00 
    9.6875000000003686E-01     1.0000000000000000E+00     0.0000000000000000E+00 
    9.3750000000011691E-01     1.0000000000000000E+00     0.0000000000000000E+00 
    9.0625000000015765E-01     1.0000000000000000E+00     0.0000000000000000E+00 
    8.7500000000017863E-01     1.0000000000000000E+00     0.0000000000000000E+00 
    8.4375000000028044E-01     1.0000000000000000E+00     0.0000000000000000E+00 
    8.1250000000040856E-01     1.0000000000000000E+00     0.0000000000000000E+00 
    7.8125000000054956E-01     1.0000000000000000E+00     0.0000000000000000E+00 
    7.5000000000066480E-01     1.0000000000000000E+00     0.0000000000000000E+00 
    7.1875000000086831E-01     1.0000000000000000E+00     0.0000000000000000E+00 
    6.8750000000102829E-01     1.0000000000000000E+00     0.0000000000000000E+00 
    6.5625000000114431E-01     1.0000000000000000E+00     0.0000000000000000E+00 
    6.2500000000129829E-01     1.0000000000000000E+00     0.0000000000000000E+00 
    5.9375000000147926E-01     1.0000000000000000E+00     0.0000000000000000E+00 
    5.6250000000168354E-01     1.0000000000000000E+00     0.0000000000000000E+00 
    5.3125000000188671E-01     1.0000000000000000E+00     0.0000000000000000E+00 
    5.0000000000205835E-01     1.0000000000000000E+00     0.0000000000000000E+00 
    4.6875000000192979E-01     1.0000000000000000E+00     0.0000000000000000E+00 
    4.3750000000180111E-01     1.0000000000000000E+00     0.0000000000000000E+00 
    4.0625000000167238E-01     1.0000000000000000E+00     0.0000000000000000E+00 
    3.7500000000154382E-01     1.0000000000000000E+00     0.0000000000000000E+00 
    3.4375000000141509E-01     1.0000000000000000E+00     0.0000000000000000E+00 
    3.1250000000128642E-01     1.0000000000000000E+00     0.0000000000000000E+00 
    2.8125000000115769E-01     1.0000000000000000E+00     0.0000000000000000E+00 
    2.5000000000102918E-01     1.0000000000000000E+00     0.0000000000000000E+00 
    2.1875000000090050E-01     1.0000000000000000E+00     0.0000000000000000E+00 
    1.8750000000077180E-01     1.0000000000000000E+00     0.0000000000000000E+00 
    1.5625000000064329E-01     1.0000000000000000E+00     0.0000000000000000E+00 
    1.2500000000051459E-01     1.0000000000000000E+00     0.0000000000000000E+00 
    9.3750000000385914E-02     1.0000000000000000E+00     0.0000000000000000E+00 
    6.2500000000257239E-02     1.0000000000000000E+00     0.0000000000000000E+00 
    3.1250000000128557E-02     1.0000000000000000E+00     0.0000000000000000E+00 
    0.0000000000000000E+00     9.6875000000003686E-01     0.0000000000000000E+00 
    0.0000000000000000E+00     9.3750000000011691E-01     0.0000000000000000E+00 
    0.0000000000000000E+00     9.0625000000015765E-01     0.0000000000000000E+00 
    0.0000000000000000E+00     8.7500000000017863E-01     0.0000000000000000E+00 
    0.0000000000000000E+00     8.4375000000028044E-01     0.0000000000000000E+00 
    0.0000000000000000E+00     8.1250000000040856E-01     0.0000000000000000E+00 
    0.0000000000000000E+00     7.8125000000054956E-01     0.0000000000000000E+00 
    0.0000000000000000E+00     7.5000000000066480E-01     0.0000000000000000E+00 
    0.0000000000000000E+00     7.1875000000086831E-01     0.0000000000000000E+00 
    0.0000000000000000E+00     6.8750000000102829E-01     0.0000000000000000E+00 
    0.0000000000000000E+00     6.5625000000114431E-01     0.0000000000000000E+00 
    0.0000000000000000E+00     6.2500000000129829E-01     0.0000000000000000E+00 
    0.0000000000000000E+00     5.9375000000147926E-01     0.0000000000000000E+00 
    0.0000000000000000E+00     5.6250000000168354E-01     0.0000000000000000E+00 
    0.0000000000000000E+00     5.3125000000188671E-01     0.0000000000000000E+00 
    0.0000000000000000E+00     5.0000000000205835E-01     0.0000000000000000E+00 
    0.0000000000000000E+00     4.6875000000192979E-01     0.0000000000000000E+00 
    0.0000000000000000E+00     4.3750000000180111E-01     0.0000000000000000E+00 
    0.0000000000000000E+00     4.0625000000167238E-01     0.0000000000000000E+00 
[...]
CELL_DATA 2795 
SCALARS Pressure double 1 
LOOKUP_TABLE default 

    6.3991079745712023E+00 
    1.3952709540835068E+01 
    9.8632614454629977E+00 
    9.5255495549322085E+00 
    7.7319162778098427E+00 
    1.3821007953178508E+01 
    1.4524276159462048E+01 
    5.7641858509524608E+00 
    1.0429749852055538E+01 
    7.9514845193363080E+00 
    6.7831619333206774E+00 
    1.3575973165804422E+01 
    1.3877799701410735E+01 
    1.3791901342196338E+01 
    9.0768020836652159E+00 
    5.6723951811556157E+00 
    8.8355975645722467E+00 
    7.2190242468962911E+00 
    1.3228702731905893E+01 
    9.8514728443548840E+00 
    9.7439893761974830E+00 
    1.3728550623587395E+01 
    9.2833180634839518E+00 
    3.8260805077160487E-01 
    1.3589524170493254E+01 
    1.3833677819831243E+01 
    1.4555069394142313E+01 
    6.5326310088054038E+00 
    1.3499796371544832E+01 
    1.4542259442329954E+01 
    9.9496896328524311E+00 
    1.0072860366058377E+01 
    7.0285849209072353E+00 
    9.8248225628957790E+00 
    3.3091039199177339E+00 
    8.8367080257679778E+00 
    9.8134840890084440E+00 
    1.4580255304858827E+01 
    1.4502481674416051E+01 
    1.3588593608447958E+01 
    7.6837193961062642E+00 
    1.3555165936009999E+01 
    8.0241436655922382E-01 
    9.7547968093990001E+00 
    1.4358187861274526E+01 
    1.4161332166594590E+01 
    1.3565664389366781E+01 
    1.0761919452906403E+01 
    1.3633719358977963E+01 
    9.0252447804313327E+00 
    8.6312225618379941E+00 
    1.0037785035263909E+01 
    9.6514771010923610E+00 
    8.8881410500622007E+00 
    1.0017547548022879E+01 
    1.3027945573817558E+01 
    1.1701670850771146E+01 
    7.7708031070508028E+00 
    1.3732986878297218E+01 
    1.3660082726622997E+01 
    9.5333220965394627E+00 
    9.4806971675632123E+00 
    9.4372357366156532E+00 
    1.4448863750656088E+01 
    1.4724475442071073E+01 
    8.8486032520961988E+00 
    1.0036926834519047E+01 
    1.3478525259015857E+01 
    1.1543031819418866E+01 
    9.5189532938184058E+00 
    1.4708537778303350E+01 
    1.3691374095395787E+01 
    8.7322269502061971E+00 
    1.4262580739616746E+01 
    1.0238157197996271E+01 
    1.3441336213495100E+01 
    1.4598690172957161E+01 
    1.0264906860068491E+01 
    6.5381699298054894E+00 
    1.0055590024839343E+01 
    1.4510596431642838E+01 
    1.4730069346877938E+01 
    8.8570777178552031E+00 
    9.9716736626854132E+00 
    1.4775696302088560E+01 
    9.8157292261889015E+00 
    9.3613761108332074E+00 
    1.1947101289057121E+01 
    6.2551569717568922E+00 
    8.6558806060724667E+00 
    9.9709664000123546E+00 
    1.0578986783061351E+01 
    1.6182270730827444E+01 
    7.5293597932592098E+00 
    1.0045099201115391E+01 
    1.3544742815446973E+01 
    1.3829456184820739E+01 
    6.6979999113029693E+00 
    9.6847148599602679E+00 
    1.0002167990103056E+01 
    1.3849320339069331E+01 
    1.0002020986334403E+01 
    1.3782335835218333E+01 
    4.1431383200202205E+00 
    6.5919348964088336E+00 
    1.0273036984272723E+01 
    1.3959684982921393E+01 
    8.8046808866362820E+00 
    9.3348113264240382E+00 
    9.9860645309165808E+00 
    9.3348493099097656E+00 
    1.1326249662235705E+01 
    9.0978309933860224E+00 
    8.7378665421870352E+00 
    7.0447527723583878E+00 
    1.1709243368948018E+01 
    1.0074751416164290E+01 
    1.4367049471012711E+01 
    8.6388934180275943E+00 
    9.5107858756976729E+00 
    1.3675524810867312E+01 
    8.0733690160264153E+00 
    1.4117122523193938E+01 
    9.8938343419950971E+00 
    9.4465680640885434E+00 
    1.3830915554156102E+01 
    1.0067967913661809E+01 
    1.4605144139622556E+01 
    1.1961445450486721E+01 
    1.2879884975728785E+01 
    1.4571338637298117E+01 
    7.5430886775620829E+00 
    1.0298826887463267E+01 
    1.3821999527441850E+01 
    3.1024896762000749E+00 
    9.9969041469426010E+00 
    1.4538965033180638E+01 
    9.4741629927499478E+00 
    1.0890662057943265E+01 
    6.6719026871951241E+00 
    1.3543253511263956E+01 
    1.6651742182518408E+01 
    1.2412303653818636E+01 
    9.4717974215443146E+00 
    8.5615674430644706E+00 
    1.0620706410363894E+01 
    9.9110973038693881E+00 
    6.8499646844924635E+00 
    1.4565481341614566E+01 
    1.3880880579518841E+01 
    1.3546419499134688E+01 
    1.0571389645093314E+01 
    8.7109652771191328E+00 
    9.7419136247341402E+00 
    1.4287004077070614E+01 
    8.9251948247058994E+00 
    9.9153741774699906E+00 
    9.0711285736453728E+00 
    1.1464809470879432E+01 
    1.6640338306064297E+01 
    1.3538140240077656E+01 
    8.6897870602309180E+00 
    1.4017194492446503E+01 
    1.3920568919533133E+01 
    1.3997770979406276E+01 
    1.4965928095795064E+01 
    1.5487938697926637E+01 
    1.4161992377647259E+01 
    1.0028595570844008E+01 
    1.0769541560443887E+01 
    1.3997029281540630E+01 
    1.4380569526908356E+01 
    7.1244792303745275E+00 
    1.3565173909997858E+01 
    1.4250434804999289E+01 
    6.9591561909039132E+00 
    1.4885639491428332E+01 
    1.4868084652530953E+01 
    1.3294839575837386E+01 
    1.0364801034901056E+01 
    2.6921225197225649E+00 
    1.4537970583180584E+01 
    1.0210678940817843E+01 
    1.4662329735946569E+01 
    9.4133464940480511E+00 
    1.4383296487191126E+01 
    9.8802744583940250E-01 
    1.2892276903059015E+01 
    9.5237788641395138E+00 
    8.6730255307594906E+00 
    8.4699668963588497E+00 
    9.8629104227616793E+00 
    1.0981462021329323E+01 
    1.0288535015128845E+01 
    7.1377492408761292E+00 
    1.4372451648970452E+01 
    1.3843123740496679E+01 
    1.1663905632442660E+01 
    1.0268922754114174E+01 
    1.5835095743325163E+00 
    7.8654551562491539E+00 
    5.6223819464512834E+00 
    1.4554455660170513E+01 
    1.1065836107695491E+01 
    1.3897062349725052E+01 
    1.3909300540600208E+01 
    9.0038219588061210E+00 
    1.1584193098748276E+01 
    1.3541566250868591E+01 
    1.4854932798264217E+01 
    6.6411459523910077E+00 
    1.2253564883192569E+01 
    1.0316996673574701E+01 
    5.9747996936720984E+00 
    8.9896090170181484E+00 
    1.2172686714383751E+01 
    1.3870861233268743E+01 
    9.9181491822032903E+00 
    1.3977472113596665E+01 
    1.3751079482783982E+01 
    1.3700862687588669E+01 
    9.7479217370091309E+00 
    8.6063715310856441E+00 
    1.3554336337231801E+01 
    8.7283386383307580E+00 
    1.0006910678793339E+01 
    8.5741923204569037E+00 
    9.8590818614241122E+00 
    1.3919371093371902E+01 
    6.2195366768206748E+00 
    8.9106387932080295E+00 
    1.4473754944052645E+01 
    9.7604539354720679E+00 
    1.0968793186355221E+01 
    6.3842809376930090E+00 
    8.7808157899368311E+00 
    1.3730436324125526E+01 
    1.4031123794947515E+01 
    5.2273845253820479E+00 
    9.7662329968587454E+00 
    8.6184323483231999E+00 
    1.5262875773830318E+01 
    1.4740414938506451E+01 
    1.5513560317282705E+01 
    9.7870192990198053E+00 
    1.3891219158180380E+01 
    1.3499509373624589E+01 
    9.6587785592400053E+00 
    1.3546624381034864E+01 
    1.0269652967634970E+01 
    6.0499765130952783E+00 
    1.0036991783612990E+01 
    1.4460615051489075E+01 
    1.3543524149129830E+01 
    6.7466844016844378E+00 
    1.3571874180217801E+01 
    1.0997765099832465E+01 
    9.9793899721944275E+00 
    9.5451847642745840E+00 
    1.3415571722539095E+01 
    1.0467555968002880E+01 
    1.3559282822378533E+01 
    9.6924968418603363E+00 
    6.2304643280762306E+00 
    1.0078917120343716E+01 
    8.4767939144031104E+00 
    1.2418891103452445E+01 
    1.4653330831397350E+01 
    1.3552745171455069E+01 
    1.4532171848246744E+01 
    9.7077572597151924E+00 
    6.5871116264459548E+00 
    6.6723205717617216E+00 
    1.0153681903576596E+01 
    9.9828020316930051E+00 
    1.5114759627576253E+00 
    1.3072778451176875E+01 
    1.5003046845225590E+01 
    9.4240195262016222E+00 
    6.2722827596697215E+00 
    1.1415361353052498E+01 
    1.3570465735803014E+01 
    7.3162004401631684E+00 
    5.0488054318092077E+00 
    9.9593301944445720E+00 
    1.3649828471158882E+01 
    1.4282262222041076E+01 
    1.4179051057586859E+01 
    1.4032905053180354E+01 
    7.1739756892503914E+00 
    9.9719097553703708E+00 
    1.3113736603829121E+01 
    7.8074325284699393E+00 
    1.3864700531635632E+01 
    1.1821635555307987E+01 
    6.7623665807786519E+00 
    1.3675014539478074E+01 
    1.4559678929766235E+01 
    1.3705739385229807E+01 
    7.0664040423238719E+00 
    1.0033106082500074E+01 
    7.7098060274359419E+00 
    9.4648606233256132E+00 
    1.3562260147655179E+01 
    1.3550954448295977E+01 
    7.1050446084666090E+00 
    1.4418633475437643E+01 
    1.0572633313010101E+01 
    1.3583741345363446E+01 
    1.4398430574314045E+01 
    1.3571331508852145E+01 
    1.2646687130170733E+01 
    1.5314449692707262E+01 
    9.3879865664521596E+00 
    1.4502460627249160E+01 
    1.3610507183161596E+01 
    1.4572855967069371E+01 
    1.4411257430239736E+01 
    9.4773941303174585E+00 
    9.8547391301874079E+00 
    9.4149955067517030E+00 
    1.2168207693373844E+01 
    4.1499767424324947E+00 
    1.0093389417510643E+01 
    1.5436047239597965E+01 
    1.0268568195420382E+01 
    1.0451796433247942E+01 
    1.4546409816877743E+01 
    1.4774489070961803E+01 
    9.3346118158649851E+00 
    1.3576040573002736E+01 
    1.3547572524909999E+01 
    1.0439693340556229E+01 
    1.4366866225845770E+01 
    7.1025177382158935E+00 
    4.5671391161639932E+00 
    1.0714017394942781E+01 
    1.0283494097116611E+01 
    1.3552704449381190E+01 
    6.6816050878667008E+00 
    1.4096411991198522E+01 
    4.6673338596754776E+00 
    1.0215824696342548E+01 
    9.5226685817225771E+00 
    1.0009540477599224E+01 
    1.6689428987001012E+01 
    4.0376105328328995E+00 
    1.0014036180000772E+01 
    1.1908865466483149E+01 
    9.6113885242885129E+00 
    7.7960639639639533E+00 
    1.4203172165480177E+01 
    1.6271692385886784E+01 
    1.4354227353149264E+01 
    9.9581444801076611E+00 
    5.9387941919919713E+00 
    1.6123863216227065E+01 
    1.3835506212488804E+01 
    7.4425591760857177E+00 
    9.6059691792217805E+00 
    1.4949119316155270E+01 
    3.4276276147056541E+00 
    1.0332004970998858E+01 
    1.4336027601349240E+01 
    1.0022951634014985E+01 
    8.7226957492609607E+00 
    1.0052202095470447E+01 
    1.3336342419936379E+01 
    1.0003881684142298E+01 
    5.3154262058679151E+00 
    9.7558319204402355E-01 
    7.4536417885528996E+00 
    1.5159557168814423E+01 
    9.4131459586257229E+00 
    1.1245530945936933E+01 
    1.0762329833885060E+01 
    1.2458077017421646E+01 
    1.0036535024341665E+01 
    1.3747772346072576E+01 
    1.6703199046274680E+01 
    1.1860299378966833E+01 
    1.4475392525753929E+01 
    5.7109987550750863E-01 
    1.3552822557181045E+01 
    5.8486494602179837E+00 
    1.5598796818187067E+01 
    1.0027106773200824E+01 
    8.8651031563946248E+00 
    7.8498174698908176E+00 
    5.5360747951616078E+00 
    1.1199788272480951E+01 
    7.8926022175234634E+00 
    1.2316812675382405E+01 
    2.2733352010561170E+00 
    1.1031681699085391E+01 
    1.3487346575039487E+01 
    6.0569043898853510E+00 
    1.4031709933990877E+01 
    1.5418341447054686E+01 
    1.3864238657267510E+01 
    9.9011441475362592E+00 
    1.0004282408876072E+01 
    1.0020108206986176E+01 
    6.0035555130777594E+00 
    9.1682978889576265E+00 
    9.0287234122740951E+00 
    1.0009617101952809E+01 
    9.3550241032667625E+00 
    7.3341503065072344E-01 
    6.6487953373855913E+00 
    9.7181621485767078E+00 
    9.9861547738825767E+00 
    1.2650620841404230E+01 
    2.2496809646371903E+00 
    1.0400412970571905E+01 
    1.0287778273964634E+01 
    3.8799933132797202E+00 
    1.3733937510507261E+01 
    8.7443911739354956E+00 
    1.0142551555782875E+01 
    1.3837273649653557E+01 
    5.5842080759111763E+00 
    1.3851989453902556E+01 
    8.8444392657317685E+00 
    1.0300868949938431E+00 
    9.4701997893602101E+00 
    1.4430124259920188E+01 
    1.3553036046638152E+01 
    1.3572024447456377E+01 
    1.0350707754837277E+01 
    1.0220386711630356E+01 
    8.7250732923832341E+00 
    7.1684023705348281E+00 
    1.3953537722396947E+01 
    9.6037026232429721E+00 
    6.9551921036226139E+00 
    1.3566934959755864E+01 
    1.4247881404467337E+01 
    1.0175077377041543E+01 
    9.8080368750431912E+00 
    1.6587386624611749E+01 
    1.0440546463443086E+01 
    1.3959573493812680E+01 
    8.3310952263307829E+00 
    1.6731156293064785E+01 
    6.6321550949192343E+00 
    9.1002587866278244E+00 
    7.3985124792925108E+00 
    1.0664960210145672E+01 
    8.4946019453937271E+00 
    1.6715133746084337E+01 
    1.0487216107425416E+01 
    1.3272344233777003E+01 
    6.8177662962586183E+00 
    1.0032806200410581E+01 
    1.3800758679547830E+01 
    8.5103340931518421E+00 
    7.4361772370765342E+00 
    1.1084072801118896E+01 
    1.4017908781203001E+01 
    7.3067808026553704E+00 
    9.5411599270909626E+00 
    9.8384394735314853E+00 
    1.3529231672740558E+01 
    9.6369830427668841E+00 
    1.3995175793552523E+01 
    1.4601047439793129E+01 
    8.7496208112639877E+00 
    8.5931892703775326E+00 
    7.9255669514209508E+00 
    1.3671199029170898E+01 
    1.0302023500383063E+01 
    1.6307518571690153E+01 
    1.2817245213592937E+01 
    1.3763151752012053E+01 
    1.6001971844948351E+01 
    1.5420855698515853E+01 
    1.0080482992214616E+01 
    9.9953807039954405E+00 
    1.3321633049460695E+01 
    1.3589330496497952E+01 
    1.4129902383507259E+01 
    1.3858033401254191E+01 
    1.6607192740587742E+01 
    1.0440094321680371E+01 
    8.8428806709415628E+00 
    1.0447461449836023E+01 
    1.4516472298815572E+01 
    1.0184173922435178E+01 
    5.9743745019870307E+00 
    9.8861246375974012E+00 
    1.4923134782628578E+01 
    1.0322824955206086E+01 
    8.8474141091650136E+00 
    9.7784970471103918E+00 
    1.5026470025954437E+01 
    1.3606456747940197E+01 
    8.4557957020445649E+00 
    1.5159977671133319E+01 
    1.0110614545420304E+01 
    1.4098341277568728E+01 
    1.5040089019861522E+01 
    1.0597092822332069E+01 
    5.5979443398655393E+00 
    1.1044039408813196E+01 
    5.7791515237700297E+00 
    1.0238848961976061E+01 
    1.0024801069609397E+01 
    1.1620277570150813E+01 
    6.0835103372192947E+00 
    1.2325594229552829E+01 
    1.0045091992318209E+01 
    1.3846922380714153E+01 
    1.0607310278744656E+01 
    8.2826407374892366E+00 
    9.6521976368623275E+00 
    1.0499266427467978E+01 
    1.0541546167577138E+01 
    1.4658527559320293E+01 
    8.4870389430815383E+00 
    8.3512835189510710E+00 
    6.3717646105424643E+00 
    1.4148242891366861E+01 
    9.6938700981418222E+00 
    1.3411230162575603E+01 
    9.9948471715250697E+00 
    6.9216356137133355E+00 
    1.3640611461154494E+01 
    9.9698771976164462E+00 
    7.4972096426448340E+00 
    7.9062212693292828E+00 
    8.1628125127147140E+00 
    1.3880762788301839E+01 
    1.0011497761138564E+01 
    1.4486341578890068E+01 
    9.9279020506582931E+00 
    9.8649929872157465E+00 
    9.4647430467349150E+00 
    1.3721017843722494E+01 
    9.7807469398591174E+00 
    8.2012138642566565E+00 
    1.5407746360155832E+01 
    1.3801534869955603E+01 
    6.9413405386671103E+00 
    2.8448513792217640E+00 
    1.0001362598379774E+01 
    9.3799671394236377E+00 
    8.5899884777087738E+00 
    9.2831132843883761E+00 
    1.3749239234220303E+01 
    9.7292378593984861E+00 
    8.8908659897161115E+00 
    1.3610957687374214E+01 
    6.8826850958079735E+00 
    1.3284170342513518E+01 
    9.0578940581266671E+00 
    8.1649902690247895E+00 
    8.6629761615283307E+00 
    1.4180848568932333E+01 
    1.0012544431813739E+01 
    1.0020663643465172E+01 
    6.1628493546329741E+00 
    6.6195050955490533E+00 
    1.2658878240278771E+01 
    1.0030539396743020E+01 
    1.0039549966696621E+01 
    1.5144322558062489E+01 
    8.3482385020494725E+00 
    1.0042952032149019E+01 
    7.1189730777340339E+00 
    7.3469398428437742E+00 
    1.3719732520828666E+01 
    9.6674893667020232E+00 
    7.2417950092244423E+00 
    1.0583860978512071E+01 
    9.9145971530449142E+00 
    1.3720859426885488E+01 
    1.5234287936352700E+01 
    1.0962534741769596E+00 
    1.0005982390948594E+01 
    1.0281498907117443E+01 
    1.3779793431056490E+01 
    9.5361375915898865E+00 
    9.9862049792096190E+00 
    1.4720042254807485E+01 
    8.6921207016114845E+00 
    7.3011791065573952E+00 
    1.2061278160644786E+01 
    1.3566387214563640E+01 
    1.4572838747429861E+01 
    1.4827074989910466E+01 
    9.8578176224710177E+00 
    9.9981932014237600E+00 
    1.1266422575412891E+01 
    6.6083368878747617E+00 
    1.3689478205172568E+01 
    7.8231397955078021E+00 
    6.8718206974281397E+00 
    1.2535555092113293E+01 
    1.1814454119812044E+01 
    6.7421342173270418E+00 
    1.3601853840864967E+01 
    1.4558446678445240E+01 
    1.0455441256949511E+01 
    1.5332394498696129E+01 
    1.3634232652896348E+01 
    9.6047419220682269E+00 
    1.4300923173713862E+01 
    7.3465757218404910E+00 
    1.3583970257075727E+01 
    1.0005085496053075E+01 
    9.9676725151815262E+00 
    1.5308794980416641E+01 
    9.7279654278968799E+00 
    1.2272937935532987E+01 
    8.6447490173790502E+00 
    1.4672460175285160E+01 
    1.3493654208559038E+01 
    8.9885184519271295E+00 
    1.3543011936231119E+01 
    9.0509966726691484E+00 
    9.9956806441486457E+00 
    1.4518739966909640E+01 
    1.3860205608534633E+01 
    1.4561726144722080E+01 
    1.3783925567738040E+01 
    9.1782610186419937E+00 
    9.3825528527546371E+00 
    1.4568113292279065E+01 
    9.4968631981304927E+00 
    1.3424982711998176E+01 
    9.7162339298841616E+00 
    4.1925652170404186E+00 
    6.9384091229527405E+00 
    6.4364434811273572E+00 
    1.4521977933299507E+01 
    1.5239978171202221E+01 
    1.3560680627601956E+01 
    1.1538850540078355E+01 
    1.3845414269859493E+01 
    1.3607963536882743E+01 
    1.4178260544996709E+01 
    5.9658140327829097E+00 
    3.9054806356852945E+00 
    1.1333016355581972E+01 
    9.6843305649959621E+00 
    1.3750971920011981E+01 
    1.3748647703236621E+01 
    1.0305261363387684E+01 
    1.3784603220138106E+01 
    9.9928854175342376E+00 
    9.9019156767112690E+00 
    5.4024338378578562E+00 
    3.8880249900386401E+00 
    1.5021912728613042E+01 
    7.8032314335049557E+00 
    8.9252667834182180E+00 
    1.0194777999405781E+01 
    1.6588513488934311E+01 
    1.0290748589068274E+01 
    1.0280878456756009E+01 
    4.4077769384927183E+00 
    1.0292329841239182E+01 
    1.0306696788673518E+01 
    1.4069314440116470E+01 
    8.6695459995372559E+00 
    9.5705838974568973E+00 
    1.5186271179676098E+01 
    1.0013809584238043E+01 
    1.3576327992561250E+01 
    1.3827502850546900E+01 
    1.2287384113165132E+01 
    8.4863338755719759E+00 
    1.3784680063379360E+01 
    9.8172063271514673E+00 
    1.3750394188655928E+01 
    1.3515999964511568E+01 
    1.4540934856510628E+01 
    1.3778824978188977E+01 
    1.2931096674874503E+01 
    1.0003314600515326E+01 
    6.6879290331275660E+00 
    1.6465392457096392E+01 
    7.9743966625044775E+00 
    1.4464626138581449E+01 
    1.0000848339469359E+01 
    8.3974847108156379E+00 
    5.0885685428337579E+00 
    1.0343807525485385E+01 
    1.3770116990398790E+01 
    1.3769442552152515E+01 
    9.9763419541167693E+00 
    9.9952954117132222E+00 
    1.5388612667466589E+01 
    1.4771803967352403E+01 
    1.0308889519275459E+01 
    3.6360906570916103E+00 
    1.2890140866778072E+01 
    1.6713232048815975E+01 
    1.0006474892911982E+01 
    1.1900984451067114E+01 
    9.5336827933479302E+00 
    1.6327533018079606E+01 
    1.4850777360647291E+01 
    1.4616133025235401E+01 
    1.0330198829895544E+01 
    4.7520401880441083E+00 
    9.4952104510111077E+00 
    9.5568047775596217E+00 
    9.5989145457557328E+00 
    3.9542152268143020E+00 