# vtk DataFile Version 2.0
Pressure Field Data 
ASCII 
DATASET UNSTRUCTURED_GRID 

POINTS 2860 double 

    0.0000000000000000E+00     0.0000000000000000E+00     0.0000000000000000E+00 
    1.0000000000000000E+00     0.0000000000000000E+00     0.0000000000000000E+00 
    1.0000000000000000E+00     1.0000000000000000E+00     0.0000000000000000E+00 
    0.0000000000000000E+00     1.0000000000000000E+00     0.0000000000000000E+00 
    2.5000000000000000E-01     2.5000000000000000E-01     0.0000000000000000E+00 
    7.5000000000000000E-01     2.5000000000000000E-01     0.0000000000000000E+00 
    7.5000000000000000E-01     7.5000000000000000E-01     0.0000000000000000E+00 
    2.5000000000000000E-01     7.5000000000000000E-01     0.0000000000000000E+00 
    3.1249999999942091E-02     0.0000000000000000E+00     0.0000000000000000E+00 
    6.2499999999873469E-02     0.0000000000000000E+00     0.0000000000000000E+00 
    9.3749999999826514E-02     0.0000000000000000E+00     0.0000000000000000E+00 
    1.2499999999977961E-01     0.0000000000000000E+00     0.0000000000000000E+00 
    1.5624999999968961E-01     0.0000000000000000E+00     0.0000000000000000E+00 
    1.8749999999959971E-01     0.0000000000000000E+00     0.0000000000000000E+00 
    2.1874999999950970E-01     0.0000000000000000E+00     0.0000000000000000E+00 
    2.4999999999941969E-01     0.0000000000000000E+00     0.0000000000000000E+00 
    2.8124999999932920E-01     0.0000000000000000E+00     0.0000000000000000E+00 
    3.1249999999923850E-01     0.0000000000000000E+00     0.0000000000000000E+00 
    3.4374999999914790E-01     0.0000000000000000E+00     0.0000000000000000E+00 
    3.7499999999905720E-01     0.0000000000000000E+00     0.0000000000000000E+00 
    4.0624999999896660E-01     0.0000000000000000E+00     0.0000000000000000E+00 
    4.3749999999887590E-01     0.0000000000000000E+00     0.0000000000000000E+00 
    4.6874999999878530E-01     0.0000000000000000E+00     0.0000000000000000E+00 
    4.9999999999869471E-01     0.0000000000000000E+00     0.0000000000000000E+00 
    5.3124999999877620E-01     0.0000000000000000E+00     0.0000000000000000E+00 
    5.6249999999885780E-01     0.0000000000000000E+00     0.0000000000000000E+00 
    5.9374999999893940E-01     0.0000000000000000E+00     0.0000000000000000E+00 
    6.2499999999902101E-01     0.0000000000000000E+00     0.0000000000000000E+00 
    6.5624999999910261E-01     0.0000000000000000E+00     0.0000000000000000E+00 
    6.8749999999918421E-01     0.0000000000000000E+00     0.0000000000000000E+00 
    7.1874999999926570E-01     0.0000000000000000E+00     0.0000000000000000E+00 
    7.4999999999934730E-01     0.0000000000000000E+00     0.0000000000000000E+00 
    7.8124999999942890E-01     0.0000000000000000E+00     0.0000000000000000E+00 
    8.1249999999951039E-01     0.0000000000000000E+00     0.0000000000000000E+00 
    8.4374999999959199E-01     0.0000000000000000E+00     0.0000000000000000E+00 
    8.7499999999967359E-01     0.0000000000000000E+00     0.0000000000000000E+00 
    9.0624999999975520E-01     0.0000000000000000E+00     0.0000000000000000E+00 
    9.3749999999983680E-01     0.0000000000000000E+00     0.0000000000000000E+00 
    9.6874999999991840E-01     0.0000000000000000E+00     0.0000000000000000E+00 
    1.0000000000000000E+00     3.1249999999942091E-02     0.0000000000000000E+00 
    1.0000000000000000E+00     6.2499999999873469E-02     0.0000000000000000E+00 
    1.0000000000000000E+00     9.3749999999826514E-02     0.0000000000000000E+00 
    1.0000000000000000E+00     1.2499999999977961E-01     0.0000000000000000E+00 
    1.0000000000000000E+00     1.5624999999968961E-01     0.0000000000000000E+00 
    1.0000000000000000E+00     1.8749999999959971E-01     0.0000000000000000E+00 
    1.0000000000000000E+00     2.1874999999950970E-01     0.0000000000000000E+00 
    1.0000000000000000E+00     2.4999999999941969E-01     0.0000000000000000E+00 
    1.0000000000000000E+00     2.8124999999932920E-01     0.0000000000000000E+00 
    1.0000000000000000E+00     3.1249999999923850E-01     0.0000000000000000E+00 
    1.0000000000000000E+00     3.4374999999914790E-01     0.0000000000000000E+00 
    1.0000000000000000E+00     3.7499999999905720E-01     0.0000000000000000E+00 
    1.0000000000000000E+00     4.0624999999896660E-01     0.0000000000000000E+00 
    1.0000000000000000E+00     4.3749999999887590E-01     0.0000000000000000E+00 
    1.0000000000000000E+00     4.6874999999878530E-01     0.0000000000000000E+00 
    1.0000000000000000E+00     4.9999999999869471E-01     0.0000000000000000E+00 
    1.0000000000000000E+00     5.3124999999877620E-01     0.0000000000000000E+00 
    1.0000000000000000E+00     5.6249999999885780E-01     0.0000000000000000E+00 
    1.0000000000000000E+00     5.9374999999893940E-01     0.0000000000000000E+00 
    1.0000000000000000E+00     6.2499999999902101E-01     0.0000000000000000E+00 
    1.0000000000000000E+00     6.5624999999910261E-01     0.0000000000000000E+00 
    1.0000000000000000E+00     6.8749999999918421E-01     0.0000000000000000E+00 
    1.0000000000000000E+00     7.1874999999926570E-01     0.0000000000000000E+00 
    1.0000000000000000E+00     7.4999999999934730E-01     0.0000000000000000E+00 
    1.0000000000000000E+00     7.8124999999942890E-01     0.0000000000000000E+00 
    1.0000000000000000E+00     8.1249999999951039E-01     0.0000000000000000E+00 
    1.0000000000000000E+00     8.4374999999959199E-01     0.0000000000000000E+00 
    1.0000000000000000E+00     8.7499999999967359E-01     0.0000000000000000E+00 
    1.0000000000000000E+00     9.0624999999975520E-01     0.0000000000000000E+00 
    1.0000000000000000E+00     9.3749999999983680E-01     0.0000000000000000E+00 
    1.0000000000000000E+00     9.6874999999991840E-01     0.0000000000000000E+00 
    9.6875000000003686E-01     1.0000000000000000E+00     0.0000000000000000E+00 
    9.3750000000011691E-01     1.0000000000000000E+00     0.0000000000000000E+00 
    9.0625000000015765E-01     1.0000000000000000E+00     0.0000000000000000E+00 
    8.7500000000017863E-01     1.0000000000000000E+00     0.0000000000000000E+00 
    8.4375000000028044E-01     1.0000000000000000E+00     0.0000000000000000E+00 
    8.1250000000040856E-01     1.0000000000000000E+00     0.0000000000000000E+00 
    7.8125000000054956E-01     1.0000000000000000E+00     0.0000000000000000E+00 
    7.5000000000066480E-01     1.0000000000000000E+00     0.0000000000000000E+00 
    7.1875000000086831E-01     1.0000000000000000E+00     0.0000000000000000E+00 
    6.8750000000102829E-01     1.0000000000000000E+00     0.0000000000000000E+00 
    6.5625000000114431E-01     1.0000000000000000E+00     0.0000000000000000E+00 
    6.2500000000129829E-01     1.0000000000000000E+00     0.0000000000000000E+00 
    5.9375000000147926E-01     1.0000000000000000E+00     0.0000000000000000E+00 
    5.6250000000168354E-01     1.0000000000000000E+00     0.0000000000000000E+00 
    5.3125000000188671E-01     1.0000000000000000E+00     0.0000000000000000E+00 
    5.0000000000205835E-01     1.0000000000000000E+00     0.0000000000000000E+00 
    4.6875000000192979E-01     1.0000000000000000E+00     0.0000000000000000E+00 
    4.3750000000180111E-01     1.0000000000000000E+00     0.0000000000000000E+00 
    4.0625000000167238E-01     1.0000000000000000E+00     0.0000000000000000E+00 
    3.7500000000154382E-01     1.0000000000000000E+00     0.0000000000000000E+00 
    3.4375000000141509E-01     1.0000000000000000E+00     0.0000000000000000E+00 
    3.1250000000128642E-01     1.0000000000000000E+00     0.0000000000000000E+00 
    2.8125000000115769E-01     1.0000000000000000E+00     0.0000000000000000E+00 
    2.5000000000102918E-01     1.0000000000000000E+00     0.0000000000000000E+00 
    2.1875000000090050E-01     1.0000000000000000E+00     0.0000000000000000E+00 
    1.8750000000077180E-01     1.0000000000000000E+00     0.0000000000000000E+00 
    1.5625000000064329E-01     1.0000000000000000E+00     0.0000000000000000E+00 
    1.2500000000051459E-01     1.0000000000000000E+00     0.0000000000000000E+00 
    9.3750000000385914E-02     1.0000000000000000E+00     0.0000000000000000E+00 
    6.2500000000257239E-02     1.0000000000000000E+00     0.0000000000000000E+00 
    3.1250000000128557E-02     1.0000000000000000E+00     0.0000000000000000E+00 
    0.0000000000000000E+00     9.6875000000003686E-01     0.0000000000000000E+00 
    0.0000000000000000E+00     9.3750000000011691E-01     0.0000000000000000E+00 
    0.0000000000000000E+00     9.0625000000015765E-01     0.0000000000000000E+00 
    0.0000000000000000E+00     8.7500000000017863E-01     0.0000000000000000E+00 
    0.0000000000000000E+00     8.4375000000028044E-01     0.0000000000000000E+00 
    0.0000000000000000E+00     8.1250000000040856E-01     0.0000000000000000E+00 
    0.0000000000000000E+00     7.8125000000054956E-01     0.0000000000000000E+00 
    0.0000000000000000E+00     7.5000000000066480E-01     0.0000000000000000E+00 
    0.0000000000000000E+00     7.1875000000086831E-01     0.0000000000000000E+00 
    0.0000000000000000E+00     6.8750000000102829E-01     0.0000000000000000E+00 
    0.0000000000000000E+00     6.5625000000114431E-01     0.0000000000000000E+00 
    0.0000000000000000E+00     6.2500000000129829E-01     0.0000000000000000E+00 
    0.0000000000000000E+00     5.9375000000147926E-01     0.0000000000000000E+00 
    0.0000000000000000E+00     5.6250000000168354E-01     0.0000000000000000E+00 
    0.0000000000000000E+00     5.3125000000188671E-01     0.0000000000000000E+00 
    0.0000000000000000E+00     5.0000000000205835E-01     0.0000000000000000E+00 
    0.0000000000000000E+00     4.6875000000192979E-01     0.0000000000000000E+00 
    0.0000000000000000E+00     4.3750000000180111E-01     0.0000000000000000E+00 
    0.0000000000000000E+00     4.0625000000167238E-01     0.0000000000000000E+00 
[...]
CELL_DATA 2795 
SCALARS Pressure double 1 
LOOKUP_TABLE default 

    5.2835789766212375E+00 
    1.1771775765223666E+01 
    8.3507082039367670E+00 
    7.9694765192915895E+00 
    6.4159617815303358E+00 
    1.1664602310543232E+01 
    1.2275797305977843E+01 
    4.7420267337954840E+00 
    8.8115955344673278E+00 
    6.7247614318336977E+00 
    5.7272380439192343E+00 
    1.1455365335326009E+01 
    1.1697892081462459E+01 
    1.1639264282598306E+01 
    7.6772636980015463E+00 
    4.6623736373498179E+00 
    7.3575507659531700E+00 
    6.0995495360221721E+00 
    1.1158421116375449E+01 
    8.3452870709040194E+00 
    8.2371476018959910E+00 
    1.1585053875112735E+01 
    7.7519740648856041E+00 
    3.0909956450657416E-01 
    1.1452365167346365E+01 
    1.1668319827730052E+01 
    1.2303728231586373E+01 
    5.5129324836968951E+00 
    1.1389841082546893E+01 
    1.2295545312485219E+01 
    8.4164801696008187E+00 
    8.5648701282278559E+00 
    5.9270243897462302E+00 
    8.3119173305600142E+00 
    2.7228944284062497E+00 
    7.3594126314883539E+00 
    8.3040653919280469E+00 
    1.2330165071685553E+01 
    1.2257347607386794E+01 
    1.1466115487142584E+01 
    6.3522393763221805E+00 
    1.1429494873795749E+01 
    6.4893732770528700E-01 
    8.1801157943333589E+00 
    1.2111720950914185E+01 
    1.1950054477913152E+01 
    1.1446543669628751E+01 
    9.1134904000383177E+00 
    1.1503924012872165E+01 
    7.5191634777348551E+00 
    7.1797023964012157E+00 
    8.5319017135518820E+00 
    8.0771164420451456E+00 
    7.3987675089571532E+00 
    8.4886167317588601E+00 
    1.0986936284954879E+01 
    9.9390602519614291E+00 
    6.4485052287688669E+00 
    1.1588790787776448E+01 
    1.1526523902966982E+01 
    8.0183423176785684E+00 
    8.0253020550244862E+00 
    7.8896570893582343E+00 
    1.2212140456176121E+01 
    1.2438221948024150E+01 
    7.3669686799328815E+00 
    8.5301170814605403E+00 
    1.1371645941477782E+01 
    9.7519443887069244E+00 
    8.0462875106256817E+00 
    1.2442869958551656E+01 
    1.1543653138938154E+01 
    7.2662752625917824E+00 
    1.2032459535970792E+01 
    8.7243338531994450E+00 
    1.1327435769668737E+01 
    1.2344051480209052E+01 
    8.6033235572683804E+00 
    5.3068422453243880E+00 
    8.5459015138166272E+00 
    1.2263801844178397E+01 
    1.2465289427991623E+01 
    7.3820980859888294E+00 
    8.4666953294515892E+00 
    1.2503357726213075E+01 
    8.3092888548735058E+00 
    7.8213218399208229E+00 
    1.0086550504373818E+01 
    5.1129980611552650E+00 
    7.2001412071477624E+00 
    8.4674326808899707E+00 
    8.9267895497984142E+00 
    1.3820429462748665E+01 
    6.2436466812553313E+00 
    8.5369141527568377E+00 
    1.1428829207347102E+01 
    1.1657408782433267E+01 
    5.5322826607033404E+00 
    8.1856904157797938E+00 
    8.4967809802927725E+00 
    1.1674380490906364E+01 
    8.4983792734826640E+00 
    1.1617957075377818E+01 
    3.3714776535647677E+00 
    5.5654517047274839E+00 
    8.7215635171756105E+00 
    1.1778201711369437E+01 
    7.3306758481885916E+00 
    7.8425193945078924E+00 
    8.4840375442467870E+00 
    7.7991050793420289E+00 
    9.6715594301116230E+00 
    7.6241461160385962E+00 
    7.2723278598578220E+00 
    5.7735371079935094E+00 
    9.8483957897121588E+00 
    8.5668369769016905E+00 
    1.2139118710483162E+01 
    7.3173064138917239E+00 
    7.9602405406309540E+00 
    1.1531866719287814E+01 
    6.6951135146609646E+00 
    1.1910194094283320E+01 
    8.3884121175267179E+00 
    7.8986482543763641E+00 
    1.1659163303276550E+01 
    8.5569943152415497E+00 
    1.2349178870528542E+01 
    1.0096438010591644E+01 
    1.0864093595257680E+01 
    1.2318277244855363E+01 
    6.2553012525363201E+00 
    8.7357107004476227E+00 
    1.1657334089819818E+01 
    2.5199448839517493E+00 
    8.4672714887182039E+00 
    1.2289602268137767E+01 
    7.9273461776998095E+00 
    9.1426252880523720E+00 
    5.4531694012842777E+00 
    1.1429789612266159E+01 
    1.4274931181524469E+01 
    1.0474641633462742E+01 
    7.9211056115769418E+00 
    7.1198785081444091E+00 
    9.1152432404361683E+00 
    8.4054195660159685E+00 
    5.7893510054449147E+00 
    1.2313041260766749E+01 
    1.1730035887503270E+01 
    1.1430410859193580E+01 
    8.9429413136447700E+00 
    7.2470673468890947E+00 
    8.2370624906176850E+00 
    1.2055439823597604E+01 
    7.4367075425858022E+00 
    8.3063850997314592E+00 
    7.5654164712987644E+00 
    9.6397686209114717E+00 
    1.4263982221500239E+01 
    1.1422874533108134E+01 
    7.1625364017192679E+00 
    1.1820052317923475E+01 
    1.1743961274211417E+01 
    1.1811477973272259E+01 
    1.2676962644902030E+01 
    1.3162133384999699E+01 
    1.1944154286557398E+01 
    8.5229480448294890E+00 
    9.0361898572980284E+00 
    1.1800506279174426E+01 
    1.2148755172675433E+01 
    6.0326950783006623E+00 
    1.1445889938729625E+01 
    1.2022802099664569E+01 
    5.8826914151679581E+00 
    1.2596073847598097E+01 
    1.2589094088883330E+01 
    1.1215445771901555E+01 
    8.7883399179520900E+00 
    2.2565730728053066E+00 
    1.2288283381404097E+01 
    8.6706800621630258E+00 
    1.2397902458894931E+01 
    7.8737278828786703E+00 
    1.2142661163880160E+01 
    7.9329476185062853E-01 
    1.0878342532546636E+01 
    8.0596954921303183E+00 
    7.2148201162440611E+00 
    7.0404077045410549E+00 
    8.3590771398658958E+00 
    9.3711520311476697E+00 
    8.6265868513503072E+00 
    5.8134247851957745E+00 
    1.2143714917950877E+01 
    1.1676118572626846E+01 
    9.8540018437928545E+00 
    8.7137195913751651E+00 
    1.2812303342199021E+00 
    6.5289970460023516E+00 
    4.5672430165818616E+00 
    1.2306963016132576E+01 
    9.4913758309120233E+00 
    1.1717884729465347E+01 
    1.1733284649211663E+01 
    7.5162868988078300E+00 
    9.8939690817397352E+00 
    1.1425646075910951E+01 
    1.2574996510723327E+01 
    5.4575170534152102E+00 
    1.0312670330373622E+01 
    8.6629767896173071E+00 
    4.8779288204529880E+00 
    7.4939381125982285E+00 
    1.0313537455843871E+01 
    1.1700091796815929E+01 
    8.4146507190215551E+00 
    1.1793259626650105E+01 
    1.1596422593111866E+01 
    1.1553582929524577E+01 
    8.2451200446620536E+00 
    7.1817592878701513E+00 
    1.1437871622449292E+01 
    7.2638212842535488E+00 
    8.5033533099162213E+00 
    7.1296339271894071E+00 
    8.2556000444889168E+00 
    1.1741550482774572E+01 
    5.2493881758546799E+00 
    7.4251602065173854E+00 
    1.2232409568517745E+01 
    8.2607655782154712E+00 
    9.3923717143691725E+00 
    5.3874178634442691E+00 
    7.3091846760872947E+00 
    1.1578676321252846E+01 
    1.1840323531062808E+01 
    4.4088341836849221E+00 
    8.2605921269410878E+00 
    7.1614608664792003E+00 
    1.2950384480936991E+01 
    1.2473189579729466E+01 
    1.3185004299850831E+01 
    8.2812579781568800E+00 
    1.1717718212412395E+01 
    1.1390065215273779E+01 
    8.1649352449941119E+00 
    1.1430298129934375E+01 
    8.7134699547138705E+00 
    4.9002482214840173E+00 
    8.4551860860957362E+00 
    1.2222024408164868E+01 
    1.1427566187233184E+01 
    5.7004841649472988E+00 
    1.1451718102218631E+01 
    9.3712698016323071E+00 
    8.4515613197759301E+00 
    8.0009728101460844E+00 
    1.1317624531382817E+01 
    8.9538179054166829E+00 
    1.1441652037362600E+01 
    8.1347992870712620E+00 
    5.0123438425487725E+00 
    8.5648548001957288E+00 
    7.0469426161170476E+00 
    1.0476954816513350E+01 
    1.2392076957058700E+01 
    1.1437616982676632E+01 
    1.2283165512917193E+01 
    8.2148601925172891E+00 
    5.5560115619755841E+00 
    5.6323801000020062E+00 
    8.6361452518310209E+00 
    8.4800872617056502E+00 
    1.2310220710678168E+00 
    1.1028306151726834E+01 
    1.2700428326715439E+01 
    7.8795816427956531E+00 
    5.1457085218085998E+00 
    9.5910513556014116E+00 
    1.1450325351223668E+01 
    6.0586539139303621E+00 
    4.1341334059968053E+00 
    8.4562046099563002E+00 
    1.1539138025619769E+01 
    1.2063243694145516E+01 
    1.1961778809689697E+01 
    1.1842559055655766E+01 
    5.9107083245158405E+00 
    8.4409458283283190E+00 
    1.1051464697715993E+01 
    6.6037395718395713E+00 
    1.1686937965183972E+01 
    1.0078204111957625E+01 
    5.7099391924737724E+00 
    1.1538402146082248E+01 
    1.2303777812108297E+01 
    1.1551821137263676E+01 
    5.8504750665183511E+00 
    8.5266830758327110E+00 
    6.3967430749036263E+00 
    8.0317178062655898E+00 
    1.1443502031127673E+01 
    1.1433914650582937E+01 
    5.8830105114553524E+00 
    1.2177053745113696E+01 
    8.9902277754910020E+00 
    1.1474311303853609E+01 
    1.2160226910034824E+01 
    1.1457734621509175E+01 
    1.0675675670611090E+01 
    1.2995860266489418E+01 
    7.8587525082278642E+00 
    1.2257378520771226E+01 
    1.1498042125189977E+01 
    1.2319437298396874E+01 
    1.2171445994080756E+01 
    7.9388871944427564E+00 
    8.3447104804656167E+00 
    7.8701884617467019E+00 
    1.0273721920487471E+01 
    3.3802195409133358E+00 
    8.5650711258943524E+00 
    1.3110965968367736E+01 
    8.7182335556525352E+00 
    8.8819472951996445E+00 
    1.2295627162386573E+01 
    1.2503452302543955E+01 
    7.8440989911432988E+00 
    1.1455172990742959E+01 
    1.1431618450531966E+01 
    8.8711233752008223E+00 
    1.2132917586392013E+01 
    6.0022095664437760E+00 
    3.8542200917084442E+00 
    9.1172378500918043E+00 
    8.7301304647543976E+00 
    1.1435131476616752E+01 
    5.5205084311780119E+00 
    1.1892500657716990E+01 
    3.9270332315511807E+00 
    8.6749666642074672E+00 
    8.0198027116246671E+00 
    8.5055758615950001E+00 
    1.4312911373620109E+01 
    3.2848642881621104E+00 
    8.4851426751794783E+00 
    1.0022353707483338E+01 
    8.1239185601872901E+00 
    6.4018525560320221E+00 
    1.1996204803526107E+01 
    1.3905043109434521E+01 
    1.2117931350799662E+01 
    8.4313981991630200E+00 
    4.8681152033591273E+00 
    1.3767422610749167E+01 
    1.1668900706322935E+01 
    6.0068324779520612E+00 
    8.0379850083607902E+00 
    1.2662587453105939E+01 
    2.7856742896698066E+00 
    8.7746613337184023E+00 
    1.2100316339239034E+01 
    8.5189194119807183E+00 
    7.3910532233368444E+00 
    8.5234405690586943E+00 
    1.1235125668222233E+01 
    8.5005191041562416E+00 
    4.3588674700362393E+00 
    7.7882427102755747E-01 
    6.2990205578813940E+00 
    1.2851831060445955E+01 
    7.8684160140126123E+00 
    9.6474834154776481E+00 
    9.2500728438319477E+00 
    1.0527561113150796E+01 
    8.5323307400795407E+00 
    1.1593127423786308E+01 
    1.4326369059244229E+01 
    1.0010423377009531E+01 
    1.2233649267668840E+01 
    4.5980088249251228E-01 
    1.1435408885040173E+01 
    4.7001896833044032E+00 
    1.3265546596677236E+01 
    8.4982833727171379E+00 
    7.4996959798785614E+00 
    6.5155083747802411E+00 
    4.5401401241204802E+00 
    9.4714825617229952E+00 
    6.6743280513489882E+00 
    1.0389336374099555E+01 
    1.9165344400505713E+00 
    9.3990969823659523E+00 
    1.1379440996338753E+01 
    5.1131150556690059E+00 
    1.1837447863696564E+01 
    1.3098765269494924E+01 
    1.1719480348277370E+01 
    8.3771834160304230E+00 
    8.5006674705441441E+00 
    8.4912187232273162E+00 
    4.9457678334218533E+00 
    7.6506953797747297E+00 
    7.5278364094021164E+00 
    8.4807291181435875E+00 
    7.8183399005193843E+00 
    5.8308067915233130E-01 
    5.3670348876655813E+00 
    8.1351893964310129E+00 
    8.4581105830419876E+00 
    1.0672190158167099E+01 
    1.8244783453192155E+00 
    8.8359331740320730E+00 
    8.7350975326279112E+00 
    3.1567449694712142E+00 
    1.1613333561861049E+01 
    7.2859892308536551E+00 
    8.6160796444206920E+00 
    1.1668683944438383E+01 
    4.5895445427621269E+00 
    1.1702504903299282E+01 
    7.3654074947966297E+00 
    8.3177240824641319E-01 
    7.9208960559625092E+00 
    1.2190588222748026E+01 
    1.1436082080916314E+01 
    1.1455625189623859E+01 
    8.8406671396143359E+00 
    8.6777756954175587E+00 
    7.2606011076742094E+00 
    5.8133216982365328E+00 
    1.1764192189914878E+01 
    8.0382535895680487E+00 
    5.6131810897370631E+00 
    1.1448829356802998E+01 
    1.2024680523070099E+01 
    8.6573122522672055E+00 
    8.3051821660566780E+00 
    1.4214731853725231E+01 
    8.8718737881829064E+00 
    1.1775388083092167E+01 
    6.9204162247124286E+00 
    1.4354406491085145E+01 
    5.5988855807189992E+00 
    7.6282047391034808E+00 
    6.2625417742422060E+00 
    9.0723555623822953E+00 
    7.1843561247064835E+00 
    1.4338658508172212E+01 
    8.9136117021557126E+00 
    1.1180215225578321E+01 
    5.7575737394541173E+00 
    8.5271432009488617E+00 
    1.1639155630905162E+01 
    7.2049073942990036E+00 
    6.0799185109219458E+00 
    9.3131815937335869E+00 
    1.1834027252532907E+01 
    6.1754275326339600E+00 
    8.0353113095752189E+00 
    8.3287925210251679E+00 
    1.1415254930506869E+01 
    8.1552117028022995E+00 
    1.1809449224676689E+01 
    1.2344822894732991E+01 
    7.2828257392881222E+00 
    7.1462835217939551E+00 
    6.7059080414727017E+00 
    1.1533330795775928E+01 
    8.7314941776557298E+00 
    1.3940516161915754E+01 
    1.0884166707758446E+01 
    1.1606323076819102E+01 
    1.3651223734424075E+01 
    1.3102315164746642E+01 
    8.5700811872332316E+00 
    8.4668901335376106E+00 
    1.1240393234271494E+01 
    1.1466467773834871E+01 
    1.1914109881967663E+01 
    1.1687739761959874E+01 
    1.4231666195440116E+01 
    8.8714714772050236E+00 
    7.3647307384797021E+00 
    8.8354371509986809E+00 
    1.2269373726509150E+01 
    8.6494495701256380E+00 
    5.0065264469086248E+00 
    8.3627669184656170E+00 
    1.2634393855876603E+01 
    8.7664354292232982E+00 
    7.3676498253559100E+00 
    8.2708186262794854E+00 
    1.2731116271876997E+01 
    1.1473256265030894E+01 
    7.0082823709835615E+00 
    1.2854756129540901E+01 
    8.5940344720302715E+00 
    1.1899148315534942E+01 
    1.2744318218618490E+01 
    8.9448946493277504E+00 
    4.5826024702594150E+00 
    9.2876194273607577E+00 
    4.7382678710191577E+00 
    8.6904969697948271E+00 
    8.5215243214306895E+00 
    9.7693929952079070E+00 
    5.0012919073006463E+00 
    1.0372567386114767E+01 
    8.5393103224824554E+00 
    1.1678571505301125E+01 
    8.9043770993732263E+00 
    6.7811192019278668E+00 
    8.1581652614242746E+00 
    8.9931292600414938E+00 
    8.9626245930916983E+00 
    1.2388727573719422E+01 
    7.0545703791933834E+00 
    6.9388253222194844E+00 
    5.2457996973892769E+00 
    1.1933307697438879E+01 
    8.1953987942403224E+00 
    1.1304981802525504E+01 
    8.4915744939603108E+00 
    5.7113683055793460E+00 
    1.1501700690598629E+01 
    8.4669154833957929E+00 
    6.2043151111792723E+00 
    6.5574710676716679E+00 
    6.7787206713763206E+00 
    1.1706338533838796E+01 
    8.4825828920715516E+00 
    1.2242541848331131E+01 
    8.4255045471595853E+00 
    8.3649147885565913E+00 
    7.9604282866695941E+00 
    1.1570198221589090E+01 
    8.2860607954283836E+00 
    6.8121392729383761E+00 
    1.3089255028255748E+01 
    1.1638168529822986E+01 
    5.8637645465019794E+00 
    2.3082591808852300E+00 
    8.4722510831084072E+00 
    7.9271978889717998E+00 
    7.1431946063869995E+00 
    7.7912634005023689E+00 
    1.1602664857592460E+01 
    8.2108988890645875E+00 
    7.4210935664233189E+00 
    1.1484750133193623E+01 
    5.8115976320029041E+00 
    1.1207593361231504E+01 
    7.6573838940312076E+00 
    6.7377711263648017E+00 
    7.2062997513457487E+00 
    1.1971793514573248E+01 
    8.5083945007642718E+00 
    8.5158016519682285E+00 
    5.0815702345309672E+00 
    5.4694764703691803E+00 
    1.0654582182578311E+01 
    8.5248482046214242E+00 
    8.5108470106662129E+00 
    1.2839186086037509E+01 
    6.9373122842531316E+00 
    8.5355994091735816E+00 
    6.0141640091647028E+00 
    6.2022082112391459E+00 
    1.1565760156768510E+01 
    8.1840518916979637E+00 
    5.9980893629597851E+00 
    8.9437217987893476E+00 
    8.4064590436364046E+00 
    1.1568191110705762E+01 
    1.2923313086445127E+01 
    8.9343983510096425E-01 
    8.4768314599433641E+00 
    8.7288813223922403E+00 
    1.1620363498176719E+01 
    7.9838448257577568E+00 
    8.4837499298991563E+00 
    1.2433155482495582E+01 
    7.2321544511757798E+00 
    6.0474261696023239E+00 
    1.0279160312162775E+01 
    1.1447349965838344E+01 
    1.2320084231747988E+01 
    1.2552663403408964E+01 
    8.3311874296569659E+00 
    8.4694989542933161E+00 
    9.5266739178170390E+00 
    5.5752250492177762E+00 
    1.1551760872645804E+01 
    6.4934593771823996E+00 
    5.8033131345077580E+00 
    1.0618311674396191E+01 
    9.9814011197892825E+00 
    5.6924723282580638E+00 
    1.1477568424567322E+01 
    1.2306839495051275E+01 
    8.8852033664778460E+00 
    1.3014560080088383E+01 
    1.1503905283168363E+01 
    8.0697266238835113E+00 
    1.2076443832551352E+01 
    6.2070223182440110E+00 
    1.1461856445534719E+01 
    8.4761007564248647E+00 
    8.4370370973703519E+00 
    1.2991095817158639E+01 
    8.2231926880840511E+00 
    1.0367179137832057E+01 
    7.1918228431066069E+00 
    1.2409221192441315E+01 
    1.1384632524014473E+01 
    7.4895896457373574E+00 
    1.1428920485149876E+01 
    7.6610889891095209E+00 
    8.4930555589882957E+00 
    1.2271715460028238E+01 
    1.1683972290982647E+01 
    1.2309915006649469E+01 
    1.1623648553699834E+01 
    7.6605635994999810E+00 
    7.8633320579918662E+00 
    1.2315294507090348E+01 
    7.9685871159670381E+00 
    1.1327789659490289E+01 
    8.2177654123671040E+00 
    3.4083853598799729E+00 
    5.8601024563080042E+00 
    5.4333788173078279E+00 
    1.2274361317668568E+01 
    1.2928049597167478E+01 
    1.1444320807010980E+01 
    9.8643952881961301E+00 
    1.1680603129973465E+01 
    1.1482286266017779E+01 
    1.1974712763341612E+01 
    4.9106468669590191E+00 
    3.1754542045031706E+00 
    9.6806377488660473E+00 
    8.1309674751168028E+00 
    1.1604323236546531E+01 
    1.1602330912713262E+01 
    8.7428876990535773E+00 
    1.1633113994441349E+01 
    8.4643372035362194E+00 
    8.3542797649077656E+00 
    4.4357159915080562E+00 
    3.1626135965272115E+00 
    1.2728257272860642E+01 
    6.5918933060965914E+00 
    7.4367287656809689E+00 
    8.6576546235686394E+00 
    1.4214905222142697E+01 
    8.7373448785886580E+00 
    8.7145467557724121E+00 
    3.5844812652618279E+00 
    8.7377235820228414E+00 
    8.7491830171919567E+00 
    1.1864206835761461E+01 
    7.2148382437103313E+00 
    8.0991528271767148E+00 
    1.2878959341698341E+01 
    8.4846182419747844E+00 
    1.1457688506761798E+01 
    1.1666845623507282E+01 
    1.0510732662959109E+01 
    7.1631908531697146E+00 
    1.1623808874229061E+01 
    8.2798997017282261E+00 
    1.1621628777596387E+01 
    1.1403795965629946E+01 
    1.2291170759284366E+01 
    1.1619948503761893E+01 
    1.0916185045241514E+01 
    8.4744127650185384E+00 
    5.6463855143605315E+00 
    1.4095212873814946E+01 
    6.6213973329773959E+00 
    1.2226863520498350E+01 
    8.4719049236908184E+00 
    6.9856321381382820E+00 
    4.1954111093547164E+00 
    8.7777819106471160E+00 
    1.1612000216425256E+01 
    1.1610009708079291E+01 
    8.4745649182748846E+00 
    8.4662361366206103E+00 
    1.3067749735238325E+01 
    1.2502201762006427E+01 
    8.7536925009038207E+00 
    2.9553346631266790E+00 
    1.0896090342680759E+01 
    1.4337460915765222E+01 
    8.4776310820678766E+00 
    1.0179079547145220E+01 
    7.9790064979243223E+00 
    1.3963094402380333E+01 
    1.2572512029959301E+01 
    1.2344739999859526E+01 
    8.7723377758809971E+00 
    3.9186709743340065E+00 
    7.9424207428546154E+00 
    8.0035125886219358E+00 
    8.0519595124607068E+00 
    3.2151437666758822E+00 