# vtk DataFile Version 2.0
Pressure Field Data 
ASCII 
DATASET UNSTRUCTURED_GRID 

POINTS 2860 double 

    0.0000000000000000E+00     0.0000000000000000E+00     0.0000000000000000E+00 
    1.0000000000000000E+00     0.0000000000000000E+00     0.0000000000000000E+00 
    1.0000000000000000E+00     1.0000000000000000E+00     0.0000000000000000E+00 
    0.0000000000000000E+00     1.0000000000000000E+00     0.0000000000000000E+00 
    2.5000000000000000E-01     2.5000000000000000E-01     0.0000000000000000E+00 
    7.5000000000000000E-01     2.5000000000000000E-01     0.0000000000000000E+00 
    7.5000000000000000E-01     7.5000000000000000E-01     0.0000000000000000E+00 
    2.5000000000000000E-01     7.5000000000000000E-01     0.0000000000000000E+00 
    3.1249999999942091E-02     0.0000000000000000E+00     0.0000000000000000E+00 
    6.2499999999873469E-02     0.0000000000000000E+00     0.0000000000000000E+00 
    9.3749999999826514E-02     0.0000000000000000E+00     0.0000000000000000E+00 
    1.2499999999977961E-01     0.0000000000000000E+00     0.0000000000000000E+00 
    1.5624999999968961E-01     0.0000000000000000E+00     0.0000000000000000E+00 
    1.8749999999959971E-01     0.0000000000000000E+00     0.0000000000000000E+00 
    2.1874999999950970E-01     0.0000000000000000E+00     0.0000000000000000E+00 
    2.4999999999941969E-01     0.0000000000000000E+00     0.0000000000000000E+00 
    2.8124999999932920E-01     0.0000000000000000E+00     0.0000000000000000E+00 
    3.1249999999923850E-01     0.0000000000000000E+00     0.0000000000000000E+00 
    3.4374999999914790E-01     0.0000000000000000E+00     0.0000000000000000E+00 
    3.7499999999905720E-01     0.0000000000000000E+00     0.0000000000000000E+00 
    4.0624999999896660E-01     0.0000000000000000E+00     0.0000000000000000E+00 
    4.3749999999887590E-01     0.0000000000000000E+00     0.0000000000000000E+00 
    4.6874999999878530E-01     0.0000000000000000E+00     0.0000000000000000E+00 
    4.9999999999869471E-01     0.0000000000000000E+00     0.0000000000000000E+00 
    5.3124999999877620E-01     0.0000000000000000E+00     0.0000000000000000E+00 
    5.6249999999885780E-01     0.0000000000000000E+00     0.0000000000000000E+00 
    5.9374999999893940E-01     0.0000000000000000E+00     0.0000000000000000E+00 
    6.2499999999902101E-01     0.0000000000000000E+00     0.0000000000000000E+00 
    6.5624999999910261E-01     0.0000000000000000E+00     0.0000000000000000E+00 
    6.8749999999918421E-01     0.0000000000000000E+00     0.0000000000000000E+00 
    7.1874999999926570E-01     0.0000000000000000E+00     0.0000000000000000E+00 
    7.4999999999934730E-01     0.0000000000000000E+00     0.0000000000000000E+00 
    7.8124999999942890E-01     0.0000000000000000E+00     0.0000000000000000E+00 
    8.1249999999951039E-01     0.0000000000000000E+00     0.0000000000000000E+00 
    8.4374999999959199E-01     0.0000000000000000E+00     0.0000000000000000E+00 
    8.7499999999967359E-01     0.0000000000000000E+00     0.0000000000000000E+00 
    9.0624999999975520E-01     0.0000000000000000E+00     0.0000000000000000E+00 
    9.3749999999983680E-01     0.0000000000000000E+00     0.0000000000000000E+00 
    9.6874999999991840E-01     0.0000000000000000E+00     0.0000000000000000E+00 
    1.0000000000000000E+00     3.1249999999942091E-02     0.0000000000000000E+00 
    1.0000000000000000E+00     6.2499999999873469E-02     0.0000000000000000E+00 
    1.0000000000000000E+00     9.3749999999826514E-02     0.0000000000000000E+00 
    1.0000000000000000E+00     1.2499999999977961E-01     0.0000000000000000E+00 
    1.0000000000000000E+00     1.5624999999968961E-01     0.0000000000000000E+00 
    1.0000000000000000E+00     1.8749999999959971E-01     0.0000000000000000E+00 
    1.0000000000000000E+00     2.1874999999950970E-01     0.0000000000000000E+00 
    1.0000000000000000E+00     2.4999999999941969E-01     0.0000000000000000E+00 
    1.0000000000000000E+00     2.8124999999932920E-01     0.0000000000000000E+00 
    1.0000000000000000E+00     3.1249999999923850E-01     0.0000000000000000E+00 
    1.0000000000000000E+00     3.4374999999914790E-01     0.0000000000000000E+00 
    1.0000000000000000E+00     3.7499999999905720E-01     0.0000000000000000E+00 
    1.0000000000000000E+00     4.0624999999896660E-01     0.0000000000000000E+00 
    1.0000000000000000E+00     4.3749999999887590E-01     0.0000000000000000E+00 
    1.0000000000000000E+00     4.6874999999878530E-01     0.0000000000000000E+00 
    1.0000000000000000E+00     4.9999999999869471E-01     0.0000000000000000E+00 
    1.0000000000000000E+00     5.3124999999877620E-01     0.0000000000000000E+00 
    1.0000000000000000E+00     5.6249999999885780E-01     0.0000000000000000E+00 
    1.0000000000000000E+00     5.9374999999893940E-01     0.0000000000000000E+00 
    1.0000000000000000E+00     6.2499999999902101E-01     0.0000000000000000E+00 
    1.0000000000000000E+00     6.5624999999910261E-01     0.0000000000000000E+00 
    1.0000000000000000E+00     6.8749999999918421E-01     0.0000000000000000E+00 
    1.0000000000000000E+00     7.1874999999926570E-01     0.0000000000000000E+00 
    1.0000000000000000E+00     7.4999999999934730E-01     0.0000000000000000E+00 
    1.0000000000000000E+00     7.8124999999942890E-01     0.0000000000000000E+00 
    1.0000000000000000E+00     8.1249999999951039E-01     0.0000000000000000E+00 
    1.0000000000000000E+00     8.4374999999959199E-01     0.0000000000000000E+00 
    1.0000000000000000E+00     8.7499999999967359E-01     0.0000000000000000E+00 
    1.0000000000000000E+00     9.0624999999975520E-01     0.0000000000000000E+00 
    1.0000000000000000E+00     9.3749999999983680E-01     0.0000000000000000E+00 
    1.0000000000000000E+00     9.6874999999991840E-01     0.0000000000000000E+00 
    9.6875000000003686E-01     1.0000000000000000E+00     0.0000000000000000E+00 
    9.3750000000011691E-01     1.0000000000000000E+00     0.0000000000000000E+00 
    9.0625000000015765E-01     1.0000000000000000E+00     0.0000000000000000E+00 
    8.7500000000017863E-01     1.0000000000000000E+00     0.0000000000000000E+00 
    8.4375000000028044E-01     1.0000000000000000E+00     0.0000000000000000E+00 
    8.1250000000040856E-01     1.0000000000000000E+00     0.0000000000000000E+00 
    7.8125000000054956E-01     1.0000000000000000E+00     0.0000000000000000E+00 
    7.5000000000066480E-01     1.0000000000000000E+00     0.0000000000000000E+00 
    7.1875000000086831E-01     1.0000000000000000E+00     0.0000000000000000E+00 
    6.8750000000102829E-01     1.0000000000000000E+00     0.0000000000000000E+00 
    6.5625000000114431E-01     1.0000000000000000E+00     0.0000000000000000E+00 
    6.2500000000129829E-01     1.0000000000000000E+00     0.0000000000000000E+00 
    5.9375000000147926E-01     1.0000000000000000E+00     0.0000000000000000E+00 
    5.6250000000168354E-01     1.0000000000000000E+00     0.0000000000000000E+00 
    5.3125000000188671E-01     1.0000000000000000E+00     0.0000000000000000E+00 
    5.0000000000205835E-01     1.0000000000000000E+00     0.0000000000000000E+00 
    4.6875000000192979E-01     1.0000000000000000E+00     0.0000000000000000E+00 
    4.3750000000180111E-01     1.0000000000000000E+00     0.0000000000000000E+00 
    4.0625000000167238E-01     1.0000000000000000E+00     0.0000000000000000E+00 
    3.7500000000154382E-01     1.0000000000000000E+00     0.0000000000000000E+00 
    3.4375000000141509E-01     1.0000000000000000E+00     0.0000000000000000E+00 
    3.1250000000128642E-01     1.0000000000000000E+00     0.0000000000000000E+00 
    2.8125000000115769E-01     1.0000000000000000E+00     0.0000000000000000E+00 
    2.5000000000102918E-01     1.0000000000000000E+00     0.0000000000000000E+00 
    2.1875000000090050E-01     1.0000000000000000E+00     0.0000000000000000E+00 
    1.8750000000077180E-01     1.0000000000000000E+00     0.0000000000000000E+00 
    1.5625000000064329E-01     1.0000000000000000E+00     0.0000000000000000E+00 
    1.2500000000051459E-01     1.0000000000000000E+00     0.0000000000000000E+00 
    9.3750000000385914E-02     1.0000000000000000E+00     0.0000000000000000E+00 
    6.2500000000257239E-02     1.0000000000000000E+00     0.0000000000000000E+00 
    3.1250000000128557E-02     1.0000000000000000E+00     0.0000000000000000E+00 
    0.0000000000000000E+00     9.6875000000003686E-01     0.0000000000000000E+00 
    0.0000000000000000E+00     9.3750000000011691E-01     0.0000000000000000E+00 
    0.0000000000000000E+00     9.0625000000015765E-01     0.0000000000000000E+00 
    0.0000000000000000E+00     8.7500000000017863E-01     0.0000000000000000E+00 
    0.0000000000000000E+00     8.4375000000028044E-01     0.0000000000000000E+00 
    0.0000000000000000E+00     8.1250000000040856E-01     0.0000000000000000E+00 
    0.0000000000000000E+00     7.8125000000054956E-01     0.0000000000000000E+00 
    0.0000000000000000E+00     7.5000000000066480E-01     0.0000000000000000E+00 
    0.0000000000000000E+00     7.1875000000086831E-01     0.0000000000000000E+00 
    0.0000000000000000E+00     6.8750000000102829E-01     0.0000000000000000E+00 
    0.0000000000000000E+00     6.5625000000114431E-01     0.0000000000000000E+00 
    0.0000000000000000E+00     6.2500000000129829E-01     0.0000000000000000E+00 
    0.0000000000000000E+00     5.9375000000147926E-01     0.0000000000000000E+00 
    0.0000000000000000E+00     5.6250000000168354E-01     0.0000000000000000E+00 
    0.0000000000000000E+00     5.3125000000188671E-01     0.0000000000000000E+00 
    0.0000000000000000E+00     5.0000000000205835E-01     0.0000000000000000E+00 
    0.0000000000000000E+00     4.6875000000192979E-01     0.0000000000000000E+00 
    0.0000000000000000E+00     4.3750000000180111E-01     0.0000000000000000E+00 
    0.0000000000000000E+00     4.0625000000167238E-01     0.0000000000000000E+00 
[...]
CELL_DATA 2795 
SCALARS Pressure double 1 
LOOKUP_TABLE default 

    6.4797011480059279E+00 
    1.4079413742867743E+01 
    9.9622399244688378E+00 
    9.6267086322102688E+00 
    7.8220704902879534E+00 
    1.3947138875286569E+01 
    1.4654100424086863E+01 
    5.8419515303661260E+00 
    1.0528868492945460E+01 
    8.0332207482999625E+00 
    6.8550362820010422E+00 
    1.3700609653823337E+01 
    1.4004037592866728E+01 
    1.3917896351006585E+01 
    9.1701728899065778E+00 
    5.7500825570948333E+00 
    8.9329649690764903E+00 
    7.2947124284764087E+00 
    1.3351146729953536E+01 
    9.9502022118760536E+00 
    9.8429183722039859E+00 
    1.3854120958254674E+01 
    9.3835961469842886E+00 
    3.8607386145541389E-01 
    1.3713258296170617E+01 
    1.3959657377454970E+01 
    1.4685028555121951E+01 
    6.6075509002379462E+00 
    1.3623988426022304E+01 
    1.4672032926526352E+01 
    1.0051250657640290E+01 
    1.0170655607029454E+01 
    7.1215165684271220E+00 
    9.9238935790845115E+00 
    3.3364718676831617E+00 
    8.9340797430433252E+00 
    9.9124392878930063E+00 
    1.4710180518987801E+01 
    1.4632188034550653E+01 
    1.3713282177896279E+01 
    7.7748123872908570E+00 
    1.3679267711232107E+01 
    8.0987581923372653E-01 
    9.8556737360787228E+00 
    1.4487480269462566E+01 
    1.4287474342514056E+01 
    1.3690250732617063E+01 
    1.0863519575774625E+01 
    1.3758480968195872E+01 
    9.1237271623434921E+00 
    8.7274442576335858E+00 
    1.0135779416007662E+01 
    9.7533417519747374E+00 
    8.9858898114546779E+00 
    1.0119183011627984E+01 
    1.3149127293664661E+01 
    1.1804962689199993E+01 
    7.8612689680569305E+00 
    1.3858651778221704E+01 
    1.3785227830172083E+01 
    9.6334340825083586E+00 
    9.5770940066788111E+00 
    9.5380471443058923E+00 
    1.4578200549488288E+01 
    1.4855657807349921E+01 
    8.9460800604134132E+00 
    1.0134860694530358E+01 
    1.3601035259808754E+01 
    1.1651917324430338E+01 
    9.6159832026917034E+00 
    1.4839110299137031E+01 
    1.3816315635810025E+01 
    8.8290549929284321E+00 
    1.4390517878965305E+01 
    1.0340345836693027E+01 
    1.3564715544665454E+01 
    1.4728811056751749E+01 
    1.0369549663761072E+01 
    6.6324297121091682E+00 
    1.0153430786053379E+01 
    1.4640352514368715E+01 
    1.4860649792596611E+01 
    8.9545120452255667E+00 
    1.0069975649619966E+01 
    1.4906581225925407E+01 
    9.9145413433429965E+00 
    9.4620087317865558E+00 
    1.2059493921409029E+01 
    6.3418309080508859E+00 
    8.7522612443936669E+00 
    1.0069204667911421E+01 
    1.0680628875326791E+01 
    1.6317134481710120E+01 
    7.6180510938960095E+00 
    1.0142972235654559E+01 
    1.3669204896726038E+01 
    1.3955255656748536E+01 
    6.7818671157895940E+00 
    9.7832191428722570E+00 
    1.0100432335412922E+01 
    1.3975305424929607E+01 
    1.0100003762316604E+01 
    1.3907771923669273E+01 
    4.2033077673382095E+00 
    6.6615526195830075E+00 
    1.0369165086942761E+01 
    1.4086468558249715E+01 
    8.9019567696682333E+00 
    9.4338239734504423E+00 
    1.0083795845458171E+01 
    9.4354276266329560E+00 
    1.1429003617286359E+01 
    9.1957671804840047E+00 
    8.8347095952523862E+00 
    7.1342924030587920E+00 
    1.1822287086781344E+01 
    1.0172806533428160E+01 
    1.4495992122429016E+01 
    8.7260393187598932E+00 
    9.6118068790283591E+00 
    1.3800354738338923E+01 
    8.1664021093501677E+00 
    1.4244779223440766E+01 
    9.9924218176721080E+00 
    9.5474392568343784E+00 
    1.3956757100366760E+01 
    1.0165837617775754E+01 
    1.4735307954378101E+01 
    1.2074013103748481E+01 
    1.2999808788751633E+01 
    1.4701370366413807E+01 
    7.6319287775800264E+00 
    1.0395843104853766E+01 
    1.3947777384461451E+01 
    3.1450017678455433E+00 
    1.0098503645235066E+01 
    1.4668842726143266E+01 
    9.5750280657072278E+00 
    1.0999035483732328E+01 
    6.7606685956573784E+00 
    1.3667675813893572E+01 
    1.6787298271813050E+01 
    1.2528486551672614E+01 
    9.5727731606581212E+00 
    8.6573554941539754E+00 
    1.0723875537726530E+01 
    1.0009662258707335E+01 
    6.9240538424399931E+00 
    1.4695487677533233E+01 
    1.4004895922048728E+01 
    1.3670887887362506E+01 
    1.0672208675273609E+01 
    8.8076493095471236E+00 
    9.8407494873190622E+00 
    1.4415426937729517E+01 
    9.0232097934293449E+00 
    1.0016613405334692E+01 
    9.1701982816563632E+00 
    1.1577175326980282E+01 
    1.6775875020137860E+01 
    1.3662568677504831E+01 
    8.7877485006381235E+00 
    1.4144330068767433E+01 
    1.4047092954726054E+01 
    1.4124776620832209E+01 
    1.5097571036128123E+01 
    1.5621214870602337E+01 
    1.4288391286496832E+01 
    1.0126537739106777E+01 
    1.0876981865429514E+01 
    1.4122582768105282E+01 
    1.4509705870600406E+01 
    7.2014952688937797E+00 
    1.3689759959445812E+01 
    1.4378903457784949E+01 
    7.0336678042566163E+00 
    1.5016895822189721E+01 
    1.4999292909126497E+01 
    1.3417654312628521E+01 
    1.0462515400053197E+01 
    2.7139598877116460E+00 
    1.4667854828738479E+01 
    1.0306209401953433E+01 
    1.4792864226359217E+01 
    9.5139045065098173E+00 
    1.4512557120874703E+01 
    9.9932017411799223E-01 
    1.3012023918460848E+01 
    9.6203611941895595E+00 
    8.7694782795945247E+00 
    8.5652674328198888E+00 
    9.9614621232987197E+00 
    1.1081997872718478E+01 
    1.0393740156288729E+01 
    7.2312375425431261E+00 
    1.4501437665824874E+01 
    1.3969111218692465E+01 
    1.1773956286320502E+01 
    1.0365148505628390E+01 
    1.6020784695733556E+00 
    7.9565867284563323E+00 
    5.7021468041040819E+00 
    1.4684269201531972E+01 
    1.1170252953321922E+01 
    1.4022676942555242E+01 
    1.4035641846723081E+01 
    9.1019661534544625E+00 
    1.1687736157701448E+01 
    1.3666001889530861E+01 
    1.4986167005904978E+01 
    6.7267984713468456E+00 
    1.2369878511453138E+01 
    1.0417554322627543E+01 
    6.0594746132891970E+00 
    9.0880955709983713E+00 
    1.2272195922219542E+01 
    1.3997011579895084E+01 
    1.0016541202440608E+01 
    1.4104313999250815E+01 
    1.3876397009895811E+01 
    1.3825871148140108E+01 
    9.8466683356375437E+00 
    8.7017678782321539E+00 
    1.3678829397648474E+01 
    8.8250890675296123E+00 
    1.0105003377760882E+01 
    8.6701246939412577E+00 
    9.9619143325416903E+00 
    1.4045734382476562E+01 
    6.2824911947251580E+00 
    9.0084926937907550E+00 
    1.4603283522121087E+01 
    9.8590326635291419E+00 
    1.1072556422005535E+01 
    6.4497804277667683E+00 
    8.8778872636278336E+00 
    1.3855610014474593E+01 
    1.4158293603872046E+01 
    5.2800693153569851E+00 
    9.8650927573894034E+00 
    8.7147090842978319E+00 
    1.5395556727513156E+01 
    1.4871100557269852E+01 
    1.5646949150737033E+01 
    9.8858524880931107E+00 
    1.4017479397442228E+01 
    1.3623603617072963E+01 
    9.7570189218066119E+00 
    1.3671100202907136E+01 
    1.0365695774778249E+01 
    6.1392632357208665E+00 
    1.0136981511737853E+01 
    1.4590030100905222E+01 
    1.3667983449517605E+01 
    6.8208679602584112E+00 
    1.3696502224276305E+01 
    1.1098478390027342E+01 
    1.0080903095441597E+01 
    9.6461115858951239E+00 
    1.3539243748143406E+01 
    1.0570042649566423E+01 
    1.3683807811557585E+01 
    9.7938887760039286E+00 
    6.3248429112209559E+00 
    1.0177060333660309E+01 
    8.5720305773272703E+00 
    1.2535266821886690E+01 
    1.4783721968377366E+01 
    1.3677218972050419E+01 
    1.4662029876567377E+01 
    9.8060682654481752E+00 
    6.6578587320731257E+00 
    6.7430268909263820E+00 
    1.0255594938060481E+01 
    1.0080760760497787E+01 
    1.5299154150089584E+00 
    1.3193975540569262E+01 
    1.5135219928963698E+01 
    9.5247437777608646E+00 
    6.3563489001496221E+00 
    1.1526698504810339E+01 
    1.3695080759871951E+01 
    7.4039232065711937E+00 
    5.1218543368055212E+00 
    1.0057580418952798E+01 
    1.3774522684949670E+01 
    1.4410803809728398E+01 
    1.4307173789981418E+01 
    1.4160129584556316E+01 
    7.2623847036955977E+00 
    1.0073479632088471E+01 
    1.3235248812349964E+01 
    7.8878904559002754E+00 
    1.3990818235593130E+01 
    1.1921948305151748E+01 
    6.8339077779449857E+00 
    1.3800100751629799E+01 
    1.4689052608530915E+01 
    1.3830274585341730E+01 
    7.1517448245667588E+00 
    1.0131031489333637E+01 
    7.7997912374242295E+00 
    9.5585136950558649E+00 
    1.3686829159090859E+01 
    1.3675457065807885E+01 
    7.1907620695932293E+00 
    1.4547960934652203E+01 
    1.0670669153933055E+01 
    1.3708273704406146E+01 
    1.4527759944028451E+01 
    1.3695856007279193E+01 
    1.2764404947969487E+01 
    1.5447379083779314E+01 
    9.4881845467903982E+00 
    1.4632163865723550E+01 
    1.3735126738853245E+01 
    1.4702902944961753E+01 
    1.4540530432769813E+01 
    9.5780327737440132E+00 
    9.9536363624945974E+00 
    9.5157215980882093E+00 
    1.2282370389331314E+01 
    4.2095239666171782E+00 
    1.0195220696548333E+01 
    1.5569272809489220E+01 
    1.0364730128822124E+01 
    1.0549067030660387E+01 
    1.4676339633747276E+01 
    1.4905286588882644E+01 
    9.4335729591225359E+00 
    1.3700695170036914E+01 
    1.3672043691511920E+01 
    1.0536887053570817E+01 
    1.4495928015743914E+01 
    7.1779767916613766E+00 
    4.6132508400041292E+00 
    1.0812944211506981E+01 
    1.0379685748729109E+01 
    1.3677198399436479E+01 
    6.7650250284252778E+00 
    1.4224259821922296E+01 
    4.7028208760875838E+00 
    1.0312145990787014E+01 
    9.6224152711651456E+00 
    1.0107494974243460E+01 
    1.6824976544571175E+01 
    4.0962028214697384E+00 
    1.0115662918768770E+01 
    1.2023140149689421E+01 
    9.7092582220908561E+00 
    7.8897435461139791E+00 
    1.4331356222675357E+01 
    1.6406758343121233E+01 
    1.4483405506189161E+01 
    1.0059577668291672E+01 
    6.0207824701449066E+00 
    1.6258510497847308E+01 
    1.3961353996826718E+01 
    7.5426829337030314E+00 
    9.7075381605257753E+00 
    1.5080656076560642E+01 
    3.4758611891643469E+00 
    1.0428520913237039E+01 
    1.4465095786379477E+01 
    1.0120957078834468E+01 
    8.8104623170636138E+00 
    1.0153923463910960E+01 
    1.3456945367278067E+01 
    1.0101951765299141E+01 
    5.3885102906753799E+00 
    9.8699079606504692E-01 
    7.5321627282782355E+00 
    1.5291950830512349E+01 
    9.5138962050200995E+00 
    1.1350467514499210E+01 
    1.0865957867850010E+01 
    1.2560615913860753E+01 
    1.0134499260548584E+01 
    1.3873052354557068E+01 
    1.6838760593819504E+01 
    1.1972084923249929E+01 
    1.4604958851800811E+01 
    5.7647405798757290E-01 
    1.3677337132849690E+01 
    5.9355543400299942E+00 
    1.5732394391671289E+01 
    1.0128766929888167E+01 
    8.9559305233090534E+00 
    7.9408562590825182E+00 
    5.6140366498476677E+00 
    1.1305771493368008E+01 
    7.9748679967794667E+00 
    1.2432511678392112E+01 
    2.2936067673043978E+00 
    1.1132641077495395E+01 
    1.3611409882644399E+01 
    6.1202293783623869E+00 
    1.4156368513003647E+01 
    1.5551275289232260E+01 
    1.3989025365316904E+01 
    1.0002365922606510E+01 
    1.0102200878989782E+01 
    1.0121750196922402E+01 
    6.0826051894093558E+00 
    9.2678461366228060E+00 
    9.1273741580555807E+00 
    1.0111232170491098E+01 
    9.4554599034260551E+00 
    7.4107336233460785E-01 
    6.7476862381066418E+00 
    9.8200637566569853E+00 
    1.0087690060366462E+01 
    1.2768765625099171E+01 
    2.2795168020214862E+00 
    1.0497358542768435E+01 
    1.0384026408801315E+01 
    3.9354995192341318E+00 
    1.3858479075291052E+01 
    8.8410864643768221E+00 
    1.0239475247977351E+01 
    1.3963045633418863E+01 
    5.6605744500534314E+00 
    1.3975830781776166E+01 
    8.9419747305799344E+00 
    1.0416349944189180E+00 
    9.5711344169419412E+00 
    1.4559573262656627E+01 
    1.3677539229517178E+01 
    1.3696585459512852E+01 
    1.0453215449967484E+01 
    1.0316074343302155E+01 
    8.8218408371267110E+00 
    7.2651218431759084E+00 
    1.4079980195584477E+01 
    9.7050650995278271E+00 
    7.0547709805733083E+00 
    1.3691484723083921E+01 
    1.4375341125843914E+01 
    1.0276986862944213E+01 
    9.9066769974952216E+00 
    1.6722763185767302E+01 
    1.0537745793143721E+01 
    1.4086161407220827E+01 
    8.4254933449940062E+00 
    1.6866715144265392E+01 
    6.7020799076118376E+00 
    9.1981529612983213E+00 
    7.4765002476411118E+00 
    1.0763584384703877E+01 
    8.5830301303839764E+00 
    1.6850680366866193E+01 
    1.0584711521596446E+01 
    1.3394066845020591E+01 
    6.8907887377373003E+00 
    1.0130790359573592E+01 
    1.3926417031056403E+01 
    8.5981863051815814E+00 
    7.5292202563534207E+00 
    1.1193713839198089E+01 
    1.4145184036588091E+01 
    7.3830858321933412E+00 
    9.6410338191427023E+00 
    9.9373461402757748E+00 
    1.3653608435549424E+01 
    9.7347762470007808E+00 
    1.4122189760948949E+01 
    1.4731216697354686E+01 
    8.8465001441898892E+00 
    8.6891361254520927E+00 
    8.0069262832820502E+00 
    1.3796353497374675E+01 
    1.0399131806833006E+01 
    1.6442612416283382E+01 
    1.2928836960437645E+01 
    1.3888526935193344E+01 
    1.6136362629361031E+01 
    1.5553764690130041E+01 
    1.0178069429777119E+01 
    1.0096950086639644E+01 
    1.3444357705799474E+01 
    1.3714062899570440E+01 
    1.4257713481972708E+01 
    1.3983970219490272E+01 
    1.6742692483574150E+01 
    1.0537290700488436E+01 
    8.9403725227741599E+00 
    1.0545233284701984E+01 
    1.4646253370813966E+01 
    1.0279050132797934E+01 
    6.0417910237644437E+00 
    9.9872942706929226E+00 
    1.5054722357533837E+01 
    1.0419277808689683E+01 
    8.9449481434937272E+00 
    9.8774349887694957E+00 
    1.5158384719609028E+01 
    1.3730885663778219E+01 
    8.5515221757168298E+00 
    1.5292328685328032E+01 
    1.0207850790311788E+01 
    1.4225920565418102E+01 
    1.5172018727537699E+01 
    1.0696046242549958E+01 
    5.6758867650726081E+00 
    1.1149887283253916E+01 
    5.8591471937729969E+00 
    1.0334392962300686E+01 
    1.0122880147947946E+01 
    1.1731629919114557E+01 
    6.1647936960186778E+00 
    1.2441696562509406E+01 
    1.0142994515939442E+01 
    1.3972819992578225E+01 
    1.0714695182958321E+01 
    8.3798344795202500E+00 
    9.7504445679223100E+00 
    1.0601989822331987E+01 
    1.0639386567715643E+01 
    1.4789211451643883E+01 
    8.5824430078730316E+00 
    8.4458422202196868E+00 
    6.4545140813029871E+00 
    1.4276154652484145E+01 
    9.7923732271710850E+00 
    1.3534526078680864E+01 
    1.0092924647755799E+01 
    7.0076595015538201E+00 
    1.3765264194153625E+01 
    1.0068021744375434E+01 
    7.5866380385837440E+00 
    7.9979825608121073E+00 
    8.2560748295124142E+00 
    1.4006798584416373E+01 
    1.0113118136719208E+01 
    1.4615978152844392E+01 
    1.0026147066696767E+01 
    9.9633191682220978E+00 
    9.5643969161386657E+00 
    1.3846143312397565E+01 
    9.8789753902861417E+00 
    8.2947180013603976E+00 
    1.5540646345113469E+01 
    1.3927143074336042E+01 
    7.0153674655772233E+00 
    2.8834372920581139E+00 
    1.0102961734038603E+01 
    9.4757719235595506E+00 
    8.6859694432938159E+00 
    9.3819954786217359E+00 
    1.3874936957677480E+01 
    9.8298997931320393E+00 
    8.9882269509251351E+00 
    1.3735819638642139E+01 
    6.9558012503627262E+00 
    1.3406780720546463E+01 
    9.1500623117989264E+00 
    8.2597879768690703E+00 
    8.7594103276551536E+00 
    1.4308905965871535E+01 
    1.0110480276422184E+01 
    1.0118616921906826E+01 
    6.2425676884147379E+00 
    6.7021460860931139E+00 
    1.2772326500499517E+01 
    1.0128499347613698E+01 
    1.0141233212386448E+01 
    1.5276706125560194E+01 
    8.4426853603526126E+00 
    1.0140911199267331E+01 
    7.1943536987363315E+00 
    7.4242681459917446E+00 
    1.3844760552053968E+01 
    9.7651157542369926E+00 
    7.3286623373130295E+00 
    1.0685180575044113E+01 
    1.0013251225390624E+01 
    1.3845949645484552E+01 
    1.5366905207234232E+01 
    1.1057057239085304E+00 
    1.0107593409828809E+01 
    1.0377675934116406E+01 
    1.3905270115807928E+01 
    9.6372345993438042E+00 
    1.0084078310229868E+01 
    1.4851132402919765E+01 
    8.7887022533708894E+00 
    7.3886205716910629E+00 
    1.2168261044111251E+01 
    1.3690961846909126E+01 
    1.4702857752786544E+01 
    1.4958077960517636E+01 
    9.9590085931349552E+00 
    1.0099774626797245E+01 
    1.1372841393616151E+01 
    6.6804163494519502E+00 
    1.3814846746171625E+01 
    7.9139603508218013E+00 
    6.9451759643512565E+00 
    1.2647850216457849E+01 
    1.1925566252057093E+01 
    6.8147507927106066E+00 
    1.3726594083960212E+01 
    1.4688417464723171E+01 
    1.0552735004785557E+01 
    1.5465312170658502E+01 
    1.3759263576488877E+01 
    9.7055622656793314E+00 
    1.4429688598014078E+01 
    7.4241531021915783E+00 
    1.3708672390244685E+01 
    1.0106690987393909E+01 
    1.0069226401044245E+01 
    1.5441677690851714E+01 
    9.8267988863528775E+00 
    1.2387650921970401E+01 
    8.7409922272497731E+00 
    1.4802935690111726E+01 
    1.3617790608816263E+01 
    9.0867862439075271E+00 
    1.3667439047902151E+01 
    9.1432157556716298E+00 
    1.0093461002490461E+01 
    1.4648521860098530E+01 
    1.3986245248644737E+01 
    1.4691705869867107E+01 
    1.3909427218939646E+01 
    9.2781536841948853E+00 
    9.4824476510572833E+00 
    1.4698134246206152E+01 
    9.5972613360106944E+00 
    1.3548393982498764E+01 
    9.8147923811988296E+00 
    4.2534419814724016E+00 
    7.0116154775521409E+00 
    6.5040226107663219E+00 
    1.4651782980107319E+01 
    1.5372659663055209E+01 
    1.3685196421294938E+01 
    1.1642743300180577E+01 
    1.3971615948625791E+01 
    1.3732811455256998E+01 
    1.4306305142880246E+01 
    6.0453153300037776E+00 
    3.9623093302760712E+00 
    1.1434986017399941E+01 
    9.7856263203426899E+00 
    1.3876705445450160E+01 
    1.3874375597168049E+01 
    1.0402271485987225E+01 
    1.3910527925939846E+01 
    1.0094450060098053E+01 
    1.0003579147820396E+01 
    5.4770978726189536E+00 
    3.9441146158975595E+00 
    1.5153762040157092E+01 
    7.8852411978893455E+00 
    9.0233101849319386E+00 
    1.0290981360096119E+01 
    1.6723931358628146E+01 
    1.0386981627805879E+01 
    1.0381959289701282E+01 
    4.4741598136580514E+00 
    1.0388580146926651E+01 
    1.0403133802168860E+01 
    1.4195126366532158E+01 
    8.7659517953844066E+00 
    9.6667692310269100E+00 
    1.5318725477616152E+01 
    1.0115439168785571E+01 
    1.3700928785499560E+01 
    1.3951369582337968E+01 
    1.2396542639100371E+01 
    8.5746364893270126E+00 
    1.3910192829427475E+01 
    9.9185676782113283E+00 
    1.3875080286017610E+01 
    1.3640299295768529E+01 
    1.4670828617598280E+01 
    1.3904306213482327E+01 
    1.3050679493320363E+01 
    1.0104913825228271E+01 
    6.7586933463949395E+00 
    1.6600655268038366E+01 
    8.0663009114464810E+00 
    1.4594012120376904E+01 
    1.0102442399834556E+01 
    8.4920404455759186E+00 
    5.1629439377057498E+00 
    1.0440841443426569E+01 
    1.3895535639681096E+01 
    1.3894870157627352E+01 
    1.0074088635135993E+01 
    1.0096878615024552E+01 
    1.5521644161789972E+01 
    1.4902586599460845E+01 
    1.0405256845122839E+01 
    3.6873463441141814E+00 
    1.3006879649254856E+01 
    1.6848747993119581E+01 
    1.0108080848799190E+01 
    1.2007702794918591E+01 
    9.6348155955095915E+00 
    1.6462539724820033E+01 
    1.4981934090972723E+01 
    1.4746405431836148E+01 
    1.0426737338577142E+01 
    4.8090929618688909E+00 
    9.5962781757862210E+00 
    9.6579468701318660E+00 
    9.7000148127555370E+00 
    4.0120730587336686E+00 