# vtk DataFile Version 2.0
Pressure Field Data 
ASCII 
DATASET UNSTRUCTURED_GRID 

POINTS 2860 double 

    0.0000000000000000E+00     0.0000000000000000E+00     0.0000000000000000E+00 
    1.0000000000000000E+00     0.0000000000000000E+00     0.0000000000000000E+00 
    1.0000000000000000E+00     1.0000000000000000E+00     0.0000000000000000E+00 
    0.0000000000000000E+00     1.0000000000000000E+00     0.0000000000000000E+00 
    2.5000000000000000E-01     2.5000000000000000E-01     0.0000000000000000E+00 
    7.5000000000000000E-01     2.5000000000000000E-01     0.0000000000000000E+00 
    7.5000000000000000E-01     7.5000000000000000E-01     0.0000000000000000E+00 
    2.5000000000000000E-01     7.5000000000000000E-01     0.0000000000000000E+00 
    3.1249999999942091E-02     0.0000000000000000E+00     0.0000000000000000E+00 
    6.2499999999873469E-02     0.0000000000000000E+00     0.0000000000000000E+00 
    9.3749999999826514E-02     0.0000000000000000E+00     0.0000000000000000E+00 
    1.2499999999977961E-01     0.0000000000000000E+00     0.0000000000000000E+00 
    1.5624999999968961E-01     0.0000000000000000E+00     0.0000000000000000E+00 
    1.8749999999959971E-01     0.0000000000000000E+00     0.0000000000000000E+00 
    2.1874999999950970E-01     0.0000000000000000E+00     0.0000000000000000E+00 
    2.4999999999941969E-01     0.0000000000000000E+00     0.0000000000000000E+00 
    2.8124999999932920E-01     0.0000000000000000E+00     0.0000000000000000E+00 
    3.1249999999923850E-01     0.0000000000000000E+00     0.0000000000000000E+00 
    3.4374999999914790E-01     0.0000000000000000E+00     0.0000000000000000E+00 
    3.7499999999905720E-01     0.0000000000000000E+00     0.0000000000000000E+00 
    4.0624999999896660E-01     0.0000000000000000E+00     0.0000000000000000E+00 
    4.3749999999887590E-01     0.0000000000000000E+00     0.0000000000000000E+00 
    4.6874999999878530E-01     0.0000000000000000E+00     0.0000000000000000E+00 
    4.9999999999869471E-01     0.0000000000000000E+00     0.0000000000000000E+00 
    5.3124999999877620E-01     0.0000000000000000E+00     0.0000000000000000E+00 
    5.6249999999885780E-01     0.0000000000000000E+00     0.0000000000000000E+00 
    5.9374999999893940E-01     0.0000000000000000E+00     0.0000000000000000E+00 
    6.2499999999902101E-01     0.0000000000000000E+00     0.0000000000000000E+00 
    6.5624999999910261E-01     0.0000000000000000E+00     0.0000000000000000E+00 
    6.8749999999918421E-01     0.0000000000000000E+00     0.0000000000000000E+00 
    7.1874999999926570E-01     0.0000000000000000E+00     0.0000000000000000E+00 
    7.4999999999934730E-01     0.0000000000000000E+00     0.0000000000000000E+00 
    7.8124999999942890E-01     0.0000000000000000E+00     0.0000000000000000E+00 
    8.1249999999951039E-01     0.0000000000000000E+00     0.0000000000000000E+00 
    8.4374999999959199E-01     0.0000000000000000E+00     0.0000000000000000E+00 
    8.7499999999967359E-01     0.0000000000000000E+00     0.0000000000000000E+00 
    9.0624999999975520E-01     0.0000000000000000E+00     0.0000000000000000E+00 
    9.3749999999983680E-01     0.0000000000000000E+00     0.0000000000000000E+00 
    9.6874999999991840E-01     0.0000000000000000E+00     0.0000000000000000E+00 
    1.0000000000000000E+00     3.1249999999942091E-02     0.0000000000000000E+00 
    1.0000000000000000E+00     6.2499999999873469E-02     0.0000000000000000E+00 
    1.0000000000000000E+00     9.3749999999826514E-02     0.0000000000000000E+00 
    1.0000000000000000E+00     1.2499999999977961E-01     0.0000000000000000E+00 
    1.0000000000000000E+00     1.5624999999968961E-01     0.0000000000000000E+00 
    1.0000000000000000E+00     1.8749999999959971E-01     0.0000000000000000E+00 
    1.0000000000000000E+00     2.1874999999950970E-01     0.0000000000000000E+00 
    1.0000000000000000E+00     2.4999999999941969E-01     0.0000000000000000E+00 
    1.0000000000000000E+00     2.8124999999932920E-01     0.0000000000000000E+00 
    1.0000000000000000E+00     3.1249999999923850E-01     0.0000000000000000E+00 
    1.0000000000000000E+00     3.4374999999914790E-01     0.0000000000000000E+00 
    1.0000000000000000E+00     3.7499999999905720E-01     0.0000000000000000E+00 
    1.0000000000000000E+00     4.0624999999896660E-01     0.0000000000000000E+00 
    1.0000000000000000E+00     4.3749999999887590E-01     0.0000000000000000E+00 
    1.0000000000000000E+00     4.6874999999878530E-01     0.0000000000000000E+00 
    1.0000000000000000E+00     4.9999999999869471E-01     0.0000000000000000E+00 
    1.0000000000000000E+00     5.3124999999877620E-01     0.0000000000000000E+00 
    1.0000000000000000E+00     5.6249999999885780E-01     0.0000000000000000E+00 
    1.0000000000000000E+00     5.9374999999893940E-01     0.0000000000000000E+00 
    1.0000000000000000E+00     6.2499999999902101E-01     0.0000000000000000E+00 
    1.0000000000000000E+00     6.5624999999910261E-01     0.0000000000000000E+00 
    1.0000000000000000E+00     6.8749999999918421E-01     0.0000000000000000E+00 
    1.0000000000000000E+00     7.1874999999926570E-01     0.0000000000000000E+00 
    1.0000000000000000E+00     7.4999999999934730E-01     0.0000000000000000E+00 
    1.0000000000000000E+00     7.8124999999942890E-01     0.0000000000000000E+00 
    1.0000000000000000E+00     8.1249999999951039E-01     0.0000000000000000E+00 
    1.0000000000000000E+00     8.4374999999959199E-01     0.0000000000000000E+00 
    1.0000000000000000E+00     8.7499999999967359E-01     0.0000000000000000E+00 
    1.0000000000000000E+00     9.0624999999975520E-01     0.0000000000000000E+00 
    1.0000000000000000E+00     9.3749999999983680E-01     0.0000000000000000E+00 
    1.0000000000000000E+00     9.6874999999991840E-01     0.0000000000000000E+00 
    9.6875000000003686E-01     1.0000000000000000E+00     0.0000000000000000E+00 
    9.3750000000011691E-01     1.0000000000000000E+00     0.0000000000000000E+00 
    9.0625000000015765E-01     1.0000000000000000E+00     0.0000000000000000E+00 
    8.7500000000017863E-01     1.0000000000000000E+00     0.0000000000000000E+00 
    8.4375000000028044E-01     1.0000000000000000E+00     0.0000000000000000E+00 
    8.1250000000040856E-01     1.0000000000000000E+00     0.0000000000000000E+00 
    7.8125000000054956E-01     1.0000000000000000E+00     0.0000000000000000E+00 
    7.5000000000066480E-01     1.0000000000000000E+00     0.0000000000000000E+00 
    7.1875000000086831E-01     1.0000000000000000E+00     0.0000000000000000E+00 
    6.8750000000102829E-01     1.0000000000000000E+00     0.0000000000000000E+00 
    6.5625000000114431E-01     1.0000000000000000E+00     0.0000000000000000E+00 
    6.2500000000129829E-01     1.0000000000000000E+00     0.0000000000000000E+00 
    5.9375000000147926E-01     1.0000000000000000E+00     0.0000000000000000E+00 
    5.6250000000168354E-01     1.0000000000000000E+00     0.0000000000000000E+00 
    5.3125000000188671E-01     1.0000000000000000E+00     0.0000000000000000E+00 
    5.0000000000205835E-01     1.0000000000000000E+00     0.0000000000000000E+00 
    4.6875000000192979E-01     1.0000000000000000E+00     0.0000000000000000E+00 
    4.3750000000180111E-01     1.0000000000000000E+00     0.0000000000000000E+00 
    4.0625000000167238E-01     1.0000000000000000E+00     0.0000000000000000E+00 
    3.7500000000154382E-01     1.0000000000000000E+00     0.0000000000000000E+00 
    3.4375000000141509E-01     1.0000000000000000E+00     0.0000000000000000E+00 
    3.1250000000128642E-01     1.0000000000000000E+00     0.0000000000000000E+00 
    2.8125000000115769E-01     1.0000000000000000E+00     0.0000000000000000E+00 
    2.5000000000102918E-01     1.0000000000000000E+00     0.0000000000000000E+00 
    2.1875000000090050E-01     1.0000000000000000E+00     0.0000000000000000E+00 
    1.8750000000077180E-01     1.0000000000000000E+00     0.0000000000000000E+00 
    1.5625000000064329E-01     1.0000000000000000E+00     0.0000000000000000E+00 
    1.2500000000051459E-01     1.0000000000000000E+00     0.0000000000000000E+00 
    9.3750000000385914E-02     1.0000000000000000E+00     0.0000000000000000E+00 
    6.2500000000257239E-02     1.0000000000000000E+00     0.0000000000000000E+00 
    3.1250000000128557E-02     1.0000000000000000E+00     0.0000000000000000E+00 
    0.0000000000000000E+00     9.6875000000003686E-01     0.0000000000000000E+00 
    0.0000000000000000E+00     9.3750000000011691E-01     0.0000000000000000E+00 
    0.0000000000000000E+00     9.0625000000015765E-01     0.0000000000000000E+00 
    0.0000000000000000E+00     8.7500000000017863E-01     0.0000000000000000E+00 
    0.0000000000000000E+00     8.4375000000028044E-01     0.0000000000000000E+00 
    0.0000000000000000E+00     8.1250000000040856E-01     0.0000000000000000E+00 
    0.0000000000000000E+00     7.8125000000054956E-01     0.0000000000000000E+00 
    0.0000000000000000E+00     7.5000000000066480E-01     0.0000000000000000E+00 
    0.0000000000000000E+00     7.1875000000086831E-01     0.0000000000000000E+00 
    0.0000000000000000E+00     6.8750000000102829E-01     0.0000000000000000E+00 
    0.0000000000000000E+00     6.5625000000114431E-01     0.0000000000000000E+00 
    0.0000000000000000E+00     6.2500000000129829E-01     0.0000000000000000E+00 
    0.0000000000000000E+00     5.9375000000147926E-01     0.0000000000000000E+00 
    0.0000000000000000E+00     5.6250000000168354E-01     0.0000000000000000E+00 
    0.0000000000000000E+00     5.3125000000188671E-01     0.0000000000000000E+00 
    0.0000000000000000E+00     5.0000000000205835E-01     0.0000000000000000E+00 
    0.0000000000000000E+00     4.6875000000192979E-01     0.0000000000000000E+00 
    0.0000000000000000E+00     4.3750000000180111E-01     0.0000000000000000E+00 
    0.0000000000000000E+00     4.0625000000167238E-01     0.0000000000000000E+00 
[...]
CELL_DATA 2795 
SCALARS Pressure double 1 
LOOKUP_TABLE default 

    6.7328859201324649E+00 
    1.4540950248099458E+01 
    1.0306645056483523E+01 
    9.9776527886319375E+00 
    8.1208861910780303E+00 
    1.4406429651809603E+01 
    1.5129202580478841E+01 
    6.0729741078980179E+00 
    1.0868832941502975E+01 
    8.3065924567840401E+00 
    7.0898143946246996E+00 
    1.4153598943151676E+01 
    1.4463764694678783E+01 
    1.4376654076260289E+01 
    9.4898195593448573E+00 
    5.9778825161739446E+00 
    9.2668131565374043E+00 
    7.5437028341903485E+00 
    1.3795187675915820E+01 
    1.0293473206799401E+01 
    1.0187178971916239E+01 
    1.4310990164932818E+01 
    9.7304505417962801E+00 
    3.9892178112405985E-01 
    1.4163205674992813E+01 
    1.4418098522455368E+01 
    1.5160695736210890E+01 
    6.8534243198789211E+00 
    1.4075116879748629E+01 
    1.5146852570373854E+01 
    1.0401402441298702E+01 
    1.0510290048457115E+01 
    7.4339655782600147E+00 
    1.0268688830714220E+01 
    3.4566771342280935E+00 
    9.2679822071356455E+00 
    1.0256730561977408E+01 
    1.5185646697062113E+01 
    1.5106771267518798E+01 
    1.4166490224179652E+01 
    8.0767732003890504E+00 
    1.4129657812569407E+01 
    8.3632629109726497E-01 
    1.0204340856105254E+01 
    1.4958226708430782E+01 
    1.4745692301853717E+01 
    1.4142997662187016E+01 
    1.1220027580605057E+01 
    1.4211700987464805E+01 
    9.4627089833951548E+00 
    9.0559462252345568E+00 
    1.0475574770369478E+01 
    1.0107220274261348E+01 
    9.3214160048327663E+00 
    1.0469167678949370E+01 
    1.3588010580107806E+01 
    1.2167245244949068E+01 
    8.1614923910637760E+00 
    1.4315910030368892E+01 
    1.4240301761424327E+01 
    9.9778901088433862E+00 
    9.9108014474332862E+00 
    9.8876819473297921E+00 
    1.5051150641349999E+01 
    1.5334926325877838E+01 
    9.2804572271216301E+00 
    1.0474478006913744E+01 
    1.4041816186505326E+01 
    1.2038858874467042E+01 
    9.9533840200088211E+00 
    1.5317351435875645E+01 
    1.4270379306765605E+01 
    9.1603428751329261E+00 
    1.4856144112314480E+01 
    1.0691497838749656E+01 
    1.4011683609779146E+01 
    1.5205068566727578E+01 
    1.0734264029035716E+01 
    6.9333735803676007E+00 
    1.0492877717931629E+01 
    1.5115173631494415E+01 
    1.5338919676805853E+01 
    9.2881966767505091E+00 
    1.0411355135512496E+01 
    1.5386177969392865E+01 
    1.0258207811032694E+01 
    9.8104158335318363E+00 
    1.2460963927280860E+01 
    6.6147608359998777E+00 
    9.0814809802398706E+00 
    1.0410241939594123E+01 
    1.1030471190838547E+01 
    1.6813792625606375E+01 
    7.9099611170811590E+00 
    1.0482473877593815E+01 
    1.4121417401445399E+01 
    1.4413176409971113E+01 
    7.0479341836366478E+00 
    1.0125784728688854E+01 
    1.0441784743757337E+01 
    1.4433997725668128E+01 
    1.0439842157562332E+01 
    1.4364240934158653E+01 
    4.3538358854473431E+00 
    6.8906496197597340E+00 
    1.0703275825615002E+01 
    1.4548359046040241E+01 
    9.2353699253670385E+00 
    9.7731591377879958E+00 
    1.0422584570069354E+01 
    9.7827348549369990E+00 
    1.1789041398481885E+01 
    9.5304057300228280E+00 
    9.1662352828732594E+00 
    7.4283903187613785E+00 
    1.2224885306571204E+01 
    1.0513207626095353E+01 
    1.4967217475356888E+01 
    9.0216402562285154E+00 
    9.9619158539753698E+00 
    1.4253923722973482E+01 
    8.4790158049179567E+00 
    1.4709998365928158E+01 
    1.0335040510587607E+01 
    9.8969968301396936E+00 
    1.4414849895121238E+01 
    1.0505339232072243E+01 
    1.5211825955809635E+01 
    1.2476404092206797E+01 
    1.3433166463122397E+01 
    1.5177345654149459E+01 
    7.9243667361815708E+00 
    1.0732035704882419E+01 
    1.4405348226351158E+01 
    3.2518635202890369E+00 
    1.0448460705893600E+01 
    1.5144159164725728E+01 
    9.9244004188655719E+00 
    1.1380676916001500E+01 
    7.0493286617269746E+00 
    1.4119652872355156E+01 
    1.7286958382748235E+01 
    1.2945777602947537E+01 
    9.9227859089381028E+00 
    8.9837739715476204E+00 
    1.1077049211041398E+01 
    1.0352190890339342E+01 
    7.1668580312381716E+00 
    1.5171338986996579E+01 
    1.4457532898258846E+01 
    1.4123124979863126E+01 
    1.1027271331504615E+01 
    9.1383569324816172E+00 
    1.0184612827007456E+01 
    1.4884521422609113E+01 
    9.3598950504159646E+00 
    1.0365386894404145E+01 
    9.5114106366613047E+00 
    1.1978461966027606E+01 
    1.7275452455820822E+01 
    1.4114653906577864E+01 
    9.1233695813515379E+00 
    1.4607710833069548E+01 
    1.4507878243624564E+01 
    1.4587614672499933E+01 
    1.5580410731973876E+01 
    1.6111070587670085E+01 
    1.4746882971304823E+01 
    1.0466174487701636E+01 
    1.1249154938711584E+01 
    1.4578354061157873E+01 
    1.4981929862969002E+01 
    7.4593325377801669E+00 
    1.4142513639714357E+01 
    1.4848677226795653E+01 
    7.2776076673030055E+00 
    1.5496042285278955E+01 
    1.5480258301906016E+01 
    1.3863120380935205E+01 
    1.0804181521639153E+01 
    2.8229136524506822E+00 
    1.5143188212011927E+01 
    1.0642106633393018E+01 
    1.5270813507012820E+01 
    9.8618227167680708E+00 
    1.4984413957326234E+01 
    1.0355211177183097E+00 
    1.3444392337741400E+01 
    9.9547549219713556E+00 
    9.0989823850197560E+00 
    8.8891986980330948E+00 
    1.0303944931970074E+01 
    1.1432208443624097E+01 
    1.0761732534351635E+01 
    7.5452153879967154E+00 
    1.4972909536258820E+01 
    1.4427577784017947E+01 
    1.2165695522713840E+01 
    1.0698461987707850E+01 
    1.6532462717635243E+00 
    8.2599915599039946E+00 
    5.9227856326366419E+00 
    1.5159224675078853E+01 
    1.1525952970379466E+01 
    1.4478882030493477E+01 
    1.4495589474375150E+01 
    9.4386081100046830E+00 
    1.2040759796082305E+01 
    1.4118112353819424E+01 
    1.5467193357211070E+01 
    7.0008016567035378E+00 
    1.2785904361409543E+01 
    1.0760918475515528E+01 
    6.3130144477680465E+00 
    9.4270012233434333E+00 
    1.2612432334329725E+01 
    1.4456171045574305E+01 
    1.0358270412365584E+01 
    1.4566423894869374E+01 
    1.4332052882632693E+01 
    1.4280244848756634E+01 
    1.0190133090721663E+01 
    9.0248147424104683E+00 
    1.4131194497191546E+01 
    9.1561385380110867E+00 
    1.0445410882288639E+01 
    8.9971109378268697E+00 
    1.0319257695655494E+01 
    1.4505734767871658E+01 
    6.5048586283755139E+00 
    9.3449045259365118E+00 
    1.5077077465987143E+01 
    1.0201756398993579E+01 
    1.1427168776967228E+01 
    6.6702062043232413E+00 
    9.2105784905103434E+00 
    1.4310666358085051E+01 
    1.4621802414426002E+01 
    5.4708649485472121E+00 
    1.0209024033278869E+01 
    9.0433378857221101E+00 
    1.5882856508697829E+01 
    1.5349788822377237E+01 
    1.6137262460147749E+01 
    1.0229643240400305E+01 
    1.4477100223166804E+01 
    1.4074246257933916E+01 
    1.0098409898383112E+01 
    1.4123376281086371E+01 
    1.0699011781673310E+01 
    6.3962496441485595E+00 
    1.0483793746531623E+01 
    1.5063278445113887E+01 
    1.4120193181466336E+01 
    7.0650883345158801E+00 
    1.4149418553272859E+01 
    1.1450301234089983E+01 
    1.0430448036850501E+01 
    9.9954058220505839E+00 
    1.3988289635271054E+01 
    1.0922247491025267E+01 
    1.4136311831901873E+01 
    1.0144903553738249E+01 
    6.5984780604950632E+00 
    1.0518278851157856E+01 
    8.8958568056261225E+00 
    1.2953583594071963E+01 
    1.5261220671353287E+01 
    1.4129464747191900E+01 
    1.5137268437063096E+01 
    1.0147696250071515E+01 
    6.8841111610167376E+00 
    6.9737691872597933E+00 
    1.0606308776936363E+01 
    1.0420523265137897E+01 
    1.5915068999556223E+00 
    1.3632598541020329E+01 
    1.5620114025280571E+01 
    9.8735693753340144E+00 
    6.6209723865001875E+00 
    1.1921129477722937E+01 
    1.4147951066538786E+01 
    7.6902986163589437E+00 
    5.3240674714639988E+00 
    1.0398655638117274E+01 
    1.4227224172528580E+01 
    1.4880297728741912E+01 
    1.4776203418618179E+01 
    1.4623924508567171E+01 
    7.5507462634275226E+00 
    1.0423464263950720E+01 
    1.3674357186288010E+01 
    8.1562624150418568E+00 
    1.4450065688080707E+01 
    1.2266227296953563E+01 
    7.0681336366859489E+00 
    1.4254632347995994E+01 
    1.5159658113855231E+01 
    1.4282914107220563E+01 
    7.4280587147266006E+00 
    1.0470628123074928E+01 
    8.0977767126317595E+00 
    9.8806787105995788E+00 
    1.4139508965362456E+01 
    1.4127849946431757E+01 
    7.4685446426734314E+00 
    1.5020977138748293E+01 
    1.1011971228464146E+01 
    1.4160586567451720E+01 
    1.5000466089571015E+01 
    1.4148264530226296E+01 
    1.3188005272488887E+01 
    1.5935590128650082E+01 
    9.8341686709230718E+00 
    1.5106738651427353E+01 
    1.4187882046861720E+01 
    1.5178932137408403E+01 
    1.5013562217296620E+01 
    9.9260410452606820E+00 
    1.0297660995514358E+01 
    9.8646061148352366E+00 
    1.2691087311815100E+01 
    4.3626231038390992E+00 
    1.0545607703161691E+01 
    1.6058862038388540E+01 
    1.0699065572073133E+01 
    1.0887427544195997E+01 
    1.5151876827163425E+01 
    1.5384500115094351E+01 
    9.7726006664766221E+00 
    1.4153723818702105E+01 
    1.4124293913419882E+01 
    1.0874945401556976E+01 
    1.4968361096785932E+01 
    7.4247935322302823E+00 
    4.7801625608747020E+00 
    1.1157644983873560E+01 
    1.0713884701006783E+01 
    1.4129542582178779E+01 
    7.0296731067448963E+00 
    1.4692058956412806E+01 
    4.8903325363948245E+00 
    1.0647363867635722E+01 
    9.9647586752784960E+00 
    1.0447199102577146E+01 
    1.7324603184345687E+01 
    4.2405908272427189E+00 
    1.0465616738983021E+01 
    1.2432688018463500E+01 
    1.0049191788182508E+01 
    8.2038101633048282E+00 
    1.4799400066725802E+01 
    1.6904283588157302E+01 
    1.4954836492742675E+01 
    1.0408800888065445E+01 
    6.2702587246912991E+00 
    1.6754252891715893E+01 
    1.4419219674725641E+01 
    7.8861509353112318E+00 
    1.0060057092078837E+01 
    1.5563044920077001E+01 
    3.5997157303111011E+00 
    1.0764053687068346E+01 
    1.4936406357159454E+01 
    1.0460963664462010E+01 
    9.1086518863717902E+00 
    1.0504093076584530E+01 
    1.3892773038110318E+01 
    1.0442206266223057E+01 
    5.5954244364737971E+00 
    1.0235430829834464E+00 
    7.7911213388204930E+00 
    1.5776850702504435E+01 
    9.8629451418622232E+00 
    1.1706849814144070E+01 
    1.1219935218058287E+01 
    1.2912977439225690E+01 
    1.0474451827993288E+01 
    1.4328560432678399E+01 
    1.7338447394623156E+01 
    1.2371434793612822E+01 
    1.5078961083543581E+01 
    5.9584821680148747E-01 
    1.4129782921472275E+01 
    6.1772402667975763E+00 
    1.6223597208286968E+01 
    1.0478795946770157E+01 
    9.2659908761461178E+00 
    8.2437135740997576E+00 
    5.8381012128205994E+00 
    1.1680782793067886E+01 
    8.2468387082307437E+00 
    1.2848113636754395E+01 
    2.3856293085904730E+00 
    1.1485618841753547E+01 
    1.4061970353563950E+01 
    6.3332046304208900E+00 
    1.4608822680177353E+01 
    1.6039617918455328E+01 
    1.4444988305471711E+01 
    1.0350745491043622E+01 
    1.0441759109370642E+01 
    1.0471743623013722E+01 
    6.3224395263952378E+00 
    9.6113761719899102E+00 
    9.4669239599728083E+00 
    1.0461155572607890E+01 
    9.8027536364940637E+00 
    7.6631646938113440E-01 
    7.0641162616700983E+00 
    1.0171994746959538E+01 
    1.0437316195510553E+01 
    1.3194474758581499E+01 
    2.3578345842093209E+00 
    1.0834488770646367E+01 
    1.0718604344680356E+01 
    4.0764494730446952E+00 
    1.4311068157587874E+01 
    9.1710676953266717E+00 
    1.0576682413848296E+01 
    1.4420555209420730E+01 
    5.8838645475308180E+00 
    1.4426131506690444E+01 
    9.2765259000418876E+00 
    1.0739359696456894E+00 
    9.9209232551019717E+00 
    1.5033056809479268E+01 
    1.4129931049219332E+01 
    1.4149195888411324E+01 
    1.0804977341227341E+01 
    1.0650529209437375E+01 
    9.1530507487968986E+00 
    7.5937609482534114E+00 
    1.4539157519667700E+01 
    1.0056527467233563E+01 
    7.3876081866052177E+00 
    1.4144108013218190E+01 
    1.4838983883857477E+01 
    1.0627913636548081E+01 
    1.0249607948933386E+01 
    1.7221654064755644E+01 
    1.0875834741748681E+01 
    1.4547002366317294E+01 
    8.7452064173754511E+00 
    1.7366391032300584E+01 
    6.9328429740318489E+00 
    9.5325206509416152E+00 
    7.7320859555262951E+00 
    1.1107261018236331E+01 
    8.8805586752001471E+00 
    1.7350303652665581E+01 
    1.0923949113087266E+01 
    1.3833355548619718E+01 
    7.1282650260687488E+00 
    1.0470535816708356E+01 
    1.4383485920468786E+01 
    8.8915924569573050E+00 
    7.8405859378366642E+00 
    1.1582405629498949E+01 
    1.4609590889647627E+01 
    7.6349699597637342E+00 
    9.9840032341381217E+00 
    1.0281410844144920E+01 
    1.4105477453917400E+01 
    1.0074242329505545E+01 
    1.4585072635776946E+01 
    1.5207777158221070E+01 
    9.1781943999245978E+00 
    9.0164298319406537E+00 
    8.2791110288286198E+00 
    1.4250442205345461E+01 
    1.0737907394110632E+01 
    1.6940266167671524E+01 
    1.3325003578950787E+01 
    1.4344430917422537E+01 
    1.6631002896962158E+01 
    1.6042012876473482E+01 
    1.0517211536059870E+01 
    1.0446712040930068E+01 
    1.3889214467513691E+01 
    1.4167439134189747E+01 
    1.4721653159992774E+01 
    1.4442174137197268E+01 
    1.7242110807848707E+01 
    1.0875366402177296E+01 
    9.2748307758978434E+00 
    1.0882583526088105E+01 
    1.5121166938145729E+01 
    1.0614113613544296E+01 
    6.2405852698622031E+00 
    1.0335473338759858E+01 
    1.5537210745772732E+01 
    1.0754546146774510E+01 
    9.2796238703061125E+00 
    1.0221687226015964E+01 
    1.5642383430643502E+01 
    1.4182851017155228E+01 
    8.8769193936959283E+00 
    1.5778207409457165E+01 
    1.0546322348994520E+01 
    1.4691188843315640E+01 
    1.5656089717198070E+01 
    1.1036495365566747E+01 
    5.8963082463535805E+00 
    1.1510756345375155E+01 
    6.0938463544013510E+00 
    1.0666047725470678E+01 
    1.0463304904839251E+01 
    1.2124485974466232E+01 
    6.4155526745868219E+00 
    1.2855858648385034E+01 
    1.0482717528497231E+01 
    1.4430891632301650E+01 
    1.1094250930983165E+01 
    8.7112144359710530E+00 
    1.0092006464406024E+01 
    1.0954407701127153E+01 
    1.0979854433626784E+01 
    1.5267524152102510E+01 
    8.9066431056118489E+00 
    8.7660209957903668E+00 
    6.7136156133310267E+00 
    1.4742198243521880E+01 
    1.0134886450021888E+01 
    1.3981275849347030E+01 
    1.0433197991248994E+01 
    7.2839996420599498E+00 
    1.4218020054851147E+01 
    1.0408610334054400E+01 
    7.8806808061426112E+00 
    8.3044836782571050E+00 
    8.5702114296468146E+00 
    1.4465280354944106E+01 
    1.0463058680395422E+01 
    1.5090301700993908E+01 
    1.0367220753996564E+01 
    1.0304822497117698E+01 
    9.9066135463286891E+00 
    1.4300984027239117E+01 
    1.0220162494861910E+01 
    8.6098569119751271E+00 
    1.6028841541262615E+01 
    1.4384091960356480E+01 
    7.2566961624804911E+00 
    2.9831315630086510E+00 
    1.0452866024216583E+01 
    9.8080127965901305E+00 
    9.0129978694698156E+00 
    9.7209316112900233E+00 
    1.4332346005778431E+01 
    1.0176201596782059E+01 
    9.3210282202488521E+00 
    1.4189626192366839E+01 
    7.1937564723261218E+00 
    1.3851264419461531E+01 
    9.4658853962770149E+00 
    8.5796452880099938E+00 
    9.0887980330767011E+00 
    1.4776256330413659E+01 
    1.0450100752631853E+01 
    1.0458297182695036E+01 
    6.4879784584566549E+00 
    6.9638218755248049E+00 
    1.3163455482599074E+01 
    1.0468182718876390E+01 
    1.0491359258644547E+01 
    1.5762767383923348E+01 
    8.7625608374362152E+00 
    1.0480568137476828E+01 
    7.4408757129002661E+00 
    7.6783578830780259E+00 
    1.4299585697276957E+01 
    1.0103842322330243E+01 
    7.6114621095545614E+00 
    1.1037939054888467E+01 
    1.0356226066972726E+01 
    1.4300810387985404E+01 
    1.5853937122218781E+01 
    1.1391040028399515E+00 
    1.0457537121448789E+01 
    1.0711886287063532E+01 
    1.4361611740300397E+01 
    9.9876849031040944E+00 
    1.0423469244323591E+01 
    1.5329207420984398E+01 
    9.1189578569793053E+00 
    7.6738735427706857E+00 
    1.2544238346829580E+01 
    1.4143672451965701E+01 
    1.5178770725407796E+01 
    1.5438170101544840E+01 
    1.0307535822926825E+01 
    1.0449589085397024E+01 
    1.1745946605343610E+01 
    6.9150528406054859E+00 
    1.4270845074272437E+01 
    8.2160022652386484E+00 
    7.1839238004198140E+00 
    1.3043128549585404E+01 
    1.2319138540920758E+01 
    7.0516739530051318E+00 
    1.4179905939949588E+01 
    1.5164132420079717E+01 
    1.0891186721920109E+01 
    1.5953623852092299E+01 
    1.4213441107454679E+01 
    1.0053763186488542E+01 
    1.4900937866824394E+01 
    7.6795776422509352E+00 
    1.4161903826853500E+01 
    1.0456600299010635E+01 
    1.0419133927902637E+01 
    1.5929717679154463E+01 
    1.0170656373757533E+01 
    1.2796778189292226E+01 
    9.0697001371095016E+00 
    1.5280797607936993E+01 
    1.4068682632040995E+01 
    9.4247264628804093E+00 
    1.4119462741325371E+01 
    9.4559670994743534E+00 
    1.0432447667131306E+01 
    1.5123431641896648E+01 
    1.4445209239926534E+01 
    1.5167455280153318E+01 
    1.4365889930139112E+01 
    9.6222490236620573E+00 
    9.8266883824015849E+00 
    1.5174059957387968E+01 
    9.9436962583847937E+00 
    1.3996039380087156E+01 
    1.0157478127396574E+01 
    4.4027745035769739E+00 
    7.2514484599632878E+00 
    6.7291979030108884E+00 
    1.5126791942626793E+01 
    1.5860019567419132E+01 
    1.4137643081392612E+01 
    1.2007262770030399E+01 
    1.4431240435997374E+01 
    1.4186678554962802E+01 
    1.4773760467810558E+01 
    6.2860133705030199E+00 
    4.0985397641193950E+00 
    1.1793146720113070E+01 
    1.0136443565812941E+01 
    1.4334278251833792E+01 
    1.4331918950251261E+01 
    1.0739617069891146E+01 
    1.4368928128035044E+01 
    1.0444204532688364E+01 
    1.0354116343410043E+01 
    5.6919506942886331E+00 
    4.0830901644031785E+00 
    1.5637497938458509E+01 
    8.1586560288661314E+00 
    9.3601775903653639E+00 
    1.0626615683670027E+01 
    1.7223000083285637E+01 
    1.0721355486827605E+01 
    1.0732221155971098E+01 
    4.6309001015216733E+00 
    1.0722979706486841E+01 
    1.0737862998108149E+01 
    1.4652669118874284E+01 
    9.0949120506805610E+00 
    9.9994080752150509E+00 
    1.5805057504319921E+01 
    1.0465447988469387E+01 
    1.4153741015738204E+01 
    1.4399481740806575E+01 
    1.2784163492344407E+01 
    8.8754775709461953E+00 
    1.4366735431588813E+01 
    1.0268488820422803E+01 
    1.4327898914312309E+01 
    1.4091858018534229E+01 
    1.5146214798208126E+01 
    1.4360645238541640E+01 
    1.3482282906887605E+01 
    1.0454797168855716E+01 
    6.9907412406311096E+00 
    1.7099055739075776E+01 
    8.3728829838093226E+00 
    1.5067165448900740E+01 
    1.0452315706930213E+01 
    8.8114485014851365E+00 
    5.3539287209424486E+00 
    1.0776445820936161E+01 
    1.4351644683668017E+01 
    1.4351094953714263E+01 
    1.0412952572768910E+01 
    1.0446732269046690E+01 
    1.6010428279996280E+01 
    1.5381733089692164E+01 
    1.0739976140291558E+01 
    3.8096219783564251E+00 
    1.3424572915696263E+01 
    1.7348239691841496E+01 
    1.0457975859510594E+01 
    1.2383945331562101E+01 
    9.9855561901303300E+00 
    1.6959837572058419E+01 
    1.5462687464851072E+01 
    1.5220640650802805E+01 
    1.0761766074848170E+01 
    4.9552098381095107E+00 
    9.9467205234045490E+00 
    1.0008587106532463E+01 
    1.0050016369821146E+01 
    4.1420652551682844E+00 