# vtk DataFile Version 2.0
Pressure Field Data 
ASCII 
DATASET UNSTRUCTURED_GRID 

POINTS 2860 double 

    0.0000000000000000E+00     0.0000000000000000E+00     0.0000000000000000E+00 
    1.0000000000000000E+00     0.0000000000000000E+00     0.0000000000000000E+00 
    1.0000000000000000E+00     1.0000000000000000E+00     0.0000000000000000E+00 
    0.0000000000000000E+00     1.0000000000000000E+00     0.0000000000000000E+00 
    2.5000000000000000E-01     2.5000000000000000E-01     0.0000000000000000E+00 
    7.5000000000000000E-01     2.5000000000000000E-01     0.0000000000000000E+00 
    7.5000000000000000E-01     7.5000000000000000E-01     0.0000000000000000E+00 
    2.5000000000000000E-01     7.5000000000000000E-01     0.0000000000000000E+00 
    3.1249999999942091E-02     0.0000000000000000E+00     0.0000000000000000E+00 
    6.2499999999873469E-02     0.0000000000000000E+00     0.0000000000000000E+00 
    9.3749999999826514E-02     0.0000000000000000E+00     0.0000000000000000E+00 
    1.2499999999977961E-01     0.0000000000000000E+00     0.0000000000000000E+00 
    1.5624999999968961E-01     0.0000000000000000E+00     0.0000000000000000E+00 
    1.8749999999959971E-01     0.0000000000000000E+00     0.0000000000000000E+00 
    2.1874999999950970E-01     0.0000000000000000E+00     0.0000000000000000E+00 
    2.4999999999941969E-01     0.0000000000000000E+00     0.0000000000000000E+00 
    2.8124999999932920E-01     0.0000000000000000E+00     0.0000000000000000E+00 
    3.1249999999923850E-01     0.0000000000000000E+00     0.0000000000000000E+00 
    3.4374999999914790E-01     0.0000000000000000E+00     0.0000000000000000E+00 
    3.7499999999905720E-01     0.0000000000000000E+00     0.0000000000000000E+00 
    4.0624999999896660E-01     0.0000000000000000E+00     0.0000000000000000E+00 
    4.3749999999887590E-01     0.0000000000000000E+00     0.0000000000000000E+00 
    4.6874999999878530E-01     0.0000000000000000E+00     0.0000000000000000E+00 
    4.9999999999869471E-01     0.0000000000000000E+00     0.0000000000000000E+00 
    5.3124999999877620E-01     0.0000000000000000E+00     0.0000000000000000E+00 
    5.6249999999885780E-01     0.0000000000000000E+00     0.0000000000000000E+00 
    5.9374999999893940E-01     0.0000000000000000E+00     0.0000000000000000E+00 
    6.2499999999902101E-01     0.0000000000000000E+00     0.0000000000000000E+00 
    6.5624999999910261E-01     0.0000000000000000E+00     0.0000000000000000E+00 
    6.8749999999918421E-01     0.0000000000000000E+00     0.0000000000000000E+00 
    7.1874999999926570E-01     0.0000000000000000E+00     0.0000000000000000E+00 
    7.4999999999934730E-01     0.0000000000000000E+00     0.0000000000000000E+00 
    7.8124999999942890E-01     0.0000000000000000E+00     0.0000000000000000E+00 
    8.1249999999951039E-01     0.0000000000000000E+00     0.0000000000000000E+00 
    8.4374999999959199E-01     0.0000000000000000E+00     0.0000000000000000E+00 
    8.7499999999967359E-01     0.0000000000000000E+00     0.0000000000000000E+00 
    9.0624999999975520E-01     0.0000000000000000E+00     0.0000000000000000E+00 
    9.3749999999983680E-01     0.0000000000000000E+00     0.0000000000000000E+00 
    9.6874999999991840E-01     0.0000000000000000E+00     0.0000000000000000E+00 
    1.0000000000000000E+00     3.1249999999942091E-02     0.0000000000000000E+00 
    1.0000000000000000E+00     6.2499999999873469E-02     0.0000000000000000E+00 
    1.0000000000000000E+00     9.3749999999826514E-02     0.0000000000000000E+00 
    1.0000000000000000E+00     1.2499999999977961E-01     0.0000000000000000E+00 
    1.0000000000000000E+00     1.5624999999968961E-01     0.0000000000000000E+00 
    1.0000000000000000E+00     1.8749999999959971E-01     0.0000000000000000E+00 
    1.0000000000000000E+00     2.1874999999950970E-01     0.0000000000000000E+00 
    1.0000000000000000E+00     2.4999999999941969E-01     0.0000000000000000E+00 
    1.0000000000000000E+00     2.8124999999932920E-01     0.0000000000000000E+00 
    1.0000000000000000E+00     3.1249999999923850E-01     0.0000000000000000E+00 
    1.0000000000000000E+00     3.4374999999914790E-01     0.0000000000000000E+00 
    1.0000000000000000E+00     3.7499999999905720E-01     0.0000000000000000E+00 
    1.0000000000000000E+00     4.0624999999896660E-01     0.0000000000000000E+00 
    1.0000000000000000E+00     4.3749999999887590E-01     0.0000000000000000E+00 
    1.0000000000000000E+00     4.6874999999878530E-01     0.0000000000000000E+00 
    1.0000000000000000E+00     4.9999999999869471E-01     0.0000000000000000E+00 
    1.0000000000000000E+00     5.3124999999877620E-01     0.0000000000000000E+00 
    1.0000000000000000E+00     5.6249999999885780E-01     0.0000000000000000E+00 
    1.0000000000000000E+00     5.9374999999893940E-01     0.0000000000000000E+00 
    1.0000000000000000E+00     6.2499999999902101E-01     0.0000000000000000E+00 
    1.0000000000000000E+00     6.5624999999910261E-01     0.0000000000000000E+00 
    1.0000000000000000E+00     6.8749999999918421E-01     0.0000000000000000E+00 
    1.0000000000000000E+00     7.1874999999926570E-01     0.0000000000000000E+00 
    1.0000000000000000E+00     7.4999999999934730E-01     0.0000000000000000E+00 
    1.0000000000000000E+00     7.8124999999942890E-01     0.0000000000000000E+00 
    1.0000000000000000E+00     8.1249999999951039E-01     0.0000000000000000E+00 
    1.0000000000000000E+00     8.4374999999959199E-01     0.0000000000000000E+00 
    1.0000000000000000E+00     8.7499999999967359E-01     0.0000000000000000E+00 
    1.0000000000000000E+00     9.0624999999975520E-01     0.0000000000000000E+00 
    1.0000000000000000E+00     9.3749999999983680E-01     0.0000000000000000E+00 
    1.0000000000000000E+00     9.6874999999991840E-01     0.0000000000000000E+00 
    9.6875000000003686E-01     1.0000000000000000E+00     0.0000000000000000E+00 
    9.3750000000011691E-01     1.0000000000000000E+00     0.0000000000000000E+00 
    9.0625000000015765E-01     1.0000000000000000E+00     0.0000000000000000E+00 
    8.7500000000017863E-01     1.0000000000000000E+00     0.0000000000000000E+00 
    8.4375000000028044E-01     1.0000000000000000E+00     0.0000000000000000E+00 
    8.1250000000040856E-01     1.0000000000000000E+00     0.0000000000000000E+00 
    7.8125000000054956E-01     1.0000000000000000E+00     0.0000000000000000E+00 
    7.5000000000066480E-01     1.0000000000000000E+00     0.0000000000000000E+00 
    7.1875000000086831E-01     1.0000000000000000E+00     0.0000000000000000E+00 
    6.8750000000102829E-01     1.0000000000000000E+00     0.0000000000000000E+00 
    6.5625000000114431E-01     1.0000000000000000E+00     0.0000000000000000E+00 
    6.2500000000129829E-01     1.0000000000000000E+00     0.0000000000000000E+00 
    5.9375000000147926E-01     1.0000000000000000E+00     0.0000000000000000E+00 
    5.6250000000168354E-01     1.0000000000000000E+00     0.0000000000000000E+00 
    5.3125000000188671E-01     1.0000000000000000E+00     0.0000000000000000E+00 
    5.0000000000205835E-01     1.0000000000000000E+00     0.0000000000000000E+00 
    4.6875000000192979E-01     1.0000000000000000E+00     0.0000000000000000E+00 
    4.3750000000180111E-01     1.0000000000000000E+00     0.0000000000000000E+00 
    4.0625000000167238E-01     1.0000000000000000E+00     0.0000000000000000E+00 
    3.7500000000154382E-01     1.0000000000000000E+00     0.0000000000000000E+00 
    3.4375000000141509E-01     1.0000000000000000E+00     0.0000000000000000E+00 
    3.1250000000128642E-01     1.0000000000000000E+00     0.0000000000000000E+00 
    2.8125000000115769E-01     1.0000000000000000E+00     0.0000000000000000E+00 
    2.5000000000102918E-01     1.0000000000000000E+00     0.0000000000000000E+00 
    2.1875000000090050E-01     1.0000000000000000E+00     0.0000000000000000E+00 
    1.8750000000077180E-01     1.0000000000000000E+00     0.0000000000000000E+00 
    1.5625000000064329E-01     1.0000000000000000E+00     0.0000000000000000E+00 
    1.2500000000051459E-01     1.0000000000000000E+00     0.0000000000000000E+00 
    9.3750000000385914E-02     1.0000000000000000E+00     0.0000000000000000E+00 
    6.2500000000257239E-02     1.0000000000000000E+00     0.0000000000000000E+00 
    3.1250000000128557E-02     1.0000000000000000E+00     0.0000000000000000E+00 
    0.0000000000000000E+00     9.6875000000003686E-01     0.0000000000000000E+00 
    0.0000000000000000E+00     9.3750000000011691E-01     0.0000000000000000E+00 
    0.0000000000000000E+00     9.0625000000015765E-01     0.0000000000000000E+00 
    0.0000000000000000E+00     8.7500000000017863E-01     0.0000000000000000E+00 
    0.0000000000000000E+00     8.4375000000028044E-01     0.0000000000000000E+00 
    0.0000000000000000E+00     8.1250000000040856E-01     0.0000000000000000E+00 
    0.0000000000000000E+00     7.8125000000054956E-01     0.0000000000000000E+00 
    0.0000000000000000E+00     7.5000000000066480E-01     0.0000000000000000E+00 
    0.0000000000000000E+00     7.1875000000086831E-01     0.0000000000000000E+00 
    0.0000000000000000E+00     6.8750000000102829E-01     0.0000000000000000E+00 
    0.0000000000000000E+00     6.5625000000114431E-01     0.0000000000000000E+00 
    0.0000000000000000E+00     6.2500000000129829E-01     0.0000000000000000E+00 
    0.0000000000000000E+00     5.9375000000147926E-01     0.0000000000000000E+00 
    0.0000000000000000E+00     5.6250000000168354E-01     0.0000000000000000E+00 
    0.0000000000000000E+00     5.3125000000188671E-01     0.0000000000000000E+00 
    0.0000000000000000E+00     5.0000000000205835E-01     0.0000000000000000E+00 
    0.0000000000000000E+00     4.6875000000192979E-01     0.0000000000000000E+00 
    0.0000000000000000E+00     4.3750000000180111E-01     0.0000000000000000E+00 
    0.0000000000000000E+00     4.0625000000167238E-01     0.0000000000000000E+00 
[...]
CELL_DATA 2795 
SCALARS Pressure double 1 
LOOKUP_TABLE default 

    8.7001692843040370E+00 
    1.9417028016606842E+01 
    1.3673061570022710E+01 
    1.3370441166991032E+01 
    1.0718106556455899E+01 
    1.9199733634139648E+01 
    2.0238585700517287E+01 
    7.7653586148415128E+00 
    1.4235204521678298E+01 
    1.0921009635802315E+01 
    9.2788205564946669E+00 
    1.8798059060654797E+01 
    1.9233792533267433E+01 
    1.9148346288637597E+01 
    1.2661050567238222E+01 
    7.6294922228831519E+00 
    1.2373371556809646E+01 
    9.8909329813257933E+00 
    1.8224469745919549E+01 
    1.3651299486778639E+01 
    1.3547722480525946E+01 
    1.9042823142621678E+01 
    1.3036384221639539E+01 
    5.3828870512508509E-01 
    1.8728853265514445E+01 
    1.9243012751004411E+01 
    2.0283378197000044E+01 
    8.9422033817104509E+00 
    1.8665121227466297E+01 
    2.0263419075901737E+01 
    1.3885326445540299E+01 
    1.3856402554428605E+01 
    9.7097355004863370E+00 
    1.3636053381718042E+01 
    4.4681952076486722E+00 
    1.2382923960256445E+01 
    1.3620082931088476E+01 
    2.0315732754572640E+01 
    2.0210387453878578E+01 
    1.8817208722961453E+01 
    1.0574339499655792E+01 
    1.8803294125344365E+01 
    1.1043728463243851E+00 
    1.3648563404061676E+01 
    1.9913867415385276E+01 
    1.9615990794484091E+01 
    1.8781717569424512E+01 
    1.4661698360431620E+01 
    1.8817717924240064E+01 
    1.2636548691283469E+01 
    1.2089351063410584E+01 
    1.3818133861957838E+01 
    1.3536587174350132E+01 
    1.2428242066684609E+01 
    1.3967109175861161E+01 
    1.7909955738858638E+01 
    1.5887610810304265E+01 
    1.0777697680389682E+01 
    1.9056440490854765E+01 
    1.8920778153309520E+01 
    1.3325425043533485E+01 
    1.3164812907975044E+01 
    1.3253933135631303E+01 
    2.0131780792586881E+01 
    2.0464370793027964E+01 
    1.2381222852660889E+01 
    1.3816164468394145E+01 
    1.8490721124612193E+01 
    1.5702989300999169E+01 
    1.3250294354999806E+01 
    2.0486745663927529E+01 
    1.8966329625220851E+01 
    1.2238638835258648E+01 
    1.9753351137104463E+01 
    1.4247642395445228E+01 
    1.8565446531463845E+01 
    2.0341132087043121E+01 
    1.4283310624280071E+01 
    8.7706413530538505E+00 
    1.3835755319829254E+01 
    2.0219846268679010E+01 
    2.0523623559367412E+01 
    1.2406061133788288E+01 
    1.3761917710995812E+01 
    2.0592117215298323E+01 
    1.3617083381954410E+01 
    1.3146383665251697E+01 
    1.6261345576395126E+01 
    8.4150666399925473E+00 
    1.2125222749173233E+01 
    1.3758213991603840E+01 
    1.4396100025625705E+01 
    2.2350356377054062E+01 
    1.0408413700152179E+01 
    1.3824595887513803E+01 
    1.8747483517325822E+01 
    1.9144556429688652E+01 
    9.1435071408855340E+00 
    1.3471735651436346E+01 
    1.3793846420197761E+01 
    1.9187213212366913E+01 
    1.3780370096230044E+01 
    1.9068470890749118E+01 
    5.5275259654492368E+00 
    9.0153156091289510E+00 
    1.4059333173806346E+01 
    1.9433085941253168E+01 
    1.2345106231821596E+01 
    1.3037749352346834E+01 
    1.3752997469104777E+01 
    1.3107071712670569E+01 
    1.5450264362456654E+01 
    1.2706501670584945E+01 
    1.2245917971100956E+01 
    9.5454365495841600E+00 
    1.6252171287582051E+01 
    1.3862004698831401E+01 
    2.0016111083016423E+01 
    1.1878728729556602E+01 
    1.3345773500983578E+01 
    1.8975460283913208E+01 
    1.1203999294763509E+01 
    1.9645343348316789E+01 
    1.3690320339239751E+01 
    1.3264101585882083E+01 
    1.9155626450938509E+01 
    1.3849081078119049E+01 
    2.0355781411201423E+01 
    1.6291416173529225E+01 
    1.7665951140015693E+01 
    2.0305846865551413E+01 
    1.0429993413882414E+01 
    1.4080713530437837E+01 
    1.9199883906370669E+01 
    4.1242825630380384E+00 
    1.3941544210037605E+01 
    2.0260907350807415E+01 
    1.3294967126603947E+01 
    1.5119043887961782E+01 
    9.0008310555165068E+00 
    1.8755502583784885E+01 
    2.2898236661314883E+01 
    1.6932919052936580E+01 
    1.3297887465393565E+01 
    1.1983715379088260E+01 
    1.4733912654324525E+01 
    1.3707765573807384E+01 
    9.3909638477129871E+00 
    2.0301179425719059E+01 
    1.9217853440653716E+01 
    1.8750802532713273E+01 
    1.4396233684798625E+01 
    1.2184387769483914E+01 
    1.3541496025424436E+01 
    1.9788812837981784E+01 
    1.2520583473280775E+01 
    1.3838139648784598E+01 
    1.2733191126969208E+01 
    1.6027870454530618E+01 
    2.2885275955557887E+01 
    1.8732804242406921E+01 
    1.2016084092030411E+01 
    1.9451845051069728E+01 
    1.9371963299781022E+01 
    1.9488367297579906E+01 
    2.0853108647568575E+01 
    2.1525488060437880E+01 
    1.9587890647786985E+01 
    1.3807193253380994E+01 
    1.4896106877232356E+01 
    1.9348367153422984E+01 
    2.0015773902175393E+01 
    9.8399531725429998E+00 
    1.8778128145801201E+01 
    1.9728512674042086E+01 
    9.5617492235253110E+00 
    2.0780529010806820E+01 
    2.0716790794862437E+01 
    1.8322175581710930E+01 
    1.4158248917069209E+01 
    3.6489171603611381E+00 
    2.0261485999514477E+01 
    1.3992554027252794E+01 
    2.0423052333115493E+01 
    1.3208230100626512E+01 
    1.9962671078810079E+01 
    1.3684183715595151E+00 
    1.7660920155926618E+01 
    1.3216462373536736E+01 
    1.2147741157432735E+01 
    1.1850743219011244E+01 
    1.3656417815447956E+01 
    1.4981094134600378E+01 
    1.4357079905985024E+01 
    9.6475138648565260E+00 
    2.0020012931518565E+01 
    1.9246040611294930E+01 
    1.5850836382316883E+01 
    1.4049363538520518E+01 
    2.1035068917853574E+00 
    1.0923410193867339E+01 
    7.5140743738307787E+00 
    2.0278211479011617E+01 
    1.5300004536883803E+01 
    1.9233010906241507E+01 
    1.9341116185185257E+01 
    1.2609842551894340E+01 
    1.5948829179375814E+01 
    1.8731771547013974E+01 
    2.0697948296769081E+01 
    8.9998493440306166E+00 
    1.6959732736404558E+01 
    1.4321047846903218E+01 
    8.0139468626913626E+00 
    1.2614795265916278E+01 
    1.6651296689215542E+01 
    1.9285094880714762E+01 
    1.3708271900545535E+01 
    1.9453622702680764E+01 
    1.9096243012197966E+01 
    1.9028392235248429E+01 
    1.3543843264716443E+01 
    1.2002870165192043E+01 
    1.8764491801806603E+01 
    1.2221331252010035E+01 
    1.3790920153288065E+01 
    1.2005568164953365E+01 
    1.3785008238552710E+01 
    1.9353605774977353E+01 
    8.5021948168919437E+00 
    1.2498689265890519E+01 
    2.0168154331254495E+01 
    1.3549873868130193E+01 
    1.5174571623013041E+01 
    8.7202564989604561E+00 
    1.2313553261930677E+01 
    1.9062065725691838E+01 
    1.9534990441749599E+01 
    7.1407164629413469E+00 
    1.3567394266678422E+01 
    1.2019987134485373E+01 
    2.1244841322531258E+01 
    2.0539284836792440E+01 
    2.1565214340350714E+01 
    1.3587949133307774E+01 
    1.9314356933517011E+01 
    1.8650858083022090E+01 
    1.3432595676139259E+01 
    1.8749718824465560E+01 
    1.4049725772108303E+01 
    8.0815294105668958E+00 
    1.3996895934082415E+01 
    2.0146905651338624E+01 
    1.8743326376275078E+01 
    9.2421345790158469E+00 
    1.8791574749746125E+01 
    1.5014803366625140E+01 
    1.3916502196660979E+01 
    1.3381115548233520E+01 
    1.8527368679169395E+01 
    1.4539116003674128E+01 
    1.8771275462682926E+01 
    1.3575830103707496E+01 
    8.3153128672732350E+00 
    1.3873352554087955E+01 
    1.1850603286287916E+01 
    1.6962037108392252E+01 
    2.0422469816212672E+01 
    1.8764803927041957E+01 
    2.0251521295490633E+01 
    1.3483668607905944E+01 
    8.9992361009762334E+00 
    9.1226442593925707E+00 
    1.4140579099545402E+01 
    1.3758980421267475E+01 
    2.0845909541706384E+00 
    1.7955009278405328E+01 
    2.0907653556595289E+01 
    1.3229443430616687E+01 
    8.4666724001738931E+00 
    1.5775323448290713E+01 
    1.8783833250944824E+01 
    1.0080884297165547E+01 
    6.8365007665926916E+00 
    1.3746167408743915E+01 
    1.8902757606451765E+01 
    1.9896407655632384E+01 
    1.9628838473177094E+01 
    1.9542020674402870E+01 
    9.7872722060017807E+00 
    1.3911091141436165E+01 
    1.8176328896025915E+01 
    1.0715611743786052E+01 
    1.9212771908554462E+01 
    1.6233248372399256E+01 
    9.2509884759437906E+00 
    1.8890395224538693E+01 
    2.0296902671692507E+01 
    1.8915484701565244E+01 
    9.7012454644723327E+00 
    1.3811874742299555E+01 
    1.0685389785555236E+01 
    1.3028680176506359E+01 
    1.8775266412226433E+01 
    1.8756449766961595E+01 
    9.7642647849840483E+00 
    2.0023371082838381E+01 
    1.4452498317901993E+01 
    1.8816196989180987E+01 
    2.0046728959318038E+01 
    1.8792605884736776E+01 
    1.7261010805799575E+01 
    2.1331078970845212E+01 
    1.3160412383759024E+01 
    2.0210383919656241E+01 
    1.8845559873847272E+01 
    2.0309645774359506E+01 
    2.0012423035800499E+01 
    1.3287219932233619E+01 
    1.3661037004690519E+01 
    1.3219417781873100E+01 
    1.6554684537148933E+01 
    5.5573059105567957E+00 
    1.4063545963966700E+01 
    2.1473701332619591E+01 
    1.4055745239595577E+01 
    1.4293196865965227E+01 
    2.0272222412607427E+01 
    2.0568663411334740E+01 
    1.3034816399686649E+01 
    1.8797502012704527E+01 
    1.8753416575334107E+01 
    1.4277159397153900E+01 
    1.9944504246226376E+01 
    9.7856057456521039E+00 
    6.2296959943471260E+00 
    1.4638488539375833E+01 
    1.4070277114749302E+01 
    1.8747845408007549E+01 
    9.1280972800912590E+00 
    1.9528812487368111E+01 
    6.3649397250368587E+00 
    1.3999666622726719E+01 
    1.3294117869688399E+01 
    1.3787175208806921E+01 
    2.2937308207821964E+01 
    5.3884283887983386E+00 
    1.3962530103049472E+01 
    1.6571418619023451E+01 
    1.3368679295270926E+01 
    1.0647929899589053E+01 
    1.9779143810379313E+01 
    2.2455467071295931E+01 
    1.9932969763812128E+01 
    1.3887665092007076E+01 
    7.9871098204665527E+00 
    2.2291849408743140E+01 
    1.9218002695845833E+01 
    1.0078898185577049E+01 
    1.3474289379195376E+01 
    2.0828293757708504E+01 
    4.5871631076618282E+00 
    1.4136294516145906E+01 
    1.9943569358851427E+01 
    1.3804579403411738E+01 
    1.1994112813262101E+01 
    1.4011197486380389E+01 
    1.8281120766386451E+01 
    1.3786287688665368E+01 
    7.1151178117824871E+00 
    1.3461439002762221E+00 
    1.0249777489791668E+01 
    2.1149460440672609E+01 
    1.3219402298418741E+01 
    1.5528784707886146E+01 
    1.4914304973026798E+01 
    1.6998037580864278E+01 
    1.3818953619267409E+01 
    1.9077169031433762E+01 
    2.2952329670154121E+01 
    1.6153895034386213E+01 
    2.0172081277892012E+01 
    8.0778727887398660E-01 
    1.8757797506881737E+01 
    7.7896143722643627E+00 
    2.1670165132704412E+01 
    1.3979205320973701E+01 
    1.2270391663555461E+01 
    1.0900467189880173E+01 
    7.4863734187775011E+00 
    1.5231387141530217E+01 
    1.0866828367178121E+01 
    1.6816193017566544E+01 
    3.0760717965651754E+00 
    1.5062738261549722E+01 
    1.8635777569536859E+01 
    8.2789471799436587E+00 
    1.9397885253988754E+01 
    2.1392384936111256E+01 
    1.9215459447765546E+01 
    1.3810464580083911E+01 
    1.3780111979843481E+01 
    1.3970320803512200E+01 
    8.1117602055383511E+00 
    1.2871566591762688E+01 
    1.2670510408087299E+01 
    1.3956847845016108E+01 
    1.3131194705580921E+01 
    1.0291560417271062E+00 
    8.9090198262525107E+00 
    1.3604478127804224E+01 
    1.3925501687757860E+01 
    1.7301736052680919E+01 
    3.0184461672629173E+00 
    1.4225707334956383E+01 
    1.4079224601902652E+01 
    5.1890323428366738E+00 
    1.9020485363828012E+01 
    1.2234917200940545E+01 
    1.3924614442839189E+01 
    1.9198266936845759E+01 
    7.5076624856989298E+00 
    1.9166568434006034E+01 
    1.2404538848639271E+01 
    1.3803452269516447E+00 
    1.3293848963787958E+01 
    2.0074350200469912E+01 
    1.8761442474247261E+01 
    1.8791367704566259E+01 
    1.4390786498165539E+01 
    1.4002768850737919E+01 
    1.2232540113116798E+01 
    9.6712510402653002E+00 
    1.9350310901490644E+01 
    1.3467603405780309E+01 
    9.3715792036613266E+00 
    1.8783289254151978E+01 
    1.9768114091656305E+01 
    1.4168799820806933E+01 
    1.3602257869654220E+01 
    2.2821290726931263E+01 
    1.4278395719308540E+01 
    1.9412602538647665E+01 
    1.1619494523059018E+01 
    2.2980535925633326E+01 
    9.0695368964044505E+00 
    1.2707057986267436E+01 
    1.0259931025657528E+01 
    1.4575502986624009E+01 
    1.1820419337833625E+01 
    2.2963447593750310E+01 
    1.4340040265199796E+01 
    1.8264971644919711E+01 
    9.3271670698020692E+00 
    1.3812469011792436E+01 
    1.9172371522115903E+01 
    1.1905284960535763E+01 
    1.0094518912836655E+01 
    1.5442434083120684E+01 
    1.9492532491436943E+01 
    1.0013248384196462E+01 
    1.3322214939095700E+01 
    1.3644289841054466E+01 
    1.8718943106947002E+01 
    1.3387999788355506E+01 
    1.9487963079002505E+01 
    2.0348711703055205E+01 
    1.2259395290360622E+01 
    1.2016854933694226E+01 
    1.0879949142000251E+01 
    1.8933726618087636E+01 
    1.4099864191048018E+01 
    2.2497448248981652E+01 
    1.7477707598783098E+01 
    1.9102877299740499E+01 
    2.2144691809040641E+01 
    2.1397929675736183E+01 
    1.3862726071017544E+01 
    1.3937990907674426E+01 
    1.8342527033342929E+01 
    1.8819180352989171E+01 
    1.9589023530492863E+01 
    1.9245939877118442E+01 
    2.2848325302610007E+01 
    1.4277774715999902E+01 
    1.2398767324003872E+01 
    1.4243798731174376E+01 
    2.0229716362428590E+01 
    1.3964463093277654E+01 
    8.1297109485591736E+00 
    1.3790309995024444E+01 
    2.0792847815281430E+01 
    1.4123788707060253E+01 
    1.2409706792978627E+01 
    1.3583109577246091E+01 
    2.0938298685180399E+01 
    1.8899707349530907E+01 
    1.1732661660482155E+01 
    2.1110325431349228E+01 
    1.3893082614700127E+01 
    1.9633438381871045E+01 
    2.0952167794591407E+01 
    1.4675665100827658E+01 
    7.5096152572998971E+00 
    1.5222725098472512E+01 
    7.7666788999660659E+00 
    1.4018093120011281E+01 
    1.3809996987239209E+01 
    1.5999556486360936E+01 
    8.2133257271629176E+00 
    1.6993113806932993E+01 
    1.3826455865825995E+01 
    1.9232805149946682E+01 
    1.4845480428673470E+01 
    1.1350984350938232E+01 
    1.3428952558424017E+01 
    1.4579201805891923E+01 
    1.4410686941022371E+01 
    2.0399997311465761E+01 
    1.1869780947009984E+01 
    1.1668601707110499E+01 
    8.6333894801605968E+00 
    1.9665913381122216E+01 
    1.3479151943128365E+01 
    1.8570672733998670E+01 
    1.3776772496919186E+01 
    9.4432656241693582E+00 
    1.8913224360565088E+01 
    1.3752988144850603E+01 
    1.0326734755603800E+01 
    1.0970820047801412E+01 
    1.1373972327091249E+01 
    1.9276572289800800E+01 
    1.3959303342004624E+01 
    2.0186662514707439E+01 
    1.3712655129109724E+01 
    1.3649495144361602E+01 
    1.3222012919055764E+01 
    1.9034745392427201E+01 
    1.3556522231997381E+01 
    1.1440153130948385E+01 
    2.1386001050954544E+01 
    1.9144627434832746E+01 
    9.5237405062710270E+00 
    3.7910708866436180E+00 
    1.3946556536332727E+01 
    1.3044689518809754E+01 
    1.2021563116146595E+01 
    1.2970963924055225E+01 
    1.9076663399515805E+01 
    1.3581659737119910E+01 
    1.2438048823608831E+01 
    1.8853247746902277E+01 
    9.4190740244638143E+00 
    1.8292537724104996E+01 
    1.2533892793442160E+01 
    1.1240814109276503E+01 
    1.2136458414376033E+01 
    1.9751337337502974E+01 
    1.3789622316550782E+01 
    1.3798947409922784E+01 
    8.3500120540258216E+00 
    9.0352588541039864E+00 
    1.7320079734175323E+01 
    1.3809615073448608E+01 
    1.3995352039133156E+01 
    2.1098928875882191E+01 
    1.1662755487789608E+01 
    1.3822812714338793E+01 
    9.7640469544711248E+00 
    1.0084856602082811E+01 
    1.8982062316580638E+01 
    1.3411894231957977E+01 
    9.9742351769863902E+00 
    1.4398635893705203E+01 
    1.3715197807677429E+01 
    1.9003196090108752E+01 
    2.1212241778013777E+01 
    1.4593380951075294E+00 
    1.3952569126448351E+01 
    1.4068960086326294E+01 
    1.9122380752854678E+01 
    1.3379557565146708E+01 
    1.3759031918735774E+01 
    2.0467918641501555E+01 
    1.2179706971060144E+01 
    1.0063429854986186E+01 
    1.6415746309471206E+01 
    1.8782286875017554E+01 
    2.0306119257409023E+01 
    2.0658629061894956E+01 
    1.3758542141349810E+01 
    1.3941893654479170E+01 
    1.5295159072729961E+01 
    9.0331047878632500E+00 
    1.8986847893834671E+01 
    1.0859103323749462E+01 
    9.4083865624006151E+00 
    1.7048966625844127E+01 
    1.6028999155996747E+01 
    9.2198594898610153E+00 
    1.8836198636867579E+01 
    2.0287690764195951E+01 
    1.4298027686457905E+01 
    2.1339284474208522E+01 
    1.8886991258321729E+01 
    1.3444997023917439E+01 
    1.9856882796689188E+01 
    1.0142723670542884E+01 
    1.8809041415292718E+01 
    1.3951168507402675E+01 
    1.3905208049117467E+01 
    2.1321205950199108E+01 
    1.3527706762601676E+01 
    1.6679841339209037E+01 
    1.2102833400475658E+01 
    2.0447588571235677E+01 
    1.8650905783479136E+01 
    1.2587778674918646E+01 
    1.8752101116213659E+01 
    1.2666643533971815E+01 
    1.3765303165030124E+01 
    2.0233068549365161E+01 
    1.9208790662503173E+01 
    2.0291699506220215E+01 
    1.9124181803693563E+01 
    1.2887365511247696E+01 
    1.3138736224826689E+01 
    2.0301835940152678E+01 
    1.3297647122619313E+01 
    1.8508796834430843E+01 
    1.3503332023490675E+01 
    5.6024502910743861E+00 
    9.4970084670343979E+00 
    8.8013537562832838E+00 
    2.0237480102673626E+01 
    2.1224182711081177E+01 
    1.8774892623030734E+01 
    1.5725586962561485E+01 
    1.9199089036750795E+01 
    1.8850339386710807E+01 
    1.9738999141235244E+01 
    8.0552840221651039E+00 
    5.2109969301060461E+00 
    1.5440626499568484E+01 
    1.3565067060804388E+01 
    1.9088908643172818E+01 
    1.9084247714143977E+01 
    1.4090297759485571E+01 
    1.9143828801770155E+01 
    1.3934864214085447E+01 
    1.3835009608999361E+01 
    7.2686456360495937E+00 
    5.1859505812566153E+00 
    2.0929217199143711E+01 
    1.0788816675486544E+01 
    1.2522822581270693E+01 
    1.3977476856306264E+01 
    2.2824744645279914E+01 
    1.4079985226195973E+01 
    1.4306022141826443E+01 
    5.9005067966904514E+00 
    1.4079798821374663E+01 
    1.4095727417568101E+01 
    1.9446694613725459E+01 
    1.2135713118958597E+01 
    1.3247655707589084E+01 
    2.1148643560580592E+01 
    1.3962747503583854E+01 
    1.8797368328592835E+01 
    1.9121109598446058E+01 
    1.6765818239852390E+01 
    1.1746566291038226E+01 
    1.9119429361416842E+01 
    1.3720425094928062E+01 
    1.9033551287206841E+01 
    1.8695825370159298E+01 
    2.0263831500848443E+01 
    1.9130509867243262E+01 
    1.7694890530143439E+01 
    1.3948771049017770E+01 
    9.1468969398203299E+00 
    2.2685701694218874E+01 
    1.1088198278155087E+01 
    2.0152967169798902E+01 
    1.3945658023176607E+01 
    1.1717383069466178E+01 
    6.8631846346305698E+00 
    1.4137335758378194E+01 
    1.9104854807291197E+01 
    1.9085762104075009E+01 
    1.3743270226294507E+01 
    1.3938672450149062E+01 
    2.1395293092906790E+01 
    2.0582933947804317E+01 
    1.4102848974907941E+01 
    4.8463217614496763E+00 
    1.7575191083588155E+01 
    2.2959327693325701E+01 
    1.3952748511681195E+01 
    1.6223445831421888E+01 
    1.3378839066403408E+01 
    2.2525818109661248E+01 
    2.0693890620986377E+01 
    2.0335834495438203E+01 
    1.4128529472667063E+01 
    6.4029012568996206E+00 
    1.3329553998770479E+01 
    1.3406418225289846E+01 
    1.3452910248976579E+01 
    5.2894836625720965E+00 