# vtk DataFile Version 2.0
Pressure Field Data 
ASCII 
DATASET UNSTRUCTURED_GRID 

POINTS 2860 double 

    0.0000000000000000E+00     0.0000000000000000E+00     0.0000000000000000E+00 
    1.0000000000000000E+00     0.0000000000000000E+00     0.0000000000000000E+00 
    1.0000000000000000E+00     1.0000000000000000E+00     0.0000000000000000E+00 
    0.0000000000000000E+00     1.0000000000000000E+00     0.0000000000000000E+00 
    2.5000000000000000E-01     2.5000000000000000E-01     0.0000000000000000E+00 
    7.5000000000000000E-01     2.5000000000000000E-01     0.0000000000000000E+00 
    7.5000000000000000E-01     7.5000000000000000E-01     0.0000000000000000E+00 
    2.5000000000000000E-01     7.5000000000000000E-01     0.0000000000000000E+00 
    3.1249999999942091E-02     0.0000000000000000E+00     0.0000000000000000E+00 
    6.2499999999873469E-02     0.0000000000000000E+00     0.0000000000000000E+00 
    9.3749999999826514E-02     0.0000000000000000E+00     0.0000000000000000E+00 
    1.2499999999977961E-01     0.0000000000000000E+00     0.0000000000000000E+00 
    1.5624999999968961E-01     0.0000000000000000E+00     0.0000000000000000E+00 
    1.8749999999959971E-01     0.0000000000000000E+00     0.0000000000000000E+00 
    2.1874999999950970E-01     0.0000000000000000E+00     0.0000000000000000E+00 
    2.4999999999941969E-01     0.0000000000000000E+00     0.0000000000000000E+00 
    2.8124999999932920E-01     0.0000000000000000E+00     0.0000000000000000E+00 
    3.1249999999923850E-01     0.0000000000000000E+00     0.0000000000000000E+00 
    3.4374999999914790E-01     0.0000000000000000E+00     0.0000000000000000E+00 
    3.7499999999905720E-01     0.0000000000000000E+00     0.0000000000000000E+00 
    4.0624999999896660E-01     0.0000000000000000E+00     0.0000000000000000E+00 
    4.3749999999887590E-01     0.0000000000000000E+00     0.0000000000000000E+00 
    4.6874999999878530E-01     0.0000000000000000E+00     0.0000000000000000E+00 
    4.9999999999869471E-01     0.0000000000000000E+00     0.0000000000000000E+00 
    5.3124999999877620E-01     0.0000000000000000E+00     0.0000000000000000E+00 
    5.6249999999885780E-01     0.0000000000000000E+00     0.0000000000000000E+00 
    5.9374999999893940E-01     0.0000000000000000E+00     0.0000000000000000E+00 
    6.2499999999902101E-01     0.0000000000000000E+00     0.0000000000000000E+00 
    6.5624999999910261E-01     0.0000000000000000E+00     0.0000000000000000E+00 
    6.8749999999918421E-01     0.0000000000000000E+00     0.0000000000000000E+00 
    7.1874999999926570E-01     0.0000000000000000E+00     0.0000000000000000E+00 
    7.4999999999934730E-01     0.0000000000000000E+00     0.0000000000000000E+00 
    7.8124999999942890E-01     0.0000000000000000E+00     0.0000000000000000E+00 
    8.1249999999951039E-01     0.0000000000000000E+00     0.0000000000000000E+00 
    8.4374999999959199E-01     0.0000000000000000E+00     0.0000000000000000E+00 
    8.7499999999967359E-01     0.0000000000000000E+00     0.0000000000000000E+00 
    9.0624999999975520E-01     0.0000000000000000E+00     0.0000000000000000E+00 
    9.3749999999983680E-01     0.0000000000000000E+00     0.0000000000000000E+00 
    9.6874999999991840E-01     0.0000000000000000E+00     0.0000000000000000E+00 
    1.0000000000000000E+00     3.1249999999942091E-02     0.0000000000000000E+00 
    1.0000000000000000E+00     6.2499999999873469E-02     0.0000000000000000E+00 
    1.0000000000000000E+00     9.3749999999826514E-02     0.0000000000000000E+00 
    1.0000000000000000E+00     1.2499999999977961E-01     0.0000000000000000E+00 
    1.0000000000000000E+00     1.5624999999968961E-01     0.0000000000000000E+00 
    1.0000000000000000E+00     1.8749999999959971E-01     0.0000000000000000E+00 
    1.0000000000000000E+00     2.1874999999950970E-01     0.0000000000000000E+00 
    1.0000000000000000E+00     2.4999999999941969E-01     0.0000000000000000E+00 
    1.0000000000000000E+00     2.8124999999932920E-01     0.0000000000000000E+00 
    1.0000000000000000E+00     3.1249999999923850E-01     0.0000000000000000E+00 
    1.0000000000000000E+00     3.4374999999914790E-01     0.0000000000000000E+00 
    1.0000000000000000E+00     3.7499999999905720E-01     0.0000000000000000E+00 
    1.0000000000000000E+00     4.0624999999896660E-01     0.0000000000000000E+00 
    1.0000000000000000E+00     4.3749999999887590E-01     0.0000000000000000E+00 
    1.0000000000000000E+00     4.6874999999878530E-01     0.0000000000000000E+00 
    1.0000000000000000E+00     4.9999999999869471E-01     0.0000000000000000E+00 
    1.0000000000000000E+00     5.3124999999877620E-01     0.0000000000000000E+00 
    1.0000000000000000E+00     5.6249999999885780E-01     0.0000000000000000E+00 
    1.0000000000000000E+00     5.9374999999893940E-01     0.0000000000000000E+00 
    1.0000000000000000E+00     6.2499999999902101E-01     0.0000000000000000E+00 
    1.0000000000000000E+00     6.5624999999910261E-01     0.0000000000000000E+00 
    1.0000000000000000E+00     6.8749999999918421E-01     0.0000000000000000E+00 
    1.0000000000000000E+00     7.1874999999926570E-01     0.0000000000000000E+00 
    1.0000000000000000E+00     7.4999999999934730E-01     0.0000000000000000E+00 
    1.0000000000000000E+00     7.8124999999942890E-01     0.0000000000000000E+00 
    1.0000000000000000E+00     8.1249999999951039E-01     0.0000000000000000E+00 
    1.0000000000000000E+00     8.4374999999959199E-01     0.0000000000000000E+00 
    1.0000000000000000E+00     8.7499999999967359E-01     0.0000000000000000E+00 
    1.0000000000000000E+00     9.0624999999975520E-01     0.0000000000000000E+00 
    1.0000000000000000E+00     9.3749999999983680E-01     0.0000000000000000E+00 
    1.0000000000000000E+00     9.6874999999991840E-01     0.0000000000000000E+00 
    9.6875000000003686E-01     1.0000000000000000E+00     0.0000000000000000E+00 
    9.3750000000011691E-01     1.0000000000000000E+00     0.0000000000000000E+00 
    9.0625000000015765E-01     1.0000000000000000E+00     0.0000000000000000E+00 
    8.7500000000017863E-01     1.0000000000000000E+00     0.0000000000000000E+00 
    8.4375000000028044E-01     1.0000000000000000E+00     0.0000000000000000E+00 
    8.1250000000040856E-01     1.0000000000000000E+00     0.0000000000000000E+00 
    7.8125000000054956E-01     1.0000000000000000E+00     0.0000000000000000E+00 
    7.5000000000066480E-01     1.0000000000000000E+00     0.0000000000000000E+00 
    7.1875000000086831E-01     1.0000000000000000E+00     0.0000000000000000E+00 
    6.8750000000102829E-01     1.0000000000000000E+00     0.0000000000000000E+00 
    6.5625000000114431E-01     1.0000000000000000E+00     0.0000000000000000E+00 
    6.2500000000129829E-01     1.0000000000000000E+00     0.0000000000000000E+00 
    5.9375000000147926E-01     1.0000000000000000E+00     0.0000000000000000E+00 
    5.6250000000168354E-01     1.0000000000000000E+00     0.0000000000000000E+00 
    5.3125000000188671E-01     1.0000000000000000E+00     0.0000000000000000E+00 
    5.0000000000205835E-01     1.0000000000000000E+00     0.0000000000000000E+00 
    4.6875000000192979E-01     1.0000000000000000E+00     0.0000000000000000E+00 
    4.3750000000180111E-01     1.0000000000000000E+00     0.0000000000000000E+00 
    4.0625000000167238E-01     1.0000000000000000E+00     0.0000000000000000E+00 
    3.7500000000154382E-01     1.0000000000000000E+00     0.0000000000000000E+00 
    3.4375000000141509E-01     1.0000000000000000E+00     0.0000000000000000E+00 
    3.1250000000128642E-01     1.0000000000000000E+00     0.0000000000000000E+00 
    2.8125000000115769E-01     1.0000000000000000E+00     0.0000000000000000E+00 
    2.5000000000102918E-01     1.0000000000000000E+00     0.0000000000000000E+00 
    2.1875000000090050E-01     1.0000000000000000E+00     0.0000000000000000E+00 
    1.8750000000077180E-01     1.0000000000000000E+00     0.0000000000000000E+00 
    1.5625000000064329E-01     1.0000000000000000E+00     0.0000000000000000E+00 
    1.2500000000051459E-01     1.0000000000000000E+00     0.0000000000000000E+00 
    9.3750000000385914E-02     1.0000000000000000E+00     0.0000000000000000E+00 
    6.2500000000257239E-02     1.0000000000000000E+00     0.0000000000000000E+00 
    3.1250000000128557E-02     1.0000000000000000E+00     0.0000000000000000E+00 
    0.0000000000000000E+00     9.6875000000003686E-01     0.0000000000000000E+00 
    0.0000000000000000E+00     9.3750000000011691E-01     0.0000000000000000E+00 
    0.0000000000000000E+00     9.0625000000015765E-01     0.0000000000000000E+00 
    0.0000000000000000E+00     8.7500000000017863E-01     0.0000000000000000E+00 
    0.0000000000000000E+00     8.4375000000028044E-01     0.0000000000000000E+00 
    0.0000000000000000E+00     8.1250000000040856E-01     0.0000000000000000E+00 
    0.0000000000000000E+00     7.8125000000054956E-01     0.0000000000000000E+00 
    0.0000000000000000E+00     7.5000000000066480E-01     0.0000000000000000E+00 
    0.0000000000000000E+00     7.1875000000086831E-01     0.0000000000000000E+00 
    0.0000000000000000E+00     6.8750000000102829E-01     0.0000000000000000E+00 
    0.0000000000000000E+00     6.5625000000114431E-01     0.0000000000000000E+00 
    0.0000000000000000E+00     6.2500000000129829E-01     0.0000000000000000E+00 
    0.0000000000000000E+00     5.9375000000147926E-01     0.0000000000000000E+00 
    0.0000000000000000E+00     5.6250000000168354E-01     0.0000000000000000E+00 
    0.0000000000000000E+00     5.3125000000188671E-01     0.0000000000000000E+00 
    0.0000000000000000E+00     5.0000000000205835E-01     0.0000000000000000E+00 
    0.0000000000000000E+00     4.6875000000192979E-01     0.0000000000000000E+00 
    0.0000000000000000E+00     4.3750000000180111E-01     0.0000000000000000E+00 
    0.0000000000000000E+00     4.0625000000167238E-01     0.0000000000000000E+00 
[...]
CELL_DATA 2795 
SCALARS Pressure double 1 
LOOKUP_TABLE default 

    5.9007146359784937E+00 
    1.3086247547832192E+01 
    9.2193283497904890E+00 
    8.8669108044501836E+00 
    7.1623607568608456E+00 
    1.2960192615729531E+01 
    1.3633378392212187E+01 
    5.2987012486378546E+00 
    9.7615664338494010E+00 
    7.4137263486484564E+00 
    6.3041951765767452E+00 
    1.2726922501020757E+01 
    1.3013586570978548E+01 
    1.2932326518850822E+01 
    8.4711527970133691E+00 
    5.2102191520139201E+00 
    8.2074612346222864E+00 
    6.7175932380529204E+00 
    1.2396193877473767E+01 
    9.2094476081258509E+00 
    9.1003691364598467E+00 
    1.2872082961489564E+01 
    8.6322211402129803E+00 
    3.4388208556641298E-01 
    1.2741493601363594E+01 
    1.2972871290951630E+01 
    1.3663163922512638E+01 
    6.0492142468138317E+00 
    1.2654244483388741E+01 
    1.3652083991848897E+01 
    9.2929053624777929E+00 
    9.4376549683067523E+00 
    6.4741165264590199E+00 
    9.1799341257478062E+00 
    3.0276492995265691E+00 
    8.2086386915322684E+00 
    9.1695855114878100E+00 
    1.3688901372622320E+01 
    1.3612630992623359E+01 
    1.2738922530865100E+01 
    7.1099663525649541E+00 
    1.2708643709427768E+01 
    7.2043672557749794E-01 
    9.0947525528072806E+00 
    1.3469836275200363E+01 
    1.3294206120457451E+01 
    1.2717098485368057E+01 
    1.0076710723738103E+01 
    1.2782672825400146E+01 
    8.3866502252714330E+00 
    8.0132013366947596E+00 
    9.4053925166178178E+00 
    8.9869282746362487E+00 
    8.2562546103908634E+00 
    9.3611915175131735E+00 
    1.2205072761145491E+01 
    1.0988371365586458E+01 
    7.1990633749394641E+00 
    1.2876160075251260E+01 
    1.2806913090210305E+01 
    8.8863074005254141E+00 
    8.8531663805024863E+00 
    8.7808559574464713E+00 
    1.3562141065249065E+01 
    1.3822049500660267E+01 
    8.2192293623819523E+00 
    9.4032407520896992E+00 
    1.2638907081802943E+01 
    1.0806513642271591E+01 
    8.8881235245456605E+00 
    1.3811782971220785E+01 
    1.2837569720637864E+01 
    8.1090691123088714E+00 
    1.3381343757939705E+01 
    9.5802276256984769E+00 
    1.2598722692794517E+01 
    1.3705744757898369E+01 
    9.5730980599089737E+00 
    5.9800529670195326E+00 
    9.4215116671285895E+00 
    1.3620242747699852E+01 
    1.3833585832372115E+01 
    8.2295508501642072E+00 
    9.3335521144265599E+00 
    1.3876658044924651E+01 
    9.1729819371283394E+00 
    8.7073986358018924E+00 
    1.1185781102301172E+01 
    5.7373579433272504E+00 
    8.0367710209602290E+00 
    9.3333705240672842E+00 
    9.8933520392236360E+00 
    1.5252024801289508E+01 
    6.9705370877021240E+00 
    9.4110854595159061E+00 
    1.2697257799793668E+01 
    1.2968344239564516E+01 
    6.1817567479097235E+00 
    9.0441208539255431E+00 
    9.3639684347382204E+00 
    1.2987124553882293E+01 
    9.3663537182352670E+00 
    1.2923850467591910E+01 
    3.7671055589954130E+00 
    6.1262063411532077E+00 
    9.6242026072184697E+00 
    1.3092744968540666E+01 
    8.1777243072684129E+00 
    8.6966823729755394E+00 
    9.3527100906782952E+00 
    8.6823320434460491E+00 
    1.0634010189570027E+01 
    8.4677882223404328E+00 
    8.1144251244985668E+00 
    6.4912040128791046E+00 
    1.0950693800207207E+01 
    9.4386085171277685E+00 
    1.3483420285705675E+01 
    8.0687244331622274E+00 
    8.8535802732030167E+00 
    1.2823194761933895E+01 
    7.4823300453236499E+00 
    1.3242373202024039E+01 
    9.2530473267655893E+00 
    8.7901393396391505E+00 
    1.2969776815006384E+01 
    9.4343576262950375E+00 
    1.3711738969712112E+01 
    1.1198645400161968E+01 
    1.2065511613033545E+01 
    1.3678856812144893E+01 
    6.9834511234849375E+00 
    9.6448686012451361E+00 
    1.2962259494348057E+01 
    2.8137471279605331E+00 
    9.3405563649254404E+00 
    1.3647715405453278E+01 
    8.8182145934571725E+00 
    1.0170145486299345E+01 
    6.1318293527216658E+00 
    1.2696377247976232E+01 
    1.5716179519904802E+01 
    1.1624382648576548E+01 
    8.8146484312974636E+00 
    7.9469728691664647E+00 
    9.9600447936587475E+00 
    9.2706088270670026E+00 
    6.3663373398109169E+00 
    1.3673262981823520E+01 
    1.3039994226158777E+01 
    1.2698910996292478E+01 
    9.8919008248294897E+00 
    8.0882819502295451E+00 
    9.0988918641813363E+00 
    1.3403929378967206E+01 
    8.2924044687107621E+00 
    9.2425188900270374E+00 
    8.4308571622778832E+00 
    1.0717831564199590E+01 
    1.5704930117969536E+01 
    1.2690846175062832E+01 
    8.0585841483358482E+00 
    1.3146830074555091E+01 
    1.3055562496423619E+01 
    1.3129121226961383E+01 
    1.4061090775388699E+01 
    1.4570239127575732E+01 
    1.3288896485856977E+01 
    9.3946978801291152E+00 
    1.0057207492915104E+01 
    1.3126865629641184E+01 
    1.3495509220420880E+01 
    6.6310684841301946E+00 
    1.2716556575770491E+01 
    1.3367266604760228E+01 
    6.4712568547734133E+00 
    1.3982398013689934E+01 
    1.3966675382060309E+01 
    1.2459406199108042E+01 
    9.7056634014505825E+00 
    2.4998318164052558E+00 
    1.3646699598736294E+01 
    9.5712854546551132E+00 
    1.3766096290570255E+01 
    8.7599037253330483E+00 
    1.3495243310775320E+01 
    8.8550916144651060E-01 
    1.2079134716554488E+01 
    8.8950955897750621E+00 
    8.0532587474712400E+00 
    7.8598284605048550E+00 
    9.2222976644677761E+00 
    1.0305483482180520E+01 
    9.5957393769830528E+00 
    6.5629661560652623E+00 
    1.3488507154060365E+01 
    1.2982045883498978E+01 
    1.0920145282510394E+01 
    9.6184343230029370E+00 
    1.4274206977475539E+00 
    7.2887437920316733E+00 
    5.1242204787304733E+00 
    1.3663963176070204E+01 
    1.0409525760870276E+01 
    1.3030430626417152E+01 
    1.3045287274349992E+01 
    8.3707304661375073E+00 
    1.0952501161571961E+01 
    1.2694090635667594E+01 
    1.3953263445340708E+01 
    6.1173711058154483E+00 
    1.1468148019841392E+01 
    9.6408278150206161E+00 
    5.4687580160147045E+00 
    8.3538829730086359E+00 
    1.1479494370894241E+01 
    1.3008489401638696E+01 
    9.2789339903256867E+00 
    1.3109903340822722E+01 
    1.2894929151235253E+01 
    1.2847292152368313E+01 
    9.1054893478094883E+00 
    7.9961408183543279E+00 
    1.2706671765637664E+01 
    8.1052374486219403E+00 
    9.3709116583339327E+00 
    7.9590056590849603E+00 
    9.1853800416633788E+00 
    1.3054979313475615E+01 
    5.7780329954492773E+00 
    8.2790133143453311E+00 
    1.3585418638792984E+01 
    9.1192193330025955E+00 
    1.0308712855242582E+01 
    5.9289232617680696E+00 
    8.1553074321731547E+00 
    1.2875396884792771E+01 
    1.3161070621040833E+01 
    4.8558377805203872E+00 
    9.1230218761960415E+00 
    7.9993293386992077E+00 
    1.4349834765966193E+01 
    1.3843071635192938E+01 
    1.4594953222716459E+01 
    9.1440460615473818E+00 
    1.3027946557978691E+01 
    1.2654421322355171E+01 
    9.0199228515200502E+00 
    1.2698988404620710E+01 
    9.6209940170890551E+00 
    5.5115277112550194E+00 
    9.3826286595109387E+00 
    1.3573261754418537E+01 
    1.2696005778545173E+01 
    6.2650676280064621E+00 
    1.2722961059647318E+01 
    1.0319185539198058E+01 
    9.3237705974470160E+00 
    8.8894871626967706E+00 
    1.2573942505380716E+01 
    9.8077213754576622E+00 
    1.2711269482017048E+01 
    9.0344354560195939E+00 
    5.6558255148691829E+00 
    9.4400881237311669E+00 
    7.8665549013382092E+00 
    1.1629435188937151E+01 
    1.3758089797678736E+01 
    1.2705372808254456E+01 
    1.3641057987815200E+01 
    9.0681916212512874E+00 
    6.1149916231951922E+00 
    6.1988038072755991E+00 
    9.4961173382892721E+00 
    9.3472947941960260E+00 
    1.3743079501091173E+00 
    1.2249105638988917E+01 
    1.4093667954130046E+01 
    8.7688644520351122E+00 
    5.7657192936873152E+00 
    1.0670546683154019E+01 
    1.2721579578016746E+01 
    6.7675095215209522E+00 
    4.6155774239894471E+00 
    9.3213929646174893E+00 
    1.2802564556938490E+01 
    1.3401788692687498E+01 
    1.3298449088371779E+01 
    1.3162658833787971E+01 
    6.6240296001822729E+00 
    9.3154783506133789E+00 
    1.2287561617859716E+01 
    7.2773770262680832E+00 
    1.3001422980884383E+01 
    1.1183098001685934E+01 
    6.2854318147249089E+00 
    1.2821489888261377E+01 
    1.3670281323038418E+01 
    1.2851635560233291E+01 
    6.5323741133859246E+00 
    9.3992475980289214E+00 
    7.1413467660680876E+00 
    8.8558041766721391E+00 
    1.2713812487690475E+01 
    1.2703077964257657E+01 
    6.5687068444519134E+00 
    1.3530699717350666E+01 
    9.9114507555432017E+00 
    1.2736512984260909E+01 
    1.3511512190825902E+01 
    1.2723838559886904E+01 
    1.1848574190183193E+01 
    1.4399304973298218E+01 
    8.7380617202027011E+00 
    1.3612625688333814E+01 
    1.2762879694283415E+01 
    1.3680272011367000E+01 
    1.3523795800845704E+01 
    8.8239224739040818E+00 
    9.2113886162603293E+00 
    8.7596279966585318E+00 
    1.1394911989543715E+01 
    3.7761735676717763E+00 
    9.4365155053328458E+00 
    1.4518691369510980E+01 
    9.6201641207733459E+00 
    9.7955496683705352E+00 
    1.3654732525289807E+01 
    1.3875914235895857E+01 
    8.6970145666849152E+00 
    1.2726894644312299E+01 
    1.2700090498415562E+01 
    9.7839411467929125E+00 
    1.3481046391282829E+01 
    6.6062594820193787E+00 
    4.2473418571811772E+00 
    1.0047106759314879E+01 
    9.6338215230494946E+00 
    1.2704716020428611E+01 
    6.1668503400553965E+00 
    1.3219091805399698E+01 
    4.3311208082400201E+00 
    9.5710135299480807E+00 
    8.8793779508493866E+00 
    9.3744646778573948E+00 
    1.5753949541764468E+01 
    3.6699919833816366E+00 
    9.3577340040409620E+00 
    1.1142373647298761E+01 
    8.9749318013906940E+00 
    7.2041755569519639E+00 
    1.3325808414774674E+01 
    1.5339826351230732E+01 
    1.3467727303507445E+01 
    9.3030752731232678E+00 
    5.4487386123489578E+00 
    1.5195432310351421E+01 
    1.2975191919261418E+01 
    6.8189233500043862E+00 
    8.9435771555519086E+00 
    1.4045104317438151E+01 
    3.1118474028382077E+00 
    9.6807299845418537E+00 
    1.3450614083015036E+01 
    9.3883000317081393E+00 
    8.1488422853219920E+00 
    9.3955935010742646E+00 
    1.2502852631243316E+01 
    9.3678779049982186E+00 
    4.8687658220328043E+00 
    8.7322475786656495E-01 
    6.9369434900382414E+00 
    1.4247875348592183E+01 
    8.7576988413092423E+00 
    1.0600086637183987E+01 
    1.0101083510748516E+01 
    1.1720273021421947E+01 
    9.4020286281123280E+00 
    1.2891783285573128E+01 
    1.5767609924930012E+01 
    1.1102852891007068E+01 
    1.3586650830083261E+01 
    5.1189059737537279E-01 
    1.2704820923382162E+01 
    5.3023476464320574E+00 
    1.4678548533185813E+01 
    9.3707003711367918E+00 
    8.2724629915536063E+00 
    7.2737630236995994E+00 
    5.0772450681356345E+00 
    1.0485493125481383E+01 
    7.3516862893421671E+00 
    1.1532182375861332E+01 
    2.1225731433498365E+00 
    1.0351491054498721E+01 
    1.2642600400410631E+01 
    5.6291031975100303E+00 
    1.3172247923373680E+01 
    1.4502993005588213E+01 
    1.3020206543792664E+01 
    9.2475156969894439E+00 
    9.3695112991369314E+00 
    9.3637456067894931E+00 
    5.5253084925300078E+00 
    8.5230994478151274E+00 
    8.3907754331692530E+00 
    9.3533606390577599E+00 
    8.7025301021874153E+00 
    6.5167642938772263E-01 
    6.0648618306892930E+00 
    9.0516449366888043E+00 
    9.3303987934552524E+00 
    1.1848814077319838E+01 
    2.0369915538321579E+00 
    9.7462869991672072E+00 
    9.6384082988053663E+00 
    3.5264495467113481E+00 
    1.2890295243759089E+01 
    8.1230900369262944E+00 
    9.5028620389714025E+00 
    1.2977090845302683E+01 
    5.1278728445706685E+00 
    1.3010236411665435E+01 
    8.2154560392342759E+00 
    9.2610662491781970E-01 
    8.8134868923197871E+00 
    1.3542390848549893E+01 
    1.2705203552301093E+01 
    1.2724018108772913E+01 
    9.6920993453141762E+00 
    9.5752976021437419E+00 
    8.1024937833833199E+00 
    6.5783936129144962E+00 
    1.3086480804888890E+01 
    8.9429642500778499E+00 
    6.3419650233433273E+00 
    1.2718736017842534E+01 
    1.3371384904822360E+01 
    9.5169533523958201E+00 
    9.1665527086183012E+00 
    1.5653254269330771E+01 
    9.7847626614637875E+00 
    1.3093157382633908E+01 
    7.7279469965492416E+00 
    1.5795591765727202E+01 
    6.1622186120659261E+00 
    8.4706685083067814E+00 
    6.8895370315776612E+00 
    9.9999430628441583E+00 
    7.9205144692453056E+00 
    1.5779665261427837E+01 
    9.8295141719779338E+00 
    1.2439070531611916E+01 
    6.3353623539328128E+00 
    9.3998545744867918E+00 
    1.2941993756930316E+01 
    7.9380326218513062E+00 
    6.8554259351781868E+00 
    1.0355152332019264E+01 
    1.3147865749318829E+01 
    6.8015834867471199E+00 
    8.8967828791593035E+00 
    9.1949555111196908E+00 
    1.2682362265814549E+01 
    9.0007181331192552E+00 
    1.3126558443208156E+01 
    1.3707503067282277E+01 
    8.1256545229959496E+00 
    7.9766862402842262E+00 
    7.3900981939796688E+00 
    1.2817445124874357E+01 
    9.6593934967002166E+00 
    1.5375473418710071E+01 
    1.2059625700374150E+01 
    1.2906408580582188E+01 
    1.5075543010436618E+01 
    1.4505774809939847E+01 
    9.4461106903767291E+00 
    9.3393928232683301E+00 
    1.2486507161788042E+01 
    1.2739518282723678E+01 
    1.3252834438591551E+01 
    1.2996773028447281E+01 
    1.5672073462510852E+01 
    9.7843281099770909E+00 
    8.2145628212416675E+00 
    9.7854438202923735E+00 
    1.3625981136290331E+01 
    9.5446159843578506E+00 
    5.5232914880607593E+00 
    9.2328370130870869E+00 
    1.4018591086340384E+01 
    9.6718943846088195E+00 
    8.2183593574191320E+00 
    9.1347154408285895E+00 
    1.4119448488639478E+01 
    1.2757730792199990E+01 
    7.8422114337563729E+00 
    1.4249502143377899E+01 
    9.4769854579964488E+00 
    1.3225157881297049E+01 
    1.4132911871451773E+01 
    9.9383102135768020E+00 
    5.1260138750385087E+00 
    1.0336201816967376E+01 
    5.3002182416324599E+00 
    9.5912319406200073E+00 
    9.3888699505206343E+00 
    1.0871941890540242E+01 
    5.5943662975043003E+00 
    1.1539419151630439E+01 
    9.4117926245406380E+00 
    1.2986140098436369E+01 
    9.9006527477872339E+00 
    7.6620505717246301E+00 
    9.0133700668971120E+00 
    9.8395265861170618E+00 
    9.8816418537808186E+00 
    1.3760846849897280E+01 
    7.8766224672192964E+00 
    7.7476844500525877E+00 
    5.8685466477384782E+00 
    1.3271066290031772E+01 
    9.0531954275513229E+00 
    1.2570530747287409E+01 
    9.3583311871837260E+00 
    6.3898860069713894E+00 
    1.2789538896868455E+01 
    9.3326987980321654E+00 
    6.9366235637076521E+00 
    7.3255066269866376E+00 
    7.5693907672706020E+00 
    1.3018369510640506E+01 
    9.3552131421424463E+00 
    1.3596955799997126E+01 
    9.2898540785083572E+00 
    9.2260608695314268E+00 
    8.8216393963796929E+00 
    1.2866243791397025E+01 
    9.1420506517644853E+00 
    7.6058885298413701E+00 
    1.4492724614420105E+01 
    1.2942817145120413E+01 
    6.4532699808911955E+00 
    2.5778008867926703E+00 
    9.3451231104120218E+00 
    8.7570559459370489E+00 
    7.9745052849735067E+00 
    8.6456690928934528E+00 
    1.2891757150997437E+01 
    9.0791297679618452E+00 
    8.2643826139444894E+00 
    1.2759947210659702E+01 
    6.3971280586819024E+00 
    1.2450035283576993E+01 
    8.4566084465786773E+00 
    7.5609182369310215E+00 
    8.0434464653634699E+00 
    1.3304024016304991E+01 
    9.3778351949019179E+00 
    9.3864017911993720E+00 
    5.6763511476770878E+00 
    6.1086383445952626E+00 
    1.1860890207021223E+01 
    9.3969694182072256E+00 
    9.3829535252075917E+00 
    1.4233613154668630E+01 
    7.7449090150025688E+00 
    9.4097294091831927E+00 
    6.6203036896035314E+00 
    6.8356915886081993E+00 
    1.2864573848671789E+01 
    9.0323638759700788E+00 
    6.6977312997361897E+00 
    9.8993423009267119E+00 
    9.2733553500411272E+00 
    1.2865718931680375E+01 
    1.4321762755417296E+01 
    9.8957425408302779E-01 
    9.3496759842618538E+00 
    9.6321670742598258E+00 
    1.2922215406938147E+01 
    8.8783530241315898E+00 
    9.3515378082760030E+00 
    1.3817969898582977E+01 
    8.0710693517322252E+00 
    6.7536568888035005E+00 
    1.1346801227627028E+01 
    1.2717896715224137E+01 
    1.3680456484113845E+01 
    1.3927259802204555E+01 
    9.2038768779576099E+00 
    9.3421142142782525E+00 
    1.0546563373789542E+01 
    6.1333347351364216E+00 
    1.2834775400226569E+01 
    7.2486950189800874E+00 
    6.3868035560825946E+00 
    1.1772820028813724E+01 
    1.1061009420086993E+01 
    6.2628051727961935E+00 
    1.2751884618471902E+01 
    1.3666449584710501E+01 
    9.7990448211044487E+00 
    1.4417507077339563E+01 
    1.2781976026445339E+01 
    8.9510856419766007E+00 
    1.3417793873900225E+01 
    6.8358352276985128E+00 
    1.2734417255639830E+01 
    9.3488439342469860E+00 
    9.3113813716050071E+00 
    1.4394021921611854E+01 
    9.0850454097746134E+00 
    1.1495944939271194E+01 
    8.0259626929595314E+00 
    1.3776530209187209E+01 
    1.2648445707059713E+01 
    8.3523406906908004E+00 
    1.2696031738084939E+01 
    8.4499105779705754E+00 
    9.3621552236463472E+00 
    1.3628264440148630E+01 
    1.2997601245387413E+01 
    1.3669658653152457E+01 
    1.2926124182762448E+01 
    8.5323716490706971E+00 
    8.7357848384021057E+00 
    1.3675720003097890E+01 
    8.8462595243766433E+00 
    1.2584679009718196E+01 
    9.0750638086999338E+00 
    3.8119097567964522E+00 
    6.4516995140488245E+00 
    5.9803911526617908E+00 
    1.3631310909373951E+01 
    1.4327084093986654E+01 
    1.2712881288871543E+01 
    1.0838087705819467E+01 
    1.2981568356342915E+01 
    1.2757210626467819E+01 
    1.3302020915575035E+01 
    5.4880355641568093E+00 
    3.5479453740701108E+00 
    1.0643273525201266E+01 
    9.0262502674806253E+00 
    1.2893360857565908E+01 
    1.2891146748489222E+01 
    9.6515213422952009E+00 
    1.2925417343667519E+01 
    9.3369069530157613E+00 
    9.2435938599046352E+00 
    4.9550168200913127E+00 
    3.5330828209964915E+00 
    1.4115427861304012E+01 
    7.2664565289810970E+00 
    8.2924340859410286E+00 
    9.5516345242785423E+00 
    1.5654052045188891E+01 
    9.6410343353865162E+00 
    9.6302301520251916E+00 
    4.0023011342478938E+00 
    9.6422208803933760E+00 
    9.6553948875721041E+00 
    1.3199462708269527E+01 
    8.0504224511488705E+00 
    8.9446969903874951E+00 
    1.4275021009693264E+01 
    9.3573881013206943E+00 
    1.2727735983229275E+01 
    1.2976683831912396E+01 
    1.1557275358399632E+01 
    7.9101646964062571E+00 
    1.2926729796868324E+01 
    9.1607114354093770E+00 
    1.2907001618654348E+01 
    1.2669704248260810E+01 
    1.3649554757372606E+01 
    1.2921287764011215E+01 
    1.2119582829170090E+01 
    9.3471182869366558E+00 
    6.2149088960196250E+00 
    1.5532138669997753E+01 
    7.3918423024077748E+00 
    1.3577535512107930E+01 
    9.3446658789699857E+00 
    7.7937038087439863E+00 
    4.6481194703851143E+00 
    9.6891205980132646E+00 
    1.2912993375537166E+01 
    1.2912002906740552E+01 
    9.3426013880324366E+00 
    9.3391398999169333E+00 
    1.4472735943338686E+01 
    1.3873687059714282E+01 
    9.6583906465712097E+00 
    3.3004552658179405E+00 
    1.2094164986554341E+01 
    1.5778007073217625E+01 
    9.3502640289499226E+00 
    1.1188426665839151E+01 
    8.8753810136167104E+00 
    1.5396289335896736E+01 
    1.3949676760101317E+01 
    1.3720178012666226E+01 
    9.6786349881375813E+00 
    4.3473925279240371E+00 
    8.8373810008703302E+00 
    8.8986948935548327E+00 
    8.9420118469266843E+00 
    3.5888721376595023E+00 