# vtk DataFile Version 2.0
Pressure Field Data 
ASCII 
DATASET UNSTRUCTURED_GRID 

POINTS 2860 double 

    0.0000000000000000E+00     0.0000000000000000E+00     0.0000000000000000E+00 
    1.0000000000000000E+00     0.0000000000000000E+00     0.0000000000000000E+00 
    1.0000000000000000E+00     1.0000000000000000E+00     0.0000000000000000E+00 
    0.0000000000000000E+00     1.0000000000000000E+00     0.0000000000000000E+00 
    2.5000000000000000E-01     2.5000000000000000E-01     0.0000000000000000E+00 
    7.5000000000000000E-01     2.5000000000000000E-01     0.0000000000000000E+00 
    7.5000000000000000E-01     7.5000000000000000E-01     0.0000000000000000E+00 
    2.5000000000000000E-01     7.5000000000000000E-01     0.0000000000000000E+00 
    3.1249999999942091E-02     0.0000000000000000E+00     0.0000000000000000E+00 
    6.2499999999873469E-02     0.0000000000000000E+00     0.0000000000000000E+00 
    9.3749999999826514E-02     0.0000000000000000E+00     0.0000000000000000E+00 
    1.2499999999977961E-01     0.0000000000000000E+00     0.0000000000000000E+00 
    1.5624999999968961E-01     0.0000000000000000E+00     0.0000000000000000E+00 
    1.8749999999959971E-01     0.0000000000000000E+00     0.0000000000000000E+00 
    2.1874999999950970E-01     0.0000000000000000E+00     0.0000000000000000E+00 
    2.4999999999941969E-01     0.0000000000000000E+00     0.0000000000000000E+00 
    2.8124999999932920E-01     0.0000000000000000E+00     0.0000000000000000E+00 
    3.1249999999923850E-01     0.0000000000000000E+00     0.0000000000000000E+00 
    3.4374999999914790E-01     0.0000000000000000E+00     0.0000000000000000E+00 
    3.7499999999905720E-01     0.0000000000000000E+00     0.0000000000000000E+00 
    4.0624999999896660E-01     0.0000000000000000E+00     0.0000000000000000E+00 
    4.3749999999887590E-01     0.0000000000000000E+00     0.0000000000000000E+00 
    4.6874999999878530E-01     0.0000000000000000E+00     0.0000000000000000E+00 
    4.9999999999869471E-01     0.0000000000000000E+00     0.0000000000000000E+00 
    5.3124999999877620E-01     0.0000000000000000E+00     0.0000000000000000E+00 
    5.6249999999885780E-01     0.0000000000000000E+00     0.0000000000000000E+00 
    5.9374999999893940E-01     0.0000000000000000E+00     0.0000000000000000E+00 
    6.2499999999902101E-01     0.0000000000000000E+00     0.0000000000000000E+00 
    6.5624999999910261E-01     0.0000000000000000E+00     0.0000000000000000E+00 
    6.8749999999918421E-01     0.0000000000000000E+00     0.0000000000000000E+00 
    7.1874999999926570E-01     0.0000000000000000E+00     0.0000000000000000E+00 
    7.4999999999934730E-01     0.0000000000000000E+00     0.0000000000000000E+00 
    7.8124999999942890E-01     0.0000000000000000E+00     0.0000000000000000E+00 
    8.1249999999951039E-01     0.0000000000000000E+00     0.0000000000000000E+00 
    8.4374999999959199E-01     0.0000000000000000E+00     0.0000000000000000E+00 
    8.7499999999967359E-01     0.0000000000000000E+00     0.0000000000000000E+00 
    9.0624999999975520E-01     0.0000000000000000E+00     0.0000000000000000E+00 
    9.3749999999983680E-01     0.0000000000000000E+00     0.0000000000000000E+00 
    9.6874999999991840E-01     0.0000000000000000E+00     0.0000000000000000E+00 
    1.0000000000000000E+00     3.1249999999942091E-02     0.0000000000000000E+00 
    1.0000000000000000E+00     6.2499999999873469E-02     0.0000000000000000E+00 
    1.0000000000000000E+00     9.3749999999826514E-02     0.0000000000000000E+00 
    1.0000000000000000E+00     1.2499999999977961E-01     0.0000000000000000E+00 
    1.0000000000000000E+00     1.5624999999968961E-01     0.0000000000000000E+00 
    1.0000000000000000E+00     1.8749999999959971E-01     0.0000000000000000E+00 
    1.0000000000000000E+00     2.1874999999950970E-01     0.0000000000000000E+00 
    1.0000000000000000E+00     2.4999999999941969E-01     0.0000000000000000E+00 
    1.0000000000000000E+00     2.8124999999932920E-01     0.0000000000000000E+00 
    1.0000000000000000E+00     3.1249999999923850E-01     0.0000000000000000E+00 
    1.0000000000000000E+00     3.4374999999914790E-01     0.0000000000000000E+00 
    1.0000000000000000E+00     3.7499999999905720E-01     0.0000000000000000E+00 
    1.0000000000000000E+00     4.0624999999896660E-01     0.0000000000000000E+00 
    1.0000000000000000E+00     4.3749999999887590E-01     0.0000000000000000E+00 
    1.0000000000000000E+00     4.6874999999878530E-01     0.0000000000000000E+00 
    1.0000000000000000E+00     4.9999999999869471E-01     0.0000000000000000E+00 
    1.0000000000000000E+00     5.3124999999877620E-01     0.0000000000000000E+00 
    1.0000000000000000E+00     5.6249999999885780E-01     0.0000000000000000E+00 
    1.0000000000000000E+00     5.9374999999893940E-01     0.0000000000000000E+00 
    1.0000000000000000E+00     6.2499999999902101E-01     0.0000000000000000E+00 
    1.0000000000000000E+00     6.5624999999910261E-01     0.0000000000000000E+00 
    1.0000000000000000E+00     6.8749999999918421E-01     0.0000000000000000E+00 
    1.0000000000000000E+00     7.1874999999926570E-01     0.0000000000000000E+00 
    1.0000000000000000E+00     7.4999999999934730E-01     0.0000000000000000E+00 
    1.0000000000000000E+00     7.8124999999942890E-01     0.0000000000000000E+00 
    1.0000000000000000E+00     8.1249999999951039E-01     0.0000000000000000E+00 
    1.0000000000000000E+00     8.4374999999959199E-01     0.0000000000000000E+00 
    1.0000000000000000E+00     8.7499999999967359E-01     0.0000000000000000E+00 
    1.0000000000000000E+00     9.0624999999975520E-01     0.0000000000000000E+00 
    1.0000000000000000E+00     9.3749999999983680E-01     0.0000000000000000E+00 
    1.0000000000000000E+00     9.6874999999991840E-01     0.0000000000000000E+00 
    9.6875000000003686E-01     1.0000000000000000E+00     0.0000000000000000E+00 
    9.3750000000011691E-01     1.0000000000000000E+00     0.0000000000000000E+00 
    9.0625000000015765E-01     1.0000000000000000E+00     0.0000000000000000E+00 
    8.7500000000017863E-01     1.0000000000000000E+00     0.0000000000000000E+00 
    8.4375000000028044E-01     1.0000000000000000E+00     0.0000000000000000E+00 
    8.1250000000040856E-01     1.0000000000000000E+00     0.0000000000000000E+00 
    7.8125000000054956E-01     1.0000000000000000E+00     0.0000000000000000E+00 
    7.5000000000066480E-01     1.0000000000000000E+00     0.0000000000000000E+00 
    7.1875000000086831E-01     1.0000000000000000E+00     0.0000000000000000E+00 
    6.8750000000102829E-01     1.0000000000000000E+00     0.0000000000000000E+00 
    6.5625000000114431E-01     1.0000000000000000E+00     0.0000000000000000E+00 
    6.2500000000129829E-01     1.0000000000000000E+00     0.0000000000000000E+00 
    5.9375000000147926E-01     1.0000000000000000E+00     0.0000000000000000E+00 
    5.6250000000168354E-01     1.0000000000000000E+00     0.0000000000000000E+00 
    5.3125000000188671E-01     1.0000000000000000E+00     0.0000000000000000E+00 
    5.0000000000205835E-01     1.0000000000000000E+00     0.0000000000000000E+00 
    4.6875000000192979E-01     1.0000000000000000E+00     0.0000000000000000E+00 
    4.3750000000180111E-01     1.0000000000000000E+00     0.0000000000000000E+00 
    4.0625000000167238E-01     1.0000000000000000E+00     0.0000000000000000E+00 
    3.7500000000154382E-01     1.0000000000000000E+00     0.0000000000000000E+00 
    3.4375000000141509E-01     1.0000000000000000E+00     0.0000000000000000E+00 
    3.1250000000128642E-01     1.0000000000000000E+00     0.0000000000000000E+00 
    2.8125000000115769E-01     1.0000000000000000E+00     0.0000000000000000E+00 
    2.5000000000102918E-01     1.0000000000000000E+00     0.0000000000000000E+00 
    2.1875000000090050E-01     1.0000000000000000E+00     0.0000000000000000E+00 
    1.8750000000077180E-01     1.0000000000000000E+00     0.0000000000000000E+00 
    1.5625000000064329E-01     1.0000000000000000E+00     0.0000000000000000E+00 
    1.2500000000051459E-01     1.0000000000000000E+00     0.0000000000000000E+00 
    9.3750000000385914E-02     1.0000000000000000E+00     0.0000000000000000E+00 
    6.2500000000257239E-02     1.0000000000000000E+00     0.0000000000000000E+00 
    3.1250000000128557E-02     1.0000000000000000E+00     0.0000000000000000E+00 
    0.0000000000000000E+00     9.6875000000003686E-01     0.0000000000000000E+00 
    0.0000000000000000E+00     9.3750000000011691E-01     0.0000000000000000E+00 
    0.0000000000000000E+00     9.0625000000015765E-01     0.0000000000000000E+00 
    0.0000000000000000E+00     8.7500000000017863E-01     0.0000000000000000E+00 
    0.0000000000000000E+00     8.4375000000028044E-01     0.0000000000000000E+00 
    0.0000000000000000E+00     8.1250000000040856E-01     0.0000000000000000E+00 
    0.0000000000000000E+00     7.8125000000054956E-01     0.0000000000000000E+00 
    0.0000000000000000E+00     7.5000000000066480E-01     0.0000000000000000E+00 
    0.0000000000000000E+00     7.1875000000086831E-01     0.0000000000000000E+00 
    0.0000000000000000E+00     6.8750000000102829E-01     0.0000000000000000E+00 
    0.0000000000000000E+00     6.5625000000114431E-01     0.0000000000000000E+00 
    0.0000000000000000E+00     6.2500000000129829E-01     0.0000000000000000E+00 
    0.0000000000000000E+00     5.9375000000147926E-01     0.0000000000000000E+00 
    0.0000000000000000E+00     5.6250000000168354E-01     0.0000000000000000E+00 
    0.0000000000000000E+00     5.3125000000188671E-01     0.0000000000000000E+00 
    0.0000000000000000E+00     5.0000000000205835E-01     0.0000000000000000E+00 
    0.0000000000000000E+00     4.6875000000192979E-01     0.0000000000000000E+00 
    0.0000000000000000E+00     4.3750000000180111E-01     0.0000000000000000E+00 
    0.0000000000000000E+00     4.0625000000167238E-01     0.0000000000000000E+00 
[...]
CELL_DATA 2795 
SCALARS Pressure double 1 
LOOKUP_TABLE default 

    7.7752681089812050E+00 
    1.9454846147783663E+01 
    1.3038882691631171E+01 
    1.2643850463401154E+01 
    9.6802941235884674E+00 
    1.9088463150417880E+01 
    2.0388544530621139E+01 
    6.8874916896971401E+00 
    1.3661447810152008E+01 
    1.0324246180066805E+01 
    8.7023564139642922E+00 
    1.8644727105865805E+01 
    1.9195894850031273E+01 
    1.9023831271713433E+01 
    1.1941481509177681E+01 
    6.7647845365561006E+00 
    1.1499476010170268E+01 
    9.3047075422160539E+00 
    1.8024877236106448E+01 
    1.3016422753673769E+01 
    1.2895936403814474E+01 
    1.8894393053279693E+01 
    1.2257917428475055E+01 
    4.4728089022890538E-01 
    1.8647015448746249E+01 
    1.9256749552388264E+01 
    2.0450578254987068E+01 
    8.3444259438076358E+00 
    1.8505770732762208E+01 
    2.0427197100356576E+01 
    1.3218237763399292E+01 
    1.3251155988567936E+01 
    9.0425311202954184E+00 
    1.2996490631632890E+01 
    4.0256253608031232E+00 
    1.1511925547407833E+01 
    1.2979148864843941E+01 
    2.0485719731331173E+01 
    2.0365435320147892E+01 
    1.8665212428895231E+01 
    9.6305875587798830E+00 
    1.8744656948451890E+01 
    9.2838124809349698E-01 
    1.2957356042970412E+01 
    2.0009428132424386E+01 
    1.9656434624338388E+01 
    1.8628058929726262E+01 
    1.4131404494430120E+01 
    1.8666413781095194E+01 
    1.1783612955268628E+01 
    1.1163410732856144E+01 
    1.3210150077718758E+01 
    1.2833259037829425E+01 
    1.1562390330522721E+01 
    1.3309167211296957E+01 
    1.7681633694777815E+01 
    1.5468934117669948E+01 
    9.7336493333341298E+00 
    1.8911518408236155E+01 
    1.8765556114803658E+01 
    1.2583551221690227E+01 
    1.2513456066330827E+01 
    1.2508369296753623E+01 
    2.0273935951533684E+01 
    2.0626715395131683E+01 
    1.1508417527187360E+01 
    1.3208357949271692E+01 
    1.8308911997461788E+01 
    1.5268711893777441E+01 
    1.2572572661244168E+01 
    2.0680278911042041E+01 
    1.8921553140043940E+01 
    1.1333976274201806E+01 
    1.9816533829235734E+01 
    1.3623971450793352E+01 
    1.8472792378341978E+01 
    2.0514207897021187E+01 
    1.3672109298422050E+01 
    7.9310982436471260E+00 
    1.3229687519389930E+01 
    2.0364553443100860E+01 
    2.0721681955219168E+01 
    1.1530945652401872E+01 
    1.3144024455263331E+01 
    2.0803909220620429E+01 
    1.2977052163700929E+01 
    1.2385450324386627E+01 
    1.5878381283946618E+01 
    7.5480840978163579E+00 
    1.1201150891189723E+01 
    1.3140835750510796E+01 
    1.3838405052558331E+01 
    2.2754290512310437E+01 
    9.3913117436162246E+00 
    1.3217574367263039E+01 
    1.8597598108869608E+01 
    1.9107275802426745E+01 
    8.1950876377334936E+00 
    1.2811855018337107E+01 
    1.3179167916736052E+01 
    1.9151445921807721E+01 
    1.3168869137622554E+01 
    1.9025283245239674E+01 
    4.8603503704328777E+00 
    8.4504170282387392E+00 
    1.3473567678831913E+01 
    1.9475686128550411E+01 
    1.1461438171825884E+01 
    1.2256005312937898E+01 
    1.3143170680467758E+01 
    1.2340764104734275E+01 
    1.4991423954837741E+01 
    1.1880051687156007E+01 
    1.1347967512214419E+01 
    8.6690121034482228E+00 
    1.5866321863573082E+01 
    1.3256262911902899E+01 
    2.0143569718717742E+01 
    1.1277767977223407E+01 
    1.2614279667903110E+01 
    1.8936882719974793E+01 
    1.0235311911384585E+01 
    1.9687757609642137E+01 
    1.3061618191045220E+01 
    1.2520624574980166E+01 
    1.9120325634195744E+01 
    1.3244171377692382E+01 
    2.0536149070505022E+01 
    1.5911597160692772E+01 
    1.7413530556189965E+01 
    2.0476341162708831E+01 
    9.4086683251863601E+00 
    1.3496863601689874E+01 
    1.9193814869973515E+01 
    3.6126613360296216E+00 
    1.3280595847071126E+01 
    2.0425458174872894E+01 
    1.2555765740149972E+01 
    1.4596113562127243E+01 
    8.1353207073562110E+00 
    1.8622520064363009E+01 
    2.3354500332880654E+01 
    1.6611686005141074E+01 
    1.2559793042649638E+01 
    1.1044851701842987E+01 
    1.4169563446376026E+01 
    1.3081276786883651E+01 
    8.7943754872425686E+00 
    2.0469342205961418E+01 
    1.9178740339052798E+01 
    1.8602114397313883E+01 
    1.3841138064981632E+01 
    1.1283831220676420E+01 
    1.2890460855591224E+01 
    1.9855570270666167E+01 
    1.1669900888710901E+01 
    1.3170804769186510E+01 
    1.1908040959999694E+01 
    1.5698216167416795E+01 
    2.3340669610608643E+01 
    1.8580129888146928E+01 
    1.1176875838615816E+01 
    1.9443218591877439E+01 
    1.9404227374167654E+01 
    1.9538801598358027E+01 
    2.1095006043586931E+01 
    2.1856765303309810E+01 
    1.9616815562519996E+01 
    1.3198647754953747E+01 
    1.4357636418592870E+01 
    1.9309487714383994E+01 
    2.0133815142421476E+01 
    9.1970259501791407E+00 
    1.8621699207698697E+01 
    1.9778531243763837E+01 
    8.9464328894862906E+00 
    2.0949793673188722E+01 
    2.0941248660106414E+01 
    1.8130292976024080E+01 
    1.3581543775827683E+01 
    3.3239071521080734E+00 
    2.0416888245600401E+01 
    1.3400494416821063E+01 
    2.0609137815004775E+01 
    1.2455773171390605E+01 
    2.0065979681602467E+01 
    1.1625823524516214E+00 
    1.7406371473382436E+01 
    1.2570054430467533E+01 
    1.1228792787104927E+01 
    1.0883520133953818E+01 
    1.3024117938141497E+01 
    1.4479508371431896E+01 
    1.3742368151840633E+01 
    8.8038741084596523E+00 
    2.0139987076073158E+01 
    1.9254955900045132E+01 
    1.5429764274294323E+01 
    1.3462651412622177E+01 
    1.8148875427581359E+00 
    9.8774075300346418E+00 
    6.7018276859050205E+00 
    2.0442015299424693E+01 
    1.4804611286808132E+01 
    1.9155750998457606E+01 
    1.9356631393993858E+01 
    1.1766545133978072E+01 
    1.5532297444268899E+01 
    1.8575486135722922E+01 
    2.0916697798903783E+01 
    8.1038108506591886E+00 
    1.6637686637132646E+01 
    1.3711578547541798E+01 
    7.1568587339238379E+00 
    1.1772598164972303E+01 
    1.6319973682141928E+01 
    1.9298160774172853E+01 
    1.3083755209428627E+01 
    1.9495918083900019E+01 
    1.9076465639610824E+01 
    1.9000954942077662E+01 
    1.2895042076202719E+01 
    1.1084343676646432E+01 
    1.8618350372037721E+01 
    1.1324410666314343E+01 
    1.3178473148777790E+01 
    1.1061358815187385E+01 
    1.3113586005420515E+01 
    1.9360182373261722E+01 
    7.9545482423516836E+00 
    1.1639503276070686E+01 
    2.0308459196928276E+01 
    1.2904895959702090E+01 
    1.4664192557695017E+01 
    8.1602748384749830E+00 
    1.1425062187717021E+01 
    1.9035726611339342E+01 
    1.9589192507678138E+01 
    6.6574826494617403E+00 
    1.2920212816125330E+01 
    1.1112964461802763E+01 
    2.1543115398770983E+01 
    2.0738625158010560E+01 
    2.1907439015094365E+01 
    1.2943918122847895E+01 
    1.9330331737234285E+01 
    1.8485475160077169E+01 
    1.2773081465218207E+01 
    1.8597964892013575E+01 
    1.3462983224648406E+01 
    7.2572146336096202E+00 
    1.3347244947936884E+01 
    2.0292977542313331E+01 
    1.8591218431292351E+01 
    8.6498309224410921E+00 
    1.8636213712066247E+01 
    1.4516231649400780E+01 
    1.3252003333448693E+01 
    1.2652613565114116E+01 
    1.8356268013948235E+01 
    1.3951511335009219E+01 
    1.8622564912989894E+01 
    1.2875142996994448E+01 
    7.5284685431264604E+00 
    1.3266484513820552E+01 
    1.0898795369830861E+01 
    1.6644330882624175E+01 
    2.0611155323700011E+01 
    1.8623564855481494E+01 
    2.0410734032352565E+01 
    1.2834918836316740E+01 
    8.4256517259859223E+00 
    8.5500153081048165E+00 
    1.3504038595921594E+01 
    1.3145877616388862E+01 
    1.8259901724257317E+00 
    1.7728365152533364E+01 
    2.1129432254304895E+01 
    1.2480612391944637E+01 
    7.5829246895578866E+00 
    1.5329522212470630E+01 
    1.8626911675034385E+01 
    9.0820376016159283E+00 
    6.0362805279330587E+00 
    1.3127473774238641E+01 
    1.8796728631119056E+01 
    2.0007512442413162E+01 
    1.9650547142742628E+01 
    1.9601755582087915E+01 
    8.8719068332311881E+00 
    1.3246643817392666E+01 
    1.8031089878760842E+01 
    1.0122751172265257E+01 
    1.9174133115849077E+01 
    1.5850983909754310E+01 
    8.6769540027706960E+00 
    1.8745058679714340E+01 
    2.0396987224709267E+01 
    1.8853188946445005E+01 
    8.7285748492113431E+00 
    1.3203772584112937E+01 
    9.6500971229577566E+00 
    1.2422068359508536E+01 
    1.8619938125626138E+01 
    1.8603057173140840E+01 
    8.7800819648262944E+00 
    2.0136136760183518E+01 
    1.3902616790625796E+01 
    1.8701041485262344E+01 
    2.0186369806328642E+01 
    1.8658699723339485E+01 
    1.6968907454484782E+01 
    2.1652664596243437E+01 
    1.2399657912422192E+01 
    2.0365360904532604E+01 
    1.8718677167620879E+01 
    2.0480623647538167E+01 
    2.0121901557173448E+01 
    1.2545161981570310E+01 
    1.3025973193389746E+01 
    1.2468989273545402E+01 
    1.6198114729717236E+01 
    4.8836246745974856E+00 
    1.3417372090933306E+01 
    2.1808497810479192E+01 
    1.3469652972085594E+01 
    1.3728777426403804E+01 
    2.0432010920789587E+01 
    2.0774100928225749E+01 
    1.2252655400802261E+01 
    1.8640691611032775E+01 
    1.8606045744799658E+01 
    1.3711276629184265E+01 
    2.0037182324414971E+01 
    9.1420819763972254E+00 
    5.7926237185050384E+00 
    1.4105582820076627E+01 
    1.3485513528509468E+01 
    1.8590647447204503E+01 
    8.1728347665386050E+00 
    1.9516915693733470E+01 
    5.9070621609766905E+00 
    1.3408469331002934E+01 
    1.2546707416400011E+01 
    1.3176754613036955E+01 
    2.3395980206062777E+01 
    4.7365084517073681E+00 
    1.3304003562809866E+01 
    1.6311463293894800E+01 
    1.2705066094365083E+01 
    9.7770280043010729E+00 
    1.9824068114403669E+01 
    2.2865460969534908E+01 
    2.0033888422675396E+01 
    1.3219333133438401E+01 
    7.1138635884405739E+00 
    2.2703305206034265E+01 
    1.9211951779556010E+01 
    9.3000773034129836E+00 
    1.2763016099571010E+01 
    2.1069198391846669E+01 
    4.0148505823357574E+00 
    1.3557554914437267E+01 
    2.0060891495161460E+01 
    1.3194535679977204E+01 
    1.1393290241015913E+01 
    1.3358648445554884E+01 
    1.8144732947713234E+01 
    1.3173890133159594E+01 
    6.2941656105342974E+00 
    1.1479436707443085E+00 
    9.6310923419045427E+00 
    2.1411453945754143E+01 
    1.2468657476706595E+01 
    1.5061055220490747E+01 
    1.4371836418570664E+01 
    1.6708237000243379E+01 
    1.3210176332053155E+01 
    1.9048810790623548E+01 
    2.3411747960921097E+01 
    1.5761641741992147E+01 
    2.0318325520193284E+01 
    6.6957078709154283E-01 
    1.8603356664391470E+01 
    7.0173104400177202E+00 
    2.2024352282481253E+01 
    1.3322726464013961E+01 
    1.1634573384519120E+01 
    9.8606006422129582E+00 
    6.6306626813780492E+00 
    1.4753473003629756E+01 
    1.0248100503512916E+01 
    1.6485433806871765E+01 
    2.7885983486618726E+00 
    1.4568525383075018E+01 
    1.8471091719516117E+01 
    7.7469544413104714E+00 
    1.9386492304756185E+01 
    2.1687865354033733E+01 
    1.9183327227541707E+01 
    1.3131892480846931E+01 
    1.3169628921693599E+01 
    1.3312761147520522E+01 
    7.2113923928614936E+00 
    1.2068482980974244E+01 
    1.1840883402309270E+01 
    1.3297614908067439E+01 
    1.2367467959862791E+01 
    8.5860240946019717E-01 
    8.0980315370831857E+00 
    1.2909471311763452E+01 
    1.3262174782744351E+01 
    1.7015056381147804E+01 
    2.6224747002311273E+00 
    1.3655128529729943E+01 
    1.3495275586757325E+01 
    4.5520746987822864E+00 
    1.8942491137638012E+01 
    1.1334994401506972E+01 
    1.3326607539329142E+01 
    1.9176270836268259E+01 
    6.6507156197655002E+00 
    1.9109087904384825E+01 
    1.1530940881773029E+01 
    1.1803343019752890E+00 
    1.2554996742736940E+01 
    2.0200497893683799E+01 
    1.8612110045941304E+01 
    1.8649225100812490E+01 
    1.3784529753181186E+01 
    1.3411829341497519E+01 
    1.1330230341101245E+01 
    8.8475174914698265E+00 
    1.9328070192957771E+01 
    1.2754660789632712E+01 
    8.5991161072391602E+00 
    1.8635517117070680E+01 
    1.9839589814693564E+01 
    1.3536067052765342E+01 
    1.2962605310067509E+01 
    2.3272605450819569E+01 
    1.3712625509933636E+01 
    1.9414699990985358E+01 
    1.0653209019361674E+01 
    2.3440494403765339E+01 
    8.4998235473304646E+00 
    1.1880952556920416E+01 
    9.5716635530636029E+00 
    1.4036841350063487E+01 
    1.1103700445827965E+01 
    2.3422796029297363E+01 
    1.3779895106203073E+01 
    1.8132769974655712E+01 
    8.7446371883474630E+00 
    1.3204112060122640E+01 
    1.9165195611478389E+01 
    1.1143859490449247E+01 
    9.2380854505985912E+00 
    1.4984016574495897E+01 
    1.9444066894491112E+01 
    9.4277274243827662E+00 
    1.2578721257202529E+01 
    1.3007006408916800E+01 
    1.8566386025299703E+01 
    1.2736393312632925E+01 
    1.9539768227183984E+01 
    2.0525549571020115E+01 
    1.1366425560637264E+01 
    1.1092347921668630E+01 
    1.0286848288220432E+01 
    1.8793439681920376E+01 
    1.3514833094774733E+01 
    2.2912612840167135E+01 
    1.7203444386820525E+01 
    1.9078754998009881E+01 
    2.2540604251600435E+01 
    2.1694791153470518E+01 
    1.3258505872187614E+01 
    1.3276319877413377E+01 
    1.8148960543195052E+01 
    1.8662307845855914E+01 
    1.9609545799414121E+01 
    1.9234881269206749E+01 
    2.3301004651476781E+01 
    1.3711947888645032E+01 
    1.1522503907764982E+01 
    1.3672963866747136E+01 
    2.0384899348920349E+01 
    1.3369899244215430E+01 
    7.5559314532380562E+00 
    1.3109083467542728E+01 
    2.1020085723251096E+01 
    1.3543908215613174E+01 
    1.1534544124493303E+01 
    1.2937235717058662E+01 
    2.1189943827275208E+01 
    1.8858112527675338E+01 
    1.0831405890933038E+01 
    2.1390805724826368E+01 
    1.3291857722976911E+01 
    1.9706771308501253E+01 
    2.1212342148358577E+01 
    1.4107683493640483E+01 
    6.6648224205367841E+00 
    1.4721487089237737E+01 
    6.9029983286655545E+00 
    1.3428514454503249E+01 
    1.3199270658211237E+01 
    1.5586607947914283E+01 
    7.3207706060199058E+00 
    1.6691910990082171E+01 
    1.3218886312910183E+01 
    1.9225325516831528E+01 
    1.4410159756617999E+01 
    1.0515688656357387E+01 
    1.2765152241023497E+01 
    1.3996166684364987E+01 
    1.3856992650496540E+01 
    2.0585665742209983E+01 
    1.0909185081123995E+01 
    1.0678815270273054E+01 
    7.7254745186352771E+00 
    1.9705717521060372E+01 
    1.2822865737367231E+01 
    1.8477440134254245E+01 
    1.3163456768873422E+01 
    8.5092997243641815E+00 
    1.8864826060895101E+01 
    1.3136406337848999E+01 
    9.3537201536330308E+00 
    9.9709889782464725E+00 
    1.0377416527052713E+01 
    1.9258383549567505E+01 
    1.3300382751687110E+01 
    2.0321135949735652E+01 
    1.3090549222413314E+01 
    1.3019652338969994E+01 
    1.2465333407563980E+01 
    1.9000551083803703E+01 
    1.2918433674936493E+01 
    1.0429939805114682E+01 
    2.1684205170851115E+01 
    1.9119202709506553E+01 
    8.9162652859309475E+00 
    3.3115320478213062E+00 
    1.3286098222292688E+01 
    1.2368602039493293E+01 
    1.1084734140186649E+01 
    1.2180222833493250E+01 
    1.8931495322802778E+01 
    1.2873084095565599E+01 
    1.1570306529898357E+01 
    1.8700197026433298E+01 
    8.8354577464193707E+00 
    1.8095990779856322E+01 
    1.1901062165768847E+01 
    1.0353528134113656E+01 
    1.1217808181266964E+01 
    1.9844751086305727E+01 
    1.3179712447215669E+01 
    1.3189603414360118E+01 
    7.4364968804897300E+00 
    8.0844156437819183E+00 
    1.7071465208881904E+01 
    1.3201158221553174E+01 
    1.3340936546614930E+01 
    2.1376091617683141E+01 
    1.0680088270711011E+01 
    1.3215524234919720E+01 
    9.1632056945980409E+00 
    9.4774233562090444E+00 
    1.8933933442337175E+01 
    1.2768460098285301E+01 
    8.9734959375702239E+00 
    1.3843317737306414E+01 
    1.3088612312640528E+01 
    1.8960773592191767E+01 
    2.1508589206617813E+01 
    1.2474006607172634E+00 
    1.3292876978386888E+01 
    1.3484075332845453E+01 
    1.9098318418957778E+01 
    1.2652972489531384E+01 
    1.3147358850812681E+01 
    2.0602955171251590E+01 
    1.1268015143331603E+01 
    9.0584278490050512E+00 
    1.6045005491772859E+01 
    1.8631128188627979E+01 
    2.0478519058018428E+01 
    2.0876049456811057E+01 
    1.3073878998323039E+01 
    1.3280754270589243E+01 
    1.4822802888520201E+01 
    8.4504267027682971E+00 
    1.8832164622383942E+01 
    9.8186237503462852E+00 
    8.8188182691131356E+00 
    1.6735952810925546E+01 
    1.5623851021524489E+01 
    8.6395596122407454E+00 
    1.8686853557351245E+01 
    2.0455637456700423E+01 
    1.3734049009807736E+01 
    2.1653745692668981E+01 
    1.8737519339810309E+01 
    1.2722468878171091E+01 
    1.9922628118650110E+01 
    9.4782051284659676E+00 
    1.8651438893766251E+01 
    1.3291254827742636E+01 
    1.3239924915385444E+01 
    2.1641690771050065E+01 
    1.2873549495398732E+01 
    1.6334115813975441E+01 
    1.1187644529239089E+01 
    2.0638326896430460E+01 
    1.8488866543939864E+01 
    1.1733555977267610E+01 
    1.8613472314745678E+01 
    1.1918031625964996E+01 
    1.3155755081872348E+01 
    2.0392674296836901E+01 
    1.9174931054848894E+01 
    2.0460599726318115E+01 
    1.9098608020758036E+01 
    1.2088523765677625E+01 
    1.2373275110065205E+01 
    2.0471767559144098E+01 
    1.2554719723032502E+01 
    1.8329262988875421E+01 
    1.2851674946736999E+01 
    4.9332658457867833E+00 
    8.9175379586020806E+00 
    8.2442603295213441E+00 
    2.0396901491625425E+01 
    2.1524128611742722E+01 
    1.8630376842800242E+01 
    1.5291899411317546E+01 
    1.9098028743686189E+01 
    1.8693041250868717E+01 
    1.9776431742408313E+01 
    7.1609696692766907E+00 
    4.5821605900680824E+00 
    1.4980995965299364E+01 
    1.2862439073330751E+01 
    1.8944937880270309E+01 
    1.8941883612275003E+01 
    1.3507361476201165E+01 
    1.9007717094839332E+01 
    1.3272813982925225E+01 
    1.3164947884198043E+01 
    6.4322033769915494E+00 
    4.5555766227742858E+00 
    2.1183665437553866E+01 
    1.0122142229509347E+01 
    1.1666468605134039E+01 
    1.3384244983434474E+01 
    2.3276389813804890E+01 
    1.3496108878698383E+01 
    1.3692615216488644E+01 
    5.2500726680345560E+00 
    1.3495908463637271E+01 
    1.3513299083351470E+01 
    1.9437873339635292E+01 
    1.1218171264303463E+01 
    1.2614824699981691E+01 
    2.1435617899167354E+01 
    1.3304354463577026E+01 
    1.8650982737657923E+01 
    1.9037746453426685E+01 
    1.6426795059564615E+01 
    1.1095140049731915E+01 
    1.9091345587318674E+01 
    1.3033430426763264E+01 
    1.8945839940815880E+01 
    1.8540706209603645E+01 
    2.0427868648136123E+01 
    1.9112342377630394E+01 
    1.7441728495160550E+01 
    1.3288537217742732E+01 
    8.5753777547723011E+00 
    2.3126439458373831E+01 
    1.0055223965887512E+01 
    2.0298272295809600E+01 
    1.3285045425682558E+01 
    1.0748893905298127E+01 
    6.2267622475824078E+00 
    1.3558729733004817E+01 
    1.9077728517090733E+01 
    1.9052251413272305E+01 
    1.3132287586409143E+01 
    1.3277212468407161E+01 
    2.1707304593825764E+01 
    2.0791036842627541E+01 
    1.3521062602147206E+01 
    4.2641202157118654E+00 
    1.7309875716114508E+01 
    2.3417770156590660E+01 
    1.3292995712297685E+01 
    1.5835094741212654E+01 
    1.2652849009552428E+01 
    2.2954443457624581E+01 
    2.0918447073555750E+01 
    2.0437504090986874E+01 
    1.3549093641461667E+01 
    5.8365509634375492E+00 
    1.2596473641588942E+01 
    1.2683610521313749E+01 
    1.2734347487796249E+01 
    4.6773834661342892E+00 