# vtk DataFile Version 2.0
Pressure Field Data 
ASCII 
DATASET UNSTRUCTURED_GRID 

POINTS 2860 double 

    0.0000000000000000E+00     0.0000000000000000E+00     0.0000000000000000E+00 
    1.0000000000000000E+00     0.0000000000000000E+00     0.0000000000000000E+00 
    1.0000000000000000E+00     1.0000000000000000E+00     0.0000000000000000E+00 
    0.0000000000000000E+00     1.0000000000000000E+00     0.0000000000000000E+00 
    2.5000000000000000E-01     2.5000000000000000E-01     0.0000000000000000E+00 
    7.5000000000000000E-01     2.5000000000000000E-01     0.0000000000000000E+00 
    7.5000000000000000E-01     7.5000000000000000E-01     0.0000000000000000E+00 
    2.5000000000000000E-01     7.5000000000000000E-01     0.0000000000000000E+00 
    3.1249999999942091E-02     0.0000000000000000E+00     0.0000000000000000E+00 
    6.2499999999873469E-02     0.0000000000000000E+00     0.0000000000000000E+00 
    9.3749999999826514E-02     0.0000000000000000E+00     0.0000000000000000E+00 
    1.2499999999977961E-01     0.0000000000000000E+00     0.0000000000000000E+00 
    1.5624999999968961E-01     0.0000000000000000E+00     0.0000000000000000E+00 
    1.8749999999959971E-01     0.0000000000000000E+00     0.0000000000000000E+00 
    2.1874999999950970E-01     0.0000000000000000E+00     0.0000000000000000E+00 
    2.4999999999941969E-01     0.0000000000000000E+00     0.0000000000000000E+00 
    2.8124999999932920E-01     0.0000000000000000E+00     0.0000000000000000E+00 
    3.1249999999923850E-01     0.0000000000000000E+00     0.0000000000000000E+00 
    3.4374999999914790E-01     0.0000000000000000E+00     0.0000000000000000E+00 
    3.7499999999905720E-01     0.0000000000000000E+00     0.0000000000000000E+00 
    4.0624999999896660E-01     0.0000000000000000E+00     0.0000000000000000E+00 
    4.3749999999887590E-01     0.0000000000000000E+00     0.0000000000000000E+00 
    4.6874999999878530E-01     0.0000000000000000E+00     0.0000000000000000E+00 
    4.9999999999869471E-01     0.0000000000000000E+00     0.0000000000000000E+00 
    5.3124999999877620E-01     0.0000000000000000E+00     0.0000000000000000E+00 
    5.6249999999885780E-01     0.0000000000000000E+00     0.0000000000000000E+00 
    5.9374999999893940E-01     0.0000000000000000E+00     0.0000000000000000E+00 
    6.2499999999902101E-01     0.0000000000000000E+00     0.0000000000000000E+00 
    6.5624999999910261E-01     0.0000000000000000E+00     0.0000000000000000E+00 
    6.8749999999918421E-01     0.0000000000000000E+00     0.0000000000000000E+00 
    7.1874999999926570E-01     0.0000000000000000E+00     0.0000000000000000E+00 
    7.4999999999934730E-01     0.0000000000000000E+00     0.0000000000000000E+00 
    7.8124999999942890E-01     0.0000000000000000E+00     0.0000000000000000E+00 
    8.1249999999951039E-01     0.0000000000000000E+00     0.0000000000000000E+00 
    8.4374999999959199E-01     0.0000000000000000E+00     0.0000000000000000E+00 
    8.7499999999967359E-01     0.0000000000000000E+00     0.0000000000000000E+00 
    9.0624999999975520E-01     0.0000000000000000E+00     0.0000000000000000E+00 
    9.3749999999983680E-01     0.0000000000000000E+00     0.0000000000000000E+00 
    9.6874999999991840E-01     0.0000000000000000E+00     0.0000000000000000E+00 
    1.0000000000000000E+00     3.1249999999942091E-02     0.0000000000000000E+00 
    1.0000000000000000E+00     6.2499999999873469E-02     0.0000000000000000E+00 
    1.0000000000000000E+00     9.3749999999826514E-02     0.0000000000000000E+00 
    1.0000000000000000E+00     1.2499999999977961E-01     0.0000000000000000E+00 
    1.0000000000000000E+00     1.5624999999968961E-01     0.0000000000000000E+00 
    1.0000000000000000E+00     1.8749999999959971E-01     0.0000000000000000E+00 
    1.0000000000000000E+00     2.1874999999950970E-01     0.0000000000000000E+00 
    1.0000000000000000E+00     2.4999999999941969E-01     0.0000000000000000E+00 
    1.0000000000000000E+00     2.8124999999932920E-01     0.0000000000000000E+00 
    1.0000000000000000E+00     3.1249999999923850E-01     0.0000000000000000E+00 
    1.0000000000000000E+00     3.4374999999914790E-01     0.0000000000000000E+00 
    1.0000000000000000E+00     3.7499999999905720E-01     0.0000000000000000E+00 
    1.0000000000000000E+00     4.0624999999896660E-01     0.0000000000000000E+00 
    1.0000000000000000E+00     4.3749999999887590E-01     0.0000000000000000E+00 
    1.0000000000000000E+00     4.6874999999878530E-01     0.0000000000000000E+00 
    1.0000000000000000E+00     4.9999999999869471E-01     0.0000000000000000E+00 
    1.0000000000000000E+00     5.3124999999877620E-01     0.0000000000000000E+00 
    1.0000000000000000E+00     5.6249999999885780E-01     0.0000000000000000E+00 
    1.0000000000000000E+00     5.9374999999893940E-01     0.0000000000000000E+00 
    1.0000000000000000E+00     6.2499999999902101E-01     0.0000000000000000E+00 
    1.0000000000000000E+00     6.5624999999910261E-01     0.0000000000000000E+00 
    1.0000000000000000E+00     6.8749999999918421E-01     0.0000000000000000E+00 
    1.0000000000000000E+00     7.1874999999926570E-01     0.0000000000000000E+00 
    1.0000000000000000E+00     7.4999999999934730E-01     0.0000000000000000E+00 
    1.0000000000000000E+00     7.8124999999942890E-01     0.0000000000000000E+00 
    1.0000000000000000E+00     8.1249999999951039E-01     0.0000000000000000E+00 
    1.0000000000000000E+00     8.4374999999959199E-01     0.0000000000000000E+00 
    1.0000000000000000E+00     8.7499999999967359E-01     0.0000000000000000E+00 
    1.0000000000000000E+00     9.0624999999975520E-01     0.0000000000000000E+00 
    1.0000000000000000E+00     9.3749999999983680E-01     0.0000000000000000E+00 
    1.0000000000000000E+00     9.6874999999991840E-01     0.0000000000000000E+00 
    9.6875000000003686E-01     1.0000000000000000E+00     0.0000000000000000E+00 
    9.3750000000011691E-01     1.0000000000000000E+00     0.0000000000000000E+00 
    9.0625000000015765E-01     1.0000000000000000E+00     0.0000000000000000E+00 
    8.7500000000017863E-01     1.0000000000000000E+00     0.0000000000000000E+00 
    8.4375000000028044E-01     1.0000000000000000E+00     0.0000000000000000E+00 
    8.1250000000040856E-01     1.0000000000000000E+00     0.0000000000000000E+00 
    7.8125000000054956E-01     1.0000000000000000E+00     0.0000000000000000E+00 
    7.5000000000066480E-01     1.0000000000000000E+00     0.0000000000000000E+00 
    7.1875000000086831E-01     1.0000000000000000E+00     0.0000000000000000E+00 
    6.8750000000102829E-01     1.0000000000000000E+00     0.0000000000000000E+00 
    6.5625000000114431E-01     1.0000000000000000E+00     0.0000000000000000E+00 
    6.2500000000129829E-01     1.0000000000000000E+00     0.0000000000000000E+00 
    5.9375000000147926E-01     1.0000000000000000E+00     0.0000000000000000E+00 
    5.6250000000168354E-01     1.0000000000000000E+00     0.0000000000000000E+00 
    5.3125000000188671E-01     1.0000000000000000E+00     0.0000000000000000E+00 
    5.0000000000205835E-01     1.0000000000000000E+00     0.0000000000000000E+00 
    4.6875000000192979E-01     1.0000000000000000E+00     0.0000000000000000E+00 
    4.3750000000180111E-01     1.0000000000000000E+00     0.0000000000000000E+00 
    4.0625000000167238E-01     1.0000000000000000E+00     0.0000000000000000E+00 
    3.7500000000154382E-01     1.0000000000000000E+00     0.0000000000000000E+00 
    3.4375000000141509E-01     1.0000000000000000E+00     0.0000000000000000E+00 
    3.1250000000128642E-01     1.0000000000000000E+00     0.0000000000000000E+00 
    2.8125000000115769E-01     1.0000000000000000E+00     0.0000000000000000E+00 
    2.5000000000102918E-01     1.0000000000000000E+00     0.0000000000000000E+00 
    2.1875000000090050E-01     1.0000000000000000E+00     0.0000000000000000E+00 
    1.8750000000077180E-01     1.0000000000000000E+00     0.0000000000000000E+00 
    1.5625000000064329E-01     1.0000000000000000E+00     0.0000000000000000E+00 
    1.2500000000051459E-01     1.0000000000000000E+00     0.0000000000000000E+00 
    9.3750000000385914E-02     1.0000000000000000E+00     0.0000000000000000E+00 
    6.2500000000257239E-02     1.0000000000000000E+00     0.0000000000000000E+00 
    3.1250000000128557E-02     1.0000000000000000E+00     0.0000000000000000E+00 
    0.0000000000000000E+00     9.6875000000003686E-01     0.0000000000000000E+00 
    0.0000000000000000E+00     9.3750000000011691E-01     0.0000000000000000E+00 
    0.0000000000000000E+00     9.0625000000015765E-01     0.0000000000000000E+00 
    0.0000000000000000E+00     8.7500000000017863E-01     0.0000000000000000E+00 
    0.0000000000000000E+00     8.4375000000028044E-01     0.0000000000000000E+00 
    0.0000000000000000E+00     8.1250000000040856E-01     0.0000000000000000E+00 
    0.0000000000000000E+00     7.8125000000054956E-01     0.0000000000000000E+00 
    0.0000000000000000E+00     7.5000000000066480E-01     0.0000000000000000E+00 
    0.0000000000000000E+00     7.1875000000086831E-01     0.0000000000000000E+00 
    0.0000000000000000E+00     6.8750000000102829E-01     0.0000000000000000E+00 
    0.0000000000000000E+00     6.5625000000114431E-01     0.0000000000000000E+00 
    0.0000000000000000E+00     6.2500000000129829E-01     0.0000000000000000E+00 
    0.0000000000000000E+00     5.9375000000147926E-01     0.0000000000000000E+00 
    0.0000000000000000E+00     5.6250000000168354E-01     0.0000000000000000E+00 
    0.0000000000000000E+00     5.3125000000188671E-01     0.0000000000000000E+00 
    0.0000000000000000E+00     5.0000000000205835E-01     0.0000000000000000E+00 
    0.0000000000000000E+00     4.6875000000192979E-01     0.0000000000000000E+00 
    0.0000000000000000E+00     4.3750000000180111E-01     0.0000000000000000E+00 
    0.0000000000000000E+00     4.0625000000167238E-01     0.0000000000000000E+00 
[...]
CELL_DATA 2795 
SCALARS Pressure double 1 
LOOKUP_TABLE default 

    6.9438869268718779E+00 
    1.4937079691555335E+01 
    1.0604335992376633E+01 
    1.0284513544465154E+01 
    8.3851964644430126E+00 
    1.4800721307022741E+01 
    1.5536757896879253E+01 
    6.2597337837805425E+00 
    1.1161731675295581E+01 
    8.5328034286822447E+00 
    7.2797892192000271E+00 
    1.4542648284664500E+01 
    1.4858351475417917E+01 
    1.4770472146911343E+01 
    9.7597169822089977E+00 
    6.1610862362857270E+00 
    9.5597934913916998E+00 
    7.7462792263259193E+00 
    1.4176968410689911E+01 
    1.0589941116097144E+01 
    1.0484720319470469E+01 
    1.4703236741252294E+01 
    1.0033362506243325E+01 
    4.1003731364813684E-01 
    1.4547255175728051E+01 
    1.4811705399401257E+01 
    1.5568688294317674E+01 
    7.0474782902621493E+00 
    1.4462666824295434E+01 
    1.5554064507803206E+01 
    1.0709639625481255E+01 
    1.0803496272038714E+01 
    7.6808610782008850E+00 
    1.0566725985287640E+01 
    3.5550972940208139E+00 
    9.5609155261356076E+00 
    1.0554252565059249E+01 
    1.5593390578559863E+01 
    1.5513876759420222E+01 
    1.4555766885791069E+01 
    8.3393789418290059E+00 
    1.4516785341964997E+01 
    8.5949797701318276E-01 
    1.0511907183721181E+01 
    1.5362267764345090E+01 
    1.5139144447305158E+01 
    1.4531845280759336E+01 
    1.1533110834813046E+01 
    1.4600583292516514E+01 
    9.7594823252820326E+00 
    9.3448051418073401E+00 
    1.0768398044973509E+01 
    1.0416270751416009E+01 
    9.6156162917253916E+00 
    1.0777507864093918E+01 
    1.3965536183160145E+01 
    1.2480498369038893E+01 
    8.4266535250925454E+00 
    1.4708396780570471E+01 
    1.4631055501421864E+01 
    1.0280423000635981E+01 
    1.0196655501240718E+01 
    1.0193845043493390E+01 
    1.5456812532511702E+01 
    1.5745810453656011E+01 
    9.5738730668565424E+00 
    1.0767169922039590E+01 
    1.4417122442113952E+01 
    1.2374164632983726E+01 
    1.0243169687549532E+01 
    1.5727492915579662E+01 
    1.4659865304217119E+01 
    9.4508453286993372E+00 
    1.5254999794032239E+01 
    1.1001261257148736E+01 
    1.4392810591861233E+01 
    1.5613480150974731E+01 
    1.1051695859806276E+01 
    7.1500445101868966E+00 
    1.0785496392223504E+01 
    1.5522510003697249E+01 
    1.5748976469422692E+01 
    9.5802258920323897E+00 
    1.0705949511553728E+01 
    1.5797368948070289E+01 
    1.0555080880922418E+01 
    1.0115067515879707E+01 
    1.2807066748173529E+01 
    6.8191386022321643E+00 
    9.3708828660917991E+00 
    1.0704428457239372E+01 
    1.1326157916211317E+01 
    1.7239283928817922E+01 
    8.1670309357236430E+00 
    1.0775119246637988E+01 
    1.4509814852669582E+01 
    1.4806069912511465E+01 
    7.2719350057017591E+00 
    1.0421739322635101E+01 
    1.0736493750003895E+01 
    1.4827670429808856E+01 
    1.0732752342653800E+01 
    1.4755712081496231E+01 
    4.4865889436829054E+00 
    7.0763679030196842E+00 
    1.0994399891821557E+01 
    1.4944815275960302E+01 
    9.5278237378487507E+00 
    1.0071363672295506E+01 
    1.0714435819488445E+01 
    1.0086408765798691E+01 
    1.2100398598957602E+01 
    9.8244129688379722E+00 
    9.4573561178172163E+00 
    7.6838620160688009E+00 
    1.2573204834606754E+01 
    1.0807018796950361E+01 
    1.5371445762254480E+01 
    9.2703272809095179E+00 
    1.0268234657932720E+01 
    1.4643539406004876E+01 
    8.7528237527477213E+00 
    1.5108819155550004E+01 
    1.0630842384457470E+01 
    1.0202957545245338E+01 
    1.4807965664205994E+01 
    1.0797933112874238E+01 
    1.5620488334087339E+01 
    1.2823930847118845E+01 
    1.3805878988219551E+01 
    1.5585592835637694E+01 
    8.1819431360149615E+00 
    1.1021991761981837E+01 
    1.4798170441263499E+01 
    3.3480261146774679E+00 
    1.0756714832173918E+01 
    1.5551862704818451E+01 
    1.0230126282858642E+01 
    1.1712006319442770E+01 
    7.2944449898644645E+00 
    1.4507837872125741E+01 
    1.7715002062993246E+01 
    1.3304460736836413E+01 
    1.0229017233085463E+01 
    9.2710076329642277E+00 
    1.1389195499567615E+01 
    1.0647921942431466E+01 
    7.3610899032938066E+00 
    1.5579472495231830E+01 
    1.4847737373052606E+01 
    1.4511543654504280E+01 
    1.1336279607419366E+01 
    9.4290143256955261E+00 
    1.0481686563046248E+01 
    1.5287033579817075E+01 
    9.6547828828648754E+00 
    1.0673451117511719E+01 
    9.8094431013037955E+00 
    1.2326083226616593E+01 
    1.7703427548534929E+01 
    1.4502957827543822E+01 
    9.4160710276358568E+00 
    1.5005941675807128E+01 
    1.4903414356487309E+01 
    1.4984840164116502E+01 
    1.5994254520350948E+01 
    1.6530835015914821E+01 
    1.5139203817818201E+01 
    1.0758875983571544E+01 
    1.1564188708298383E+01 
    1.4971584086298865E+01 
    1.5387055446420444E+01 
    7.6777733814584135E+00 
    1.4531364997975894E+01 
    1.5251765996791180E+01 
    7.4743416430361806E+00 
    1.5908320006627306E+01 
    1.5892545634108943E+01 
    1.4246007667379962E+01 
    1.1100696709933304E+01 
    2.9102596702368766E+00 
    1.5550895441656833E+01 
    1.0934266775048238E+01 
    1.5680629914258319E+01 
    1.0166333517787470E+01 
    1.5388558909083443E+01 
    1.0661074476895043E+00 
    1.3815847677729858E+01 
    1.0241593982372093E+01 
    9.3880854777251024E+00 
    9.1745393485059825E+00 
    1.0599591324128038E+01 
    1.1735887882460839E+01 
    1.1082833974466682E+01 
    7.8189286223242487E+00 
    1.5377343571154038E+01 
    1.4821163225977601E+01 
    1.2503051906298225E+01 
    1.0988540482317006E+01 
    1.7002001176591952E+00 
    8.5282275344506058E+00 
    6.1011743546726223E+00 
    1.5566531108003485E+01 
    1.1840711222415617E+01 
    1.4871935558886536E+01 
    1.4890357445968824E+01 
    9.7334071285702866E+00 
    1.2357608662949852E+01 
    1.4506428958608085E+01 
    1.5879523257130209E+01 
    7.2321380316835775E+00 
    1.3144026144872782E+01 
    1.1065430603379093E+01 
    6.4907279102592090E+00 
    9.7230717886522839E+00 
    1.2926874401153961E+01 
    1.4850304866497485E+01 
    1.0653144033904939E+01 
    1.4963012016827477E+01 
    1.4723385713161095E+01 
    1.4670623361186587E+01 
    1.0486769572704548E+01 
    9.3089773424756679E+00 
    1.4519714926534560E+01 
    9.4470341859196800E+00 
    1.0738977719529762E+01 
    9.2848303192131052E+00 
    1.0632236587777596E+01 
    1.4900534502086394E+01 
    6.6833316044394682E+00 
    9.6389805975436129E+00 
    1.5483465395179740E+01 
    1.0497612378676234E+01 
    1.1742049291118514E+01 
    6.8547698942705129E+00 
    9.5018222829158070E+00 
    1.4701506781183754E+01 
    1.5019545474032466E+01 
    5.6230231042409180E+00 
    1.0506164986591669E+01 
    9.3320159451615083E+00 
    1.6300452451645963E+01 
    1.5760179723417503E+01 
    1.6557465405514350E+01 
    1.0526640662292733E+01 
    1.4871603236270627E+01 
    1.4461288618513025E+01 
    1.0392981228512207E+01 
    1.4511829995594500E+01 
    1.0989487143425841E+01 
    6.5665172188672800E+00 
    1.0794492475105427E+01 
    1.5469187769851423E+01 
    1.4508595011375583E+01 
    7.2588179159303277E+00 
    1.4538413594227293E+01 
    1.1755180737505162E+01 
    1.0738332974986088E+01 
    1.0301307283610180E+01 
    1.4374220657880432E+01 
    1.1234275706758250E+01 
    1.4524950627088007E+01 
    1.0452544608543603E+01 
    6.7782131612478951E+00 
    1.0813234165080710E+01 
    9.1810182936454883E+00 
    1.3313986494405238E+01 
    1.5670697946802772E+01 
    1.4517868054681498E+01 
    1.5544921743610505E+01 
    1.0442341093934861E+01 
    7.0717968416492392E+00 
    7.1634991664194176E+00 
    1.0915772600094357E+01 
    1.0713358326886159E+01 
    1.6397190051971127E+00 
    1.4009604928364880E+01 
    1.6035412737267993E+01 
    1.0178823154398382E+01 
    6.8342641419676964E+00 
    1.2260810596015641E+01 
    1.4536892603698643E+01 
    7.9384643856418222E+00 
    5.4943159168563929E+00 
    1.0692861079682389E+01 
    1.4615933330239836E+01 
    1.5283092294001223E+01 
    1.5179949578018581E+01 
    1.5021957899261595E+01 
    7.7993153666762050E+00 
    1.0731639055477716E+01 
    1.4052005728889181E+01 
    8.3779188082547655E+00 
    1.4844214054604512E+01 
    1.2582663232225979E+01 
    7.2577777063016669E+00 
    1.4644613796236889E+01 
    1.5565934032381142E+01 
    1.4670466241153544E+01 
    7.6666480712380665E+00 
    1.0763305758564361E+01 
    8.3613039907840943E+00 
    1.0155929516793169E+01 
    1.4528300637981406E+01 
    1.4516402361985129E+01 
    7.7085593890535513E+00 
    1.5427059436544479E+01 
    1.1308594871908284E+01 
    1.4549061948317403E+01 
    1.5405818004961315E+01 
    1.4536729500883409E+01 
    1.3551692714909171E+01 
    1.6354042609906887E+01 
    1.0137185943462741E+01 
    1.5513835384633152E+01 
    1.4576472450500635E+01 
    1.5587232629168861E+01 
    1.5419768656568763E+01 
    1.0230813592230016E+01 
    1.0594924907537866E+01 
    1.0169953712469482E+01 
    1.3041799935082096E+01 
    4.4957454476354597E+00 
    1.0854418693407739E+01 
    1.6478481725073429E+01 
    1.0990345305115039E+01 
    1.1181746131662083E+01 
    1.5559765917474015E+01 
    1.5795404050029939E+01 
    1.0070600219405144E+01 
    1.4542812217620730E+01 
    1.4512725380199193E+01 
    1.1169026048819804E+01 
    1.5374441331818765E+01 
    7.6241236022000818E+00 
    4.9161844589504575E+00 
    1.1456941768618361E+01 
    1.1004781823774406E+01 
    1.4518034732917249E+01 
    7.2523500771661285E+00 
    1.5095187069290503E+01 
    5.0264939693957089E+00 
    1.0938942458637491E+01 
    1.0265809569443261E+01 
    1.0739969215935666E+01 
    1.7752623500580935E+01 
    4.3688347550794591E+00 
    1.0773918036739271E+01 
    1.2788231441140404E+01 
    1.0342314377433846E+01 
    8.4779547183801096E+00 
    1.5201026856193540E+01 
    1.7330499034022253E+01 
    1.5357912519252636E+01 
    1.0716376836115696E+01 
    6.4565241564006213E+00 
    1.7179025974267432E+01 
    1.4812275061956452E+01 
    8.1798227105284891E+00 
    1.0368090362438020E+01 
    1.5976526124973178E+01 
    3.7076166175424254E+00 
    1.1056199608117103E+01 
    1.5340435034507985E+01 
    1.0754104800208601E+01 
    9.3600139746364164E+00 
    1.0812662712190544E+01 
    1.4262202503221530E+01 
    1.0735571563665760E+01 
    5.7678475617138112E+00 
    1.0542120903934005E+00 
    7.9937887973159105E+00 
    1.6192792855496311E+01 
    1.0168521454414096E+01 
    1.2022129652488479E+01 
    1.1532704955362620E+01 
    1.3223418033278923E+01 
    1.0767639001490991E+01 
    1.4719679086576075E+01 
    1.7766518211173718E+01 
    1.2716878405131110E+01 
    1.5485588607520009E+01 
    6.1269934925646685E-01 
    1.4518381640822057E+01 
    6.3573243679283680E+00 
    1.6644564067298433E+01 
    1.0787187165566962E+01 
    9.5251039809154925E+00 
    8.5115539367972826E+00 
    6.0236163071946436E+00 
    1.2007163753242944E+01 
    8.4666087807463359E+00 
    1.3206583386441897E+01 
    2.4648374730782550E+00 
    1.1791359937332180E+01 
    1.4449000888439173E+01 
    6.5062103961148088E+00 
    1.4997641547122889E+01 
    1.6458109832885867E+01 
    1.4837292045908606E+01 
    1.0657506355153826E+01 
    1.0734381989087991E+01 
    1.0780093735286272E+01 
    6.5169010320842871E+00 
    9.9115670994360361E+00 
    9.7640144213435214E+00 
    1.0769421387788558E+01 
    1.0106609938290745E+01 
    7.8794969488610989E-01 
    7.2818639394422693E+00 
    1.0479732349104216E+01 
    1.0745284256214724E+01 
    1.3560611267754494E+01 
    2.4269833881644693E+00 
    1.1127855192404544E+01 
    1.1010044641366914E+01 
    4.1996035927266453E+00 
    1.4700419620796573E+01 
    9.4599998153091160E+00 
    1.0868762302303836E+01 
    1.4813373562909568E+01 
    6.0654862274516876E+00 
    1.4814600285366710E+01 
    9.5696714437054897E+00 
    1.1038587311135208E+00 
    1.0226957439252365E+01 
    1.5439252977342393E+01 
    1.4518481741202026E+01 
    1.4537824130479516E+01 
    1.1115354987510109E+01 
    1.0942241234718050E+01 
    9.4430029782960876E+00 
    7.8736284947922366E+00 
    1.4933606425226921E+01 
    1.0363726534129334E+01 
    7.6529167037151469E+00 
    1.4532827307647942E+01 
    1.5235738643015077E+01 
    1.0937845185710513E+01 
    1.0545706473267703E+01 
    1.7649062346146991E+01 
    1.1169942267533562E+01 
    1.4942448262618495E+01 
    9.0267345998247919E+00 
    1.7794453894236145E+01 
    7.1211372219007698E+00 
    9.8263677837628070E+00 
    7.9446920982794742E+00 
    1.1405738028370305E+01 
    9.1289351742787748E+00 
    1.7778322463388722E+01 
    1.1218953786626894E+01 
    1.4202010754418874E+01 
    7.3167735221086625E+00 
    1.0763317038195968E+01 
    1.4775924880193688E+01 
    9.1381845972376183E+00 
    8.1133255483905575E+00 
    1.1920096006145538E+01 
    1.5008604165714800E+01 
    7.8407843043866192E+00 
    1.0285556703329533E+01 
    1.0578701343888428E+01 
    1.4493602749255025E+01 
    1.0366501988368835E+01 
    1.4982352004037548E+01 
    1.5616495847608615E+01 
    9.4695058843432971E+00 
    9.3043944835469734E+00 
    8.5047226988060842E+00 
    1.4639488469522158E+01 
    1.1032878511909255E+01 
    1.7366601496808560E+01 
    1.3666870980903962E+01 
    1.4735896171534431E+01 
    1.7054832548845017E+01 
    1.6460456586631924E+01 
    1.0810132076328655E+01 
    1.0754811537343235E+01 
    1.4271422976739780E+01 
    1.4556809970043593E+01 
    1.5120861845489625E+01 
    1.4835512621522582E+01 
    1.7669951728896333E+01 
    1.1169462866983830E+01 
    9.5673549942972915E+00 
    1.1175496854850277E+01 
    1.5528555801070194E+01 
    1.0906769049453644E+01 
    6.4146638822100490E+00 
    1.0642034431551734E+01 
    1.5950783864743871E+01 
    1.1046471483887917E+01 
    9.5725370043224345E+00 
    1.0519167789830714E+01 
    1.6057197904419247E+01 
    1.4571477117350517E+01 
    9.1618590228532213E+00 
    1.6194604918762948E+01 
    1.0839121991170014E+01 
    1.5090384811038026E+01 
    1.6070979318277985E+01 
    1.1346480926069026E+01 
    6.0769738558272541E+00 
    1.1816438351428266E+01 
    6.2757929257046285E+00 
    1.0957388044296087E+01 
    1.0756973684407447E+01 
    1.2458612342794957E+01 
    6.6175630102242620E+00 
    1.3211843103334983E+01 
    1.0775676288643666E+01 
    1.4824118731770223E+01 
    1.1423867348785061E+01 
    9.0000013155972880E+00 
    1.0387009354070784E+01 
    1.1266137774803624E+01 
    1.1275820765839432E+01 
    1.5677650527282719E+01 
    9.1908585934883487E+00 
    9.0475179059928070E+00 
    6.9284459452315241E+00 
    1.5141597232324676E+01 
    1.0430503540570687E+01 
    1.4364485416098457E+01 
    1.0726567502350916E+01 
    7.5201053412677048E+00 
    1.4606754933944005E+01 
    1.0702301560281290E+01 
    8.1360032083609077E+00 
    8.5731214100621429E+00 
    8.8468819344041929E+00 
    1.4858844571747031E+01 
    1.0771343761341070E+01 
    1.5497244744382447E+01 
    1.0661410083622355E+01 
    1.0599445791560719E+01 
    1.0207327253966337E+01 
    1.4691514365184135E+01 
    1.0514421634320216E+01 
    8.8875656059518651E+00 
    1.6447235211494306E+01 
    1.4776371834507005E+01 
    7.4485664308347088E+00 
    3.0711622537912819E+00 
    1.0761092492776427E+01 
    1.0092361693656690E+01 
    9.2992710235720129E+00 
    1.0018635270346151E+01 
    1.4725040777877480E+01 
    1.0480820947015085E+01 
    9.6126952369141652E+00 
    1.4579405222002997E+01 
    7.3847586540890493E+00 
    1.4233197578450190E+01 
    9.7330244702351241E+00 
    8.8587475729263510E+00 
    9.3769740049837047E+00 
    1.5177207596194060E+01 
    1.0742784929590769E+01 
    1.0751038378364267E+01 
    6.6887706254092558E+00 
    7.1835565931280554E+00 
    1.3484117846938984E+01 
    1.0760918233382426E+01 
    1.0799901676770370E+01 
    1.6179219216991235E+01 
    9.0445254478337009E+00 
    1.0773267874151516E+01 
    7.6351243812998284E+00 
    7.8803937917682516E+00 
    1.4689638622307404E+01 
    1.0395435266976904E+01 
    7.8568399296934350E+00 
    1.1338505262480890E+01 
    1.0652475445965027E+01 
    1.4691007226336819E+01 
    1.6271309154310039E+01 
    1.1701968420394939E+00 
    1.0765811978088308E+01 
    1.1002952610883529E+01 
    1.4753414432397060E+01 
    1.0294303255800420E+01 
    1.0715924733026077E+01 
    1.5739319809957692E+01 
    9.4091030705583947E+00 
    7.9214591905161589E+00 
    1.2867659292255471E+01 
    1.4532476147580260E+01 
    1.5586961248170793E+01 
    1.5849744806048744E+01 
    1.0614217389637977E+01 
    1.0757736871969859E+01 
    1.2061466487369131E+01 
    7.1006046138141432E+00 
    1.4662389879020774E+01 
    8.4832943063188839E+00 
    7.3729331394011810E+00 
    1.3376237868083253E+01 
    1.2652014093131907E+01 
    7.2396034626040828E+00 
    1.4569313347930411E+01 
    1.5572161605554605E+01 
    1.1185576826054103E+01 
    1.6372101024540136E+01 
    1.4603341406524123E+01 
    1.0359164143524792E+01 
    1.5306259762222476E+01 
    7.8856922698681435E+00 
    1.4551154542536983E+01 
    1.0764842974597961E+01 
    1.0727227950711518E+01 
    1.6348078124703711E+01 
    1.0467794707857424E+01 
    1.3145668404200906E+01 
    9.3587550393892229E+00 
    1.5690572246609477E+01 
    1.4456024413786427E+01 
    9.7207630100087261E+00 
    1.4507683934042991E+01 
    9.7215645726538220E+00 
    1.0724498270343677E+01 
    1.5530802591544308E+01 
    1.4839182344792260E+01 
    1.5575512686690590E+01 
    1.4757774512556429E+01 
    9.9227496458699722E+00 
    1.0128450889258666E+01 
    1.5582272626317453E+01 
    1.0247446828587933E+01 
    1.4380448340915821E+01 
    1.0453247006310660E+01 
    4.5362785049194931E+00 
    7.4458759315529628E+00 
    6.9119991230874778E+00 
    1.5534251637396487E+01 
    1.6277602259104260E+01 
    1.4526203907697527E+01 
    1.2322485900707564E+01 
    1.4826313762458408E+01 
    1.4576455992313605E+01 
    1.5174887066489079E+01 
    6.4801299215713133E+00 
    4.2221105008709250E+00 
    1.2103402839151171E+01 
    1.0444009446364561E+01 
    1.4727122827756419E+01 
    1.4724721400457247E+01 
    1.1032182244285073E+01 
    1.4762469523653728E+01 
    1.0752289649843952E+01 
    1.0663335472524315E+01 
    5.8703572735953857E+00 
    4.2061645236906227E+00 
    1.6052097488160229E+01 
    8.3809027932120426E+00 
    9.6549816963990231E+00 
    1.0918425564838365E+01 
    1.7650551507852757E+01 
    1.1012483486408952E+01 
    1.1044582942189814E+01 
    4.7755417125416955E+00 
    1.1013879372292372E+01 
    1.1029028473155337E+01 
    1.5046413912274994E+01 
    9.3826513078420835E+00 
    1.0284754577802836E+01 
    1.6221834963044000E+01 
    1.0773808787170928E+01 
    1.4542574127685979E+01 
    1.4785469030935296E+01 
    1.3117258487836986E+01 
    9.1230380205271917E+00 
    1.4758646229852884E+01 
    1.0575945747056844E+01 
    1.4716553152397521E+01 
    1.4479744153198112E+01 
    1.5553979566719079E+01 
    1.4752482372178783E+01 
    1.3853127380619505E+01 
    1.0763013688568577E+01 
    7.1788808795165187E+00 
    1.7526038695354455E+01 
    8.6438804081882505E+00 
    1.5472991980973177E+01 
    1.0760516354228823E+01 
    9.0918629039761196E+00 
    5.5216422600192097E+00 
    1.1068310438576114E+01 
    1.4743232806400538E+01 
    1.4742631923558804E+01 
    1.0704876238185475E+01 
    1.0754898036708637E+01 
    1.6429264381393597E+01 
    1.5792529484812945E+01 
    1.1031383021483657E+01 
    3.9243117720866501E+00 
    1.3779668156824723E+01 
    1.7776149859950554E+01 
    1.0766210723308422E+01 
    1.2707073316321193E+01 
    1.0292336247940046E+01 
    1.7385896537847827E+01 
    1.5874821087164095E+01 
    1.5628430766884518E+01 
    1.1053405013327886E+01 
    5.0961611027192806E+00 
    1.0253219799877188E+01 
    1.0315397802598451E+01 
    1.0356597564028865E+01 
    4.2683879359649097E+00 