# vtk DataFile Version 2.0
Pressure Field Data 
ASCII 
DATASET UNSTRUCTURED_GRID 

POINTS 2860 double 

    0.0000000000000000E+00     0.0000000000000000E+00     0.0000000000000000E+00 
    1.0000000000000000E+00     0.0000000000000000E+00     0.0000000000000000E+00 
    1.0000000000000000E+00     1.0000000000000000E+00     0.0000000000000000E+00 
    0.0000000000000000E+00     1.0000000000000000E+00     0.0000000000000000E+00 
    2.5000000000000000E-01     2.5000000000000000E-01     0.0000000000000000E+00 
    7.5000000000000000E-01     2.5000000000000000E-01     0.0000000000000000E+00 
    7.5000000000000000E-01     7.5000000000000000E-01     0.0000000000000000E+00 
    2.5000000000000000E-01     7.5000000000000000E-01     0.0000000000000000E+00 
    3.1249999999942091E-02     0.0000000000000000E+00     0.0000000000000000E+00 
    6.2499999999873469E-02     0.0000000000000000E+00     0.0000000000000000E+00 
    9.3749999999826514E-02     0.0000000000000000E+00     0.0000000000000000E+00 
    1.2499999999977961E-01     0.0000000000000000E+00     0.0000000000000000E+00 
    1.5624999999968961E-01     0.0000000000000000E+00     0.0000000000000000E+00 
    1.8749999999959971E-01     0.0000000000000000E+00     0.0000000000000000E+00 
    2.1874999999950970E-01     0.0000000000000000E+00     0.0000000000000000E+00 
    2.4999999999941969E-01     0.0000000000000000E+00     0.0000000000000000E+00 
    2.8124999999932920E-01     0.0000000000000000E+00     0.0000000000000000E+00 
    3.1249999999923850E-01     0.0000000000000000E+00     0.0000000000000000E+00 
    3.4374999999914790E-01     0.0000000000000000E+00     0.0000000000000000E+00 
    3.7499999999905720E-01     0.0000000000000000E+00     0.0000000000000000E+00 
    4.0624999999896660E-01     0.0000000000000000E+00     0.0000000000000000E+00 
    4.3749999999887590E-01     0.0000000000000000E+00     0.0000000000000000E+00 
    4.6874999999878530E-01     0.0000000000000000E+00     0.0000000000000000E+00 
    4.9999999999869471E-01     0.0000000000000000E+00     0.0000000000000000E+00 
    5.3124999999877620E-01     0.0000000000000000E+00     0.0000000000000000E+00 
    5.6249999999885780E-01     0.0000000000000000E+00     0.0000000000000000E+00 
    5.9374999999893940E-01     0.0000000000000000E+00     0.0000000000000000E+00 
    6.2499999999902101E-01     0.0000000000000000E+00     0.0000000000000000E+00 
    6.5624999999910261E-01     0.0000000000000000E+00     0.0000000000000000E+00 
    6.8749999999918421E-01     0.0000000000000000E+00     0.0000000000000000E+00 
    7.1874999999926570E-01     0.0000000000000000E+00     0.0000000000000000E+00 
    7.4999999999934730E-01     0.0000000000000000E+00     0.0000000000000000E+00 
    7.8124999999942890E-01     0.0000000000000000E+00     0.0000000000000000E+00 
    8.1249999999951039E-01     0.0000000000000000E+00     0.0000000000000000E+00 
    8.4374999999959199E-01     0.0000000000000000E+00     0.0000000000000000E+00 
    8.7499999999967359E-01     0.0000000000000000E+00     0.0000000000000000E+00 
    9.0624999999975520E-01     0.0000000000000000E+00     0.0000000000000000E+00 
    9.3749999999983680E-01     0.0000000000000000E+00     0.0000000000000000E+00 
    9.6874999999991840E-01     0.0000000000000000E+00     0.0000000000000000E+00 
    1.0000000000000000E+00     3.1249999999942091E-02     0.0000000000000000E+00 
    1.0000000000000000E+00     6.2499999999873469E-02     0.0000000000000000E+00 
    1.0000000000000000E+00     9.3749999999826514E-02     0.0000000000000000E+00 
    1.0000000000000000E+00     1.2499999999977961E-01     0.0000000000000000E+00 
    1.0000000000000000E+00     1.5624999999968961E-01     0.0000000000000000E+00 
    1.0000000000000000E+00     1.8749999999959971E-01     0.0000000000000000E+00 
    1.0000000000000000E+00     2.1874999999950970E-01     0.0000000000000000E+00 
    1.0000000000000000E+00     2.4999999999941969E-01     0.0000000000000000E+00 
    1.0000000000000000E+00     2.8124999999932920E-01     0.0000000000000000E+00 
    1.0000000000000000E+00     3.1249999999923850E-01     0.0000000000000000E+00 
    1.0000000000000000E+00     3.4374999999914790E-01     0.0000000000000000E+00 
    1.0000000000000000E+00     3.7499999999905720E-01     0.0000000000000000E+00 
    1.0000000000000000E+00     4.0624999999896660E-01     0.0000000000000000E+00 
    1.0000000000000000E+00     4.3749999999887590E-01     0.0000000000000000E+00 
    1.0000000000000000E+00     4.6874999999878530E-01     0.0000000000000000E+00 
    1.0000000000000000E+00     4.9999999999869471E-01     0.0000000000000000E+00 
    1.0000000000000000E+00     5.3124999999877620E-01     0.0000000000000000E+00 
    1.0000000000000000E+00     5.6249999999885780E-01     0.0000000000000000E+00 
    1.0000000000000000E+00     5.9374999999893940E-01     0.0000000000000000E+00 
    1.0000000000000000E+00     6.2499999999902101E-01     0.0000000000000000E+00 
    1.0000000000000000E+00     6.5624999999910261E-01     0.0000000000000000E+00 
    1.0000000000000000E+00     6.8749999999918421E-01     0.0000000000000000E+00 
    1.0000000000000000E+00     7.1874999999926570E-01     0.0000000000000000E+00 
    1.0000000000000000E+00     7.4999999999934730E-01     0.0000000000000000E+00 
    1.0000000000000000E+00     7.8124999999942890E-01     0.0000000000000000E+00 
    1.0000000000000000E+00     8.1249999999951039E-01     0.0000000000000000E+00 
    1.0000000000000000E+00     8.4374999999959199E-01     0.0000000000000000E+00 
    1.0000000000000000E+00     8.7499999999967359E-01     0.0000000000000000E+00 
    1.0000000000000000E+00     9.0624999999975520E-01     0.0000000000000000E+00 
    1.0000000000000000E+00     9.3749999999983680E-01     0.0000000000000000E+00 
    1.0000000000000000E+00     9.6874999999991840E-01     0.0000000000000000E+00 
    9.6875000000003686E-01     1.0000000000000000E+00     0.0000000000000000E+00 
    9.3750000000011691E-01     1.0000000000000000E+00     0.0000000000000000E+00 
    9.0625000000015765E-01     1.0000000000000000E+00     0.0000000000000000E+00 
    8.7500000000017863E-01     1.0000000000000000E+00     0.0000000000000000E+00 
    8.4375000000028044E-01     1.0000000000000000E+00     0.0000000000000000E+00 
    8.1250000000040856E-01     1.0000000000000000E+00     0.0000000000000000E+00 
    7.8125000000054956E-01     1.0000000000000000E+00     0.0000000000000000E+00 
    7.5000000000066480E-01     1.0000000000000000E+00     0.0000000000000000E+00 
    7.1875000000086831E-01     1.0000000000000000E+00     0.0000000000000000E+00 
    6.8750000000102829E-01     1.0000000000000000E+00     0.0000000000000000E+00 
    6.5625000000114431E-01     1.0000000000000000E+00     0.0000000000000000E+00 
    6.2500000000129829E-01     1.0000000000000000E+00     0.0000000000000000E+00 
    5.9375000000147926E-01     1.0000000000000000E+00     0.0000000000000000E+00 
    5.6250000000168354E-01     1.0000000000000000E+00     0.0000000000000000E+00 
    5.3125000000188671E-01     1.0000000000000000E+00     0.0000000000000000E+00 
    5.0000000000205835E-01     1.0000000000000000E+00     0.0000000000000000E+00 
    4.6875000000192979E-01     1.0000000000000000E+00     0.0000000000000000E+00 
    4.3750000000180111E-01     1.0000000000000000E+00     0.0000000000000000E+00 
    4.0625000000167238E-01     1.0000000000000000E+00     0.0000000000000000E+00 
    3.7500000000154382E-01     1.0000000000000000E+00     0.0000000000000000E+00 
    3.4375000000141509E-01     1.0000000000000000E+00     0.0000000000000000E+00 
    3.1250000000128642E-01     1.0000000000000000E+00     0.0000000000000000E+00 
    2.8125000000115769E-01     1.0000000000000000E+00     0.0000000000000000E+00 
    2.5000000000102918E-01     1.0000000000000000E+00     0.0000000000000000E+00 
    2.1875000000090050E-01     1.0000000000000000E+00     0.0000000000000000E+00 
    1.8750000000077180E-01     1.0000000000000000E+00     0.0000000000000000E+00 
    1.5625000000064329E-01     1.0000000000000000E+00     0.0000000000000000E+00 
    1.2500000000051459E-01     1.0000000000000000E+00     0.0000000000000000E+00 
    9.3750000000385914E-02     1.0000000000000000E+00     0.0000000000000000E+00 
    6.2500000000257239E-02     1.0000000000000000E+00     0.0000000000000000E+00 
    3.1250000000128557E-02     1.0000000000000000E+00     0.0000000000000000E+00 
    0.0000000000000000E+00     9.6875000000003686E-01     0.0000000000000000E+00 
    0.0000000000000000E+00     9.3750000000011691E-01     0.0000000000000000E+00 
    0.0000000000000000E+00     9.0625000000015765E-01     0.0000000000000000E+00 
    0.0000000000000000E+00     8.7500000000017863E-01     0.0000000000000000E+00 
    0.0000000000000000E+00     8.4375000000028044E-01     0.0000000000000000E+00 
    0.0000000000000000E+00     8.1250000000040856E-01     0.0000000000000000E+00 
    0.0000000000000000E+00     7.8125000000054956E-01     0.0000000000000000E+00 
    0.0000000000000000E+00     7.5000000000066480E-01     0.0000000000000000E+00 
    0.0000000000000000E+00     7.1875000000086831E-01     0.0000000000000000E+00 
    0.0000000000000000E+00     6.8750000000102829E-01     0.0000000000000000E+00 
    0.0000000000000000E+00     6.5625000000114431E-01     0.0000000000000000E+00 
    0.0000000000000000E+00     6.2500000000129829E-01     0.0000000000000000E+00 
    0.0000000000000000E+00     5.9375000000147926E-01     0.0000000000000000E+00 
    0.0000000000000000E+00     5.6250000000168354E-01     0.0000000000000000E+00 
    0.0000000000000000E+00     5.3125000000188671E-01     0.0000000000000000E+00 
    0.0000000000000000E+00     5.0000000000205835E-01     0.0000000000000000E+00 
    0.0000000000000000E+00     4.6875000000192979E-01     0.0000000000000000E+00 
    0.0000000000000000E+00     4.3750000000180111E-01     0.0000000000000000E+00 
    0.0000000000000000E+00     4.0625000000167238E-01     0.0000000000000000E+00 
[...]
CELL_DATA 2795 
SCALARS Pressure double 1 
LOOKUP_TABLE default 

    5.4453448297957054E+00 
    1.2145019325802213E+01 
    8.5854791228577056E+00 
    8.2105349885929311E+00 
    6.6135040584197942E+00 
    1.2031809235770506E+01 
    1.2662094508815638E+01 
    4.8868089524064811E+00 
    9.0753129320055468E+00 
    6.9122206973195537E+00 
    5.8784257061372394E+00 
    1.1815127987287021E+01 
    1.2071792627473995E+01 
    1.2005686043767643E+01 
    7.8890269804991391E+00 
    4.8047479520907102E+00 
    7.5839722747371834E+00 
    6.2639200616670205E+00 
    1.1507897775116028E+01 
    8.5815775976932276E+00 
    8.4688498402480850E+00 
    1.1949677781298991E+01 
    7.9876813521523200E+00 
    3.1772624750329975E-01 
    1.1818662569657924E+01 
    1.2038598519014245E+01 
    1.2690583494961196E+01 
    5.6563209855959613E+00 
    1.1747272908293981E+01 
    1.2681310940748379E+01 
    8.6460291265901876E+00 
    8.8128668941392370E+00 
    6.0802924097772220E+00 
    8.5468330361674685E+00 
    2.8027065335744594E+00 
    7.5853972953746709E+00 
    8.5387067011204021E+00 
    1.2716573409537849E+01 
    1.2642939399919078E+01 
    1.1826374198752825E+01 
    6.5554642696023047E+00 
    1.1791873887588919E+01 
    6.6680301301801137E-01 
    8.4291931791868127E+00 
    1.2498357208061812E+01 
    1.2333384077276905E+01 
    1.1805912015555371E+01 
    9.3835272966890741E+00 
    1.1866445582989321E+01 
    7.7515877389377703E+00 
    7.4007954436072403E+00 
    8.7773347127162467E+00 
    8.3222564479174022E+00 
    7.6282308991343273E+00 
    8.7159187534554849E+00 
    1.1330434974157434E+01 
    1.0241348209352873E+01 
    6.6471517302134862E+00 
    1.1953493100491253E+01 
    1.1889123239751147E+01 
    8.2474447044181840E+00 
    8.2395590189219057E+00 
    8.1288558576602306E+00 
    1.2595928484621114E+01 
    1.2832624584366330E+01 
    7.5943452217682781E+00 
    8.7753629621217808E+00 
    1.1731582389573127E+01 
    1.0048240354668341E+01 
    8.2725789144457167E+00 
    1.2832598567638280E+01 
    1.1910769927942868E+01 
    7.4897749172208758E+00 
    1.2416202624857306E+01 
    8.9359551063615950E+00 
    1.1686993429997928E+01 
    1.2731312318775872E+01 
    8.8681985484043242E+00 
    5.4897897471505690E+00 
    8.7918477857248867E+00 
    1.2649749986754259E+01 
    1.2854560784559849E+01 
    7.6070128227985778E+00 
    8.7071545260397514E+00 
    1.2894260638145132E+01 
    8.5445000890943259E+00 
    8.0587255918654499E+00 
    1.0396071516944055E+01 
    5.2792016757123559E+00 
    7.4220928691103998E+00 
    8.7083848131535273E+00 
    9.1950551728736940E+00 
    1.4228765188195155E+01 
    6.4358816311065192E+00 
    8.7824640384368955E+00 
    1.1787373648517201E+01 
    1.2030131725869706E+01 
    5.7032338235514439E+00 
    8.4156831065256270E+00 
    8.7376311476839419E+00 
    1.2047579107349950E+01 
    8.7423226764309288E+00 
    1.1989171172105316E+01 
    3.4720030233586869E+00 
    5.7122911217961869E+00 
    8.9744341767128368E+00 
    1.2151366622083330E+01 
    7.5557003248768835E+00 
    8.0677049967619237E+00 
    8.7281480012257120E+00 
    8.0353194740709881E+00 
    9.9345135781511775E+00 
    7.8470030683578900E+00 
    7.4959441263382320E+00 
    5.9704180154791118E+00 
    1.0153681197248437E+01 
    8.8146220362306398E+00 
    1.2521131887398651E+01 
    7.5247159278751852E+00 
    8.1997485653697630E+00 
    1.1898357999982956E+01 
    6.9045994970731774E+00 
    1.2288962008319261E+01 
    8.6256840340597538E+00 
    8.1378262823699110E+00 
    1.2031784310476823E+01 
    8.8034704721189261E+00 
    1.2736887172865774E+01 
    1.0406503732533515E+01 
    1.1203075465996021E+01 
    1.2705477968117407E+01 
    6.4478946864888016E+00 
    8.9902567501378812E+00 
    1.2028065429446107E+01 
    2.5944211347493473E+00 
    8.6950309963287911E+00 
    1.2676058232702696E+01 
    8.1660590243006990E+00 
    9.4248471278843322E+00 
    5.6379046974392866E+00 
    1.1787589488579528E+01 
    1.4686098104264083E+01 
    1.0799114092093548E+01 
    8.1608891489941353E+00 
    7.3392264788948562E+00 
    9.3462586596378099E+00 
    8.6424522416087335E+00 
    5.9422768789564842E+00 
    1.2700083729880062E+01 
    1.2111603493156329E+01 
    1.1788954919084723E+01 
    9.2080840808392566E+00 
    7.4710299849365684E+00 
    8.4683810110763638E+00 
    1.2439192646969239E+01 
    7.6644592391806237E+00 
    8.5611191033003653E+00 
    7.7961896331781189E+00 
    9.9392245033422473E+00 
    1.4675057625861388E+01 
    1.1781347674463957E+01 
    7.4218298851717170E+00 
    1.2197462249836613E+01 
    1.2116290557709316E+01 
    1.2185586934486135E+01 
    1.3071040253323607E+01 
    1.3563382255290504E+01 
    1.2327377493508305E+01 
    8.7678388705076848E+00 
    9.3177498132490744E+00 
    1.2177010095484684E+01 
    1.2531587531567606E+01 
    6.1921101809516532E+00 
    1.1805289343466558E+01 
    1.2405146609398470E+01 
    6.0387332431007215E+00 
    1.2990603879032344E+01 
    1.2981183771503650E+01 
    1.1566958059302539E+01 
    9.0451899101948214E+00 
    2.3195472075912296E+00 
    1.2674782086254821E+01 
    8.9235520568940601E+00 
    1.2787184021332900E+01 
    8.1108804548072211E+00 
    1.2527224723014392E+01 
    8.1626952574563816E-01 
    1.1217884419449987E+01 
    8.2788873459099008E+00 
    7.4372361895406423E+00 
    7.2575700079811245E+00 
    8.5966288704193818E+00 
    9.6281007768898039E+00 
    8.8904426534799477E+00 
    6.0234540796123959E+00 
    1.2525936070258650E+01 
    1.2046940703553322E+01 
    1.0154198787315586E+01 
    8.9671056380324039E+00 
    1.3180858383047620E+00 
    6.7301063361842015E+00 
    4.7114734708964718E+00 
    1.2692814211045940E+01 
    9.7908381952016335E+00 
    1.2089406506074731E+01 
    1.2106042386761255E+01 
    7.7432666060998390E+00 
    1.0213492041913506E+01 
    1.1784378225005918E+01 
    1.2967344826454626E+01 
    5.6339987603987742E+00 
    1.0634339145340537E+01 
    8.9336343654844352E+00 
    5.0331770727344107E+00 
    7.7226468824144003E+00 
    1.0644369413467439E+01 
    1.2071674021544988E+01 
    8.6541441146276270E+00 
    1.2167180071571664E+01 
    1.1965195925259460E+01 
    1.1920836607439053E+01 
    8.4761295274955355E+00 
    7.3971993993760563E+00 
    1.1796563240990608E+01 
    7.4875900311877261E+00 
    8.7457714634167729E+00 
    7.3495757454426984E+00 
    8.5072314727150076E+00 
    1.2114802795016494E+01 
    5.3872963813355490E+00 
    7.6519938467963353E+00 
    1.2617179970401526E+01 
    8.4912195266929142E+00 
    9.6898016864293393E+00 
    5.5283917654354910E+00 
    7.5335281593302250E+00 
    1.1946924293409230E+01 
    1.2215425529485334E+01 
    4.5254820475640631E+00 
    8.4934993850215221E+00 
    7.3859078506507245E+00 
    1.3349040598417671E+01 
    1.2862951360267633E+01 
    1.3586829992980100E+01 
    8.5153030574121900E+00 
    1.2089887295969302E+01 
    1.1747751438347766E+01 
    8.3932373022141480E+00 
    1.1788976572835072E+01 
    8.9674092714088189E+00 
    5.0621327365587971E+00 
    8.7158061752006812E+00 
    1.2606126924990269E+01 
    1.1786176071823618E+01 
    5.8502709279783529E+00 
    1.1811307315679160E+01 
    9.6349424155961927E+00 
    8.6790144621921090E+00 
    8.2382796023180109E+00 
    1.1672596801139974E+01 
    9.1880505976899727E+00 
    1.1800743714728878E+01 
    8.3775475967385500E+00 
    5.1827706604490800E+00 
    8.8125132601580702E+00 
    7.2642805471130210E+00 
    1.0801646428971372E+01 
    1.2780857959637549E+01 
    1.1795836420148872E+01 
    1.2669551944866070E+01 
    8.4392055372306043E+00 
    5.7013792824105858E+00 
    5.7801823458147856E+00 
    8.8512569689636909E+00 
    8.7234394128082311E+00 
    1.2673142227938585E+00 
    1.1373275599974116E+01 
    1.3097073714469035E+01 
    8.1179117239649514E+00 
    5.3101216667024707E+00 
    9.8891178969405260E+00 
    1.1809942289682898E+01 
    6.2459007851048005E+00 
    4.2597055785055353E+00 
    8.6970939330179515E+00 
    1.1901981990916658E+01 
    1.2443542736989155E+01 
    1.2341494151020514E+01 
    1.2217357539183698E+01 
    6.1026127537876471E+00 
    8.6694375125925145E+00 
    1.1399285323582843E+01 
    6.7860691247238893E+00 
    1.2060553896653303E+01 
    1.0403531494061271E+01 
    5.8608879453693277E+00 
    1.1902137535449132E+01 
    1.2692498922776057E+01 
    1.1921309257362910E+01 
    6.0303340483970942E+00 
    8.7717868199595497E+00 
    6.5938037232751574E+00 
    8.2618602733748769E+00 
    1.1802767233582445E+01 
    1.1792775654506094E+01 
    6.0640089057459434E+00 
    1.2562244743414993E+01 
    9.2474078348270101E+00 
    1.1830363367033062E+01 
    1.2544408696701019E+01 
    1.1814926312028431E+01 
    1.1007855642656997E+01 
    1.3395831062962595E+01 
    8.0933401193959611E+00 
    1.2642958435102575E+01 
    1.1858535614144769E+01 
    1.2706703772166980E+01 
    1.2556283773904719E+01 
    8.1752199018859830E+00 
    8.5796400165114637E+00 
    8.1086004747899523E+00 
    1.0590435191532972E+01 
    3.4814447964370654E+00 
    8.7919574380748813E+00 
    1.3512137255537032E+01 
    8.9709437999016757E+00 
    9.1373547820641328E+00 
    1.2682369013903692E+01 
    1.2894261515038609E+01 
    8.0688171593464162E+00 
    1.1814922083758679E+01 
    1.1790115124026556E+01 
    9.1263321729316011E+00 
    1.2516420659066560E+01 
    6.1623884758909790E+00 
    3.9568149431206439E+00 
    9.3762260146331240E+00 
    8.9831980108952898E+00 
    1.1794264728665272E+01 
    5.6906061878831702E+00 
    1.2268761352456387E+01 
    4.0328188027895990E+00 
    8.9262530741054658E+00 
    8.2457181112536535E+00 
    8.7498109263749519E+00 
    1.4724004836226227E+01 
    3.3826584824933299E+00 
    8.7125089577235393E+00 
    1.0334023956537999E+01 
    8.3517994278464265E+00 
    6.6268030541856895E+00 
    1.2373897802472181E+01 
    1.4314368561360221E+01 
    1.2501426581340404E+01 
    8.6588016134100485E+00 
    5.0200022032612699E+00 
    1.4174624747074441E+01 
    1.2040072590063250E+01 
    6.2333106439197170E+00 
    8.2817563704495321E+00 
    1.3056154652918083E+01 
    2.8685998609347694E+00 
    9.0282936639805129E+00 
    1.2484350210363036E+01 
    8.7627323976083087E+00 
    7.6002967101996228E+00 
    8.7504804875389848E+00 
    1.1595323499441744E+01 
    8.7435094993864961E+00 
    4.4904102886430142E+00 
    8.0238575137990931E-01 
    6.4669775558085600E+00 
    1.3249578288605933E+01 
    8.1068714247323790E+00 
    9.9556070076372443E+00 
    9.4926207059671075E+00 
    1.0865601186495013E+01 
    8.7763495091968657E+00 
    1.1962035346762240E+01 
    1.4737523023310631E+01 
    1.0317365692253270E+01 
    1.2618539804078681E+01 
    4.7274543556942245E-01 
    1.1794373833893895E+01 
    4.8548469414471560E+00 
    1.3668283815983198E+01 
    8.7255507586643422E+00 
    7.7033311054014568E+00 
    6.7162246495163602E+00 
    4.6792785172302285E+00 
    9.7562314298745498E+00 
    6.8504922759626856E+00 
    1.0710928522561595E+01 
    1.9698337120914138E+00 
    9.6653146480521901E+00 
    1.1736662817590524E+01 
    5.2480470076437076E+00 
    1.2219437890543018E+01 
    1.3499075691125030E+01 
    1.2101138961742864E+01 
    8.6044854544072980E+00 
    8.7446792863271892E+00 
    8.7185160801959167E+00 
    5.0971760278185467E+00 
    7.8839485785392842E+00 
    7.7579557919227247E+00 
    8.7081312509599034E+00 
    8.0548427900784247E+00 
    6.0008591067120431E-01 
    5.5571048449212741E+00 
    8.3826659671209143E+00 
    8.6855448059613938E+00 
    1.1004160017645473E+01 
    1.8780993120408946E+00 
    9.0905706078704078E+00 
    8.9880964568519452E+00 
    3.2510306658387278E+00 
    1.1987174846425956E+01 
    7.5080597306753978E+00 
    8.8649799413217618E+00 
    1.2040730000516186E+01 
    4.7292638844563086E+00 
    1.2082041318437055E+01 
    7.5912277059757303E+00 
    8.5520546953607068E-01 
    8.1603258115737329E+00 
    1.2574997909467070E+01 
    1.1794898377730586E+01 
    1.1814082658610223E+01 
    9.0507790966423052E+00 
    8.9294288031149662E+00 
    7.4839191671555341E+00 
    6.0290953321034424E+00 
    1.2140110836706649E+01 
    8.2818763392113581E+00 
    5.8034225508014190E+00 
    1.1808194574851877E+01 
    1.2407207624771798E+01 
    8.8754189645584400E+00 
    8.5400264338367116E+00 
    1.4625069326712850E+01 
    9.1271112350490036E+00 
    1.2149964375490468E+01 
    7.1346323327196330E+00 
    1.4765541727176952E+01 
    5.7461187834212515E+00 
    7.8506237353011912E+00 
    6.4282683734868371E+00 
    9.3314606875012558E+00 
    7.3807039157119343E+00 
    1.4749740304427808E+01 
    9.1696083604395202E+00 
    1.1536646171257978E+01 
    5.9093131918609760E+00 
    8.7723160729307139E+00 
    1.2009211660135332E+01 
    7.3986800035795044E+00 
    6.2979177133947930E+00 
    9.5997106964674153E+00 
    1.2206777263348810E+01 
    6.3424415186229623E+00 
    8.2618225661581182E+00 
    8.5639299483066171E+00 
    1.1773431848289837E+01 
    8.3753378759922263E+00 
    1.2183343411617496E+01 
    1.2732633050134663E+01 
    7.5068243881263967E+00 
    7.3668992323006135E+00 
    6.8915910790373491E+00 
    1.1897068455134486E+01 
    8.9932185961168312E+00 
    1.4349867269597164E+01 
    1.1227594035885852E+01 
    1.1975680254209331E+01 
    1.4057325273848893E+01 
    1.3502343817001506E+01 
    8.8184282519493493E+00 
    8.6943394147424229E+00 
    1.1593078540994943E+01 
    1.1826658921426761E+01 
    1.2295097481138217E+01 
    1.2059815367606046E+01 
    1.4642580180923687E+01 
    9.1266990632648231E+00 
    7.5903695623813183E+00 
    9.0998242203361261E+00 
    1.2655367724357570E+01 
    8.9007660149405137E+00 
    5.1412439537336638E+00 
    8.5900783656796840E+00 
    1.3028586805517454E+01 
    9.0199181914883333E+00 
    7.5933854575141835E+00 
    8.5044020210943021E+00 
    1.3126428993381682E+01 
    1.1837603239513168E+01 
    7.2351377964719266E+00 
    1.3252018179120782E+01 
    8.8436401975409034E+00 
    1.2275761503273632E+01 
    1.3139750670800341E+01 
    9.2279765725063889E+00 
    4.7229890856715464E+00 
    9.5799828558072235E+00 
    4.8844289030912869E+00 
    8.9429357395339828E+00 
    8.7636830577789002E+00 
    1.0074796190618359E+01 
    5.1568520208826687E+00 
    1.0698279701141802E+01 
    8.7849269657923479E+00 
    1.2050164466545759E+01 
    9.1774682972941299E+00 
    7.0386168028908784E+00 
    8.3874769690488638E+00 
    9.2204092853434751E+00 
    9.2190746722603425E+00 
    1.2779344378766968E+01 
    7.2725124911147327E+00 
    7.1531128976642036E+00 
    5.4098858025366621E+00 
    1.2313800149004923E+01 
    8.4235760311739334E+00 
    1.1662354294706216E+01 
    8.7345940081890490E+00 
    5.8912461333919213E+00 
    1.1866807326026773E+01 
    8.7090689552076803E+00 
    6.3986143409259864E+00 
    6.7608867563383193E+00 
    6.9880751734598050E+00 
    1.2079342633421220E+01 
    8.7099686461365238E+00 
    1.2627866706516397E+01 
    8.6662767897565001E+00 
    8.6021585147937465E+00 
    8.1873888568057787E+00 
    1.1938206646123916E+01 
    8.5155581928399204E+00 
    7.0222494554402974E+00 
    1.3489289391784979E+01 
    1.2009126893656735E+01 
    6.0193630746423477E+00 
    2.3764451332590215E+00 
    8.6997983814447952E+00 
    8.1515535170390194E+00 
    7.3637032949743428E+00 
    8.0168898985599633E+00 
    1.1967925206100672E+01 
    8.4386597109275368E+00 
    7.6447671753746365E+00 
    1.1845708770456840E+01 
    5.9652612894435499E+00 
    1.1558950289489555E+01 
    7.8745364208278126E+00 
    6.9660248547014278E+00 
    7.4284182846674369E+00 
    1.2350226337247019E+01 
    8.7527480075721353E+00 
    8.7604606106933360E+00 
    5.2372705947149836E+00 
    5.6376203976940928E+00 
    1.0994994827688904E+01 
    8.7698571552855586E+00 
    8.7376291438396017E+00 
    1.3236219052705517E+01 
    7.1512163731014082E+00 
    8.7811161674045923E+00 
    6.1731780898453090E+00 
    6.3729842869863527E+00 
    1.1934724465067951E+01 
    8.4069342641740317E+00 
    6.1829094934965632E+00 
    9.2101471320816231E+00 
    8.6430203726424555E+00 
    1.1936651238513784E+01 
    1.3321669787127590E+01 
    9.1787682713391483E-01 
    8.7043277922147233E+00 
    8.9818309750321337E+00 
    1.1990329275693499E+01 
    8.2236997370269567E+00 
    8.7271667712899301E+00 
    1.2827877713282323E+01 
    7.4547476800682482E+00 
    6.2339917321872278E+00 
    1.0593392715330157E+01 
    1.1806802482809438E+01 
    1.2707231138318932E+01 
    1.2943836682141896E+01 
    8.5597569419693667E+00 
    8.6969704618512402E+00 
    9.8135535709762021E+00 
    5.7215369283170130E+00 
    1.1915093467807589E+01 
    6.6933517752001874E+00 
    5.9566943435533970E+00 
    1.0949047640044936E+01 
    1.0286313175810866E+01 
    5.8420693977610414E+00 
    1.1838568123767702E+01 
    1.2693749438513107E+01 
    9.1406739069899849E+00 
    1.3414282696147797E+01 
    1.1865802865912453E+01 
    8.3036900945190499E+00 
    1.2457745937937487E+01 
    6.3749965837720914E+00 
    1.1821890722922001E+01 
    8.7035669096336665E+00 
    8.6654662899737254E+00 
    1.3390902840776231E+01 
    8.4538317141709900E+00 
    1.0687408504409417E+01 
    7.4133211492118773E+00 
    1.2798414171261157E+01 
    1.1741960691557722E+01 
    7.7201529699058264E+00 
    1.1786914516530107E+01 
    7.8714171621108679E+00 
    8.7372273255524906E+00 
    1.2657694100869563E+01 
    1.2057338623981332E+01 
    1.2696866977057278E+01 
    1.1993853631129488E+01 
    7.8932838751237382E+00 
    8.0952426556845012E+00 
    1.2702449541278073E+01 
    8.2018175281011434E+00 
    1.1683619858348031E+01 
    8.4450527309199863E+00 
    3.5107876961643836E+00 
    6.0160351608112475E+00 
    5.5763835843375036E+00 
    1.2660460641317002E+01 
    1.3326627824168167E+01 
    1.1802962783003034E+01 
    1.0140081933705524E+01 
    1.2048932819446074E+01 
    1.1843083138045433E+01 
    1.2351705896433529E+01 
    5.0614726249927449E+00 
    3.2697843195624734E+00 
    9.9526214836636662E+00 
    8.3708115535504000E+00 
    1.1969515054122395E+01 
    1.1967459709520570E+01 
    8.9974052618283160E+00 
    1.1999318379899412E+01 
    8.6918304718142334E+00 
    8.5963302330983549E+00 
    4.5703438183277241E+00 
    3.2567422881216479E+00 
    1.3123220391571905E+01 
    6.7734146760636156E+00 
    7.6643167604220546E+00 
    8.9084422299559485E+00 
    1.4625432167710441E+01 
    8.9904458499125983E+00 
    8.9812599537297828E+00 
    3.6884639618976593E+00 
    8.9910398359788779E+00 
    9.0030138770479393E+00 
    1.2244341082108642E+01 
    7.4365870590520435E+00 
    8.3279853520804767E+00 
    1.3276591186992841E+01 
    8.7120136776263664E+00 
    1.1817167193027956E+01 
    1.2041104708229470E+01 
    1.0813936439387712E+01 
    7.3650137140686018E+00 
    1.1994198531075494E+01 
    8.5121297031227918E+00 
    1.1996751165984314E+01 
    1.1761620136028723E+01 
    1.2677705735949360E+01 
    1.1989656131353231E+01 
    1.1257471180649809E+01 
    8.7018800934756264E+00 
    5.7951911649470231E+00 
    1.4505079004326925E+01 
    6.8253363152719917E+00 
    1.2610829954089425E+01 
    8.6994123051033085E+00 
    7.1997852165697651E+00 
    4.3062322151995813E+00 
    9.0330474744206768E+00 
    1.1981703366945707E+01 
    1.1980046259784304E+01 
    8.7179831068125857E+00 
    8.6938448005805622E+00 
    1.3468116555011086E+01 
    1.2892459122787971E+01 
    9.0070945094777475E+00 
    3.0425929431978473E+00 
    1.1238134466111283E+01 
    1.4748403266836034E+01 
    8.7050527002840212E+00 
    1.0472519335850082E+01 
    8.2196573595196654E+00 
    1.4371843017995458E+01 
    1.2964512515705746E+01 
    1.2736801798962409E+01 
    9.0260510355205135E+00 
    4.0312299379651639E+00 
    8.1826506498673162E+00 
    8.2435597426956075E+00 
    8.2895593119236182E+00 
    3.3097580082165510E+00 