# vtk DataFile Version 2.0
Pressure Field Data 
ASCII 
DATASET UNSTRUCTURED_GRID 

POINTS 2860 double 

    0.0000000000000000E+00     0.0000000000000000E+00     0.0000000000000000E+00 
    1.0000000000000000E+00     0.0000000000000000E+00     0.0000000000000000E+00 
    1.0000000000000000E+00     1.0000000000000000E+00     0.0000000000000000E+00 
    0.0000000000000000E+00     1.0000000000000000E+00     0.0000000000000000E+00 
    2.5000000000000000E-01     2.5000000000000000E-01     0.0000000000000000E+00 
    7.5000000000000000E-01     2.5000000000000000E-01     0.0000000000000000E+00 
    7.5000000000000000E-01     7.5000000000000000E-01     0.0000000000000000E+00 
    2.5000000000000000E-01     7.5000000000000000E-01     0.0000000000000000E+00 
    3.1249999999942091E-02     0.0000000000000000E+00     0.0000000000000000E+00 
    6.2499999999873469E-02     0.0000000000000000E+00     0.0000000000000000E+00 
    9.3749999999826514E-02     0.0000000000000000E+00     0.0000000000000000E+00 
    1.2499999999977961E-01     0.0000000000000000E+00     0.0000000000000000E+00 
    1.5624999999968961E-01     0.0000000000000000E+00     0.0000000000000000E+00 
    1.8749999999959971E-01     0.0000000000000000E+00     0.0000000000000000E+00 
    2.1874999999950970E-01     0.0000000000000000E+00     0.0000000000000000E+00 
    2.4999999999941969E-01     0.0000000000000000E+00     0.0000000000000000E+00 
    2.8124999999932920E-01     0.0000000000000000E+00     0.0000000000000000E+00 
    3.1249999999923850E-01     0.0000000000000000E+00     0.0000000000000000E+00 
    3.4374999999914790E-01     0.0000000000000000E+00     0.0000000000000000E+00 
    3.7499999999905720E-01     0.0000000000000000E+00     0.0000000000000000E+00 
    4.0624999999896660E-01     0.0000000000000000E+00     0.0000000000000000E+00 
    4.3749999999887590E-01     0.0000000000000000E+00     0.0000000000000000E+00 
    4.6874999999878530E-01     0.0000000000000000E+00     0.0000000000000000E+00 
    4.9999999999869471E-01     0.0000000000000000E+00     0.0000000000000000E+00 
    5.3124999999877620E-01     0.0000000000000000E+00     0.0000000000000000E+00 
    5.6249999999885780E-01     0.0000000000000000E+00     0.0000000000000000E+00 
    5.9374999999893940E-01     0.0000000000000000E+00     0.0000000000000000E+00 
    6.2499999999902101E-01     0.0000000000000000E+00     0.0000000000000000E+00 
    6.5624999999910261E-01     0.0000000000000000E+00     0.0000000000000000E+00 
    6.8749999999918421E-01     0.0000000000000000E+00     0.0000000000000000E+00 
    7.1874999999926570E-01     0.0000000000000000E+00     0.0000000000000000E+00 
    7.4999999999934730E-01     0.0000000000000000E+00     0.0000000000000000E+00 
    7.8124999999942890E-01     0.0000000000000000E+00     0.0000000000000000E+00 
    8.1249999999951039E-01     0.0000000000000000E+00     0.0000000000000000E+00 
    8.4374999999959199E-01     0.0000000000000000E+00     0.0000000000000000E+00 
    8.7499999999967359E-01     0.0000000000000000E+00     0.0000000000000000E+00 
    9.0624999999975520E-01     0.0000000000000000E+00     0.0000000000000000E+00 
    9.3749999999983680E-01     0.0000000000000000E+00     0.0000000000000000E+00 
    9.6874999999991840E-01     0.0000000000000000E+00     0.0000000000000000E+00 
    1.0000000000000000E+00     3.1249999999942091E-02     0.0000000000000000E+00 
    1.0000000000000000E+00     6.2499999999873469E-02     0.0000000000000000E+00 
    1.0000000000000000E+00     9.3749999999826514E-02     0.0000000000000000E+00 
    1.0000000000000000E+00     1.2499999999977961E-01     0.0000000000000000E+00 
    1.0000000000000000E+00     1.5624999999968961E-01     0.0000000000000000E+00 
    1.0000000000000000E+00     1.8749999999959971E-01     0.0000000000000000E+00 
    1.0000000000000000E+00     2.1874999999950970E-01     0.0000000000000000E+00 
    1.0000000000000000E+00     2.4999999999941969E-01     0.0000000000000000E+00 
    1.0000000000000000E+00     2.8124999999932920E-01     0.0000000000000000E+00 
    1.0000000000000000E+00     3.1249999999923850E-01     0.0000000000000000E+00 
    1.0000000000000000E+00     3.4374999999914790E-01     0.0000000000000000E+00 
    1.0000000000000000E+00     3.7499999999905720E-01     0.0000000000000000E+00 
    1.0000000000000000E+00     4.0624999999896660E-01     0.0000000000000000E+00 
    1.0000000000000000E+00     4.3749999999887590E-01     0.0000000000000000E+00 
    1.0000000000000000E+00     4.6874999999878530E-01     0.0000000000000000E+00 
    1.0000000000000000E+00     4.9999999999869471E-01     0.0000000000000000E+00 
    1.0000000000000000E+00     5.3124999999877620E-01     0.0000000000000000E+00 
    1.0000000000000000E+00     5.6249999999885780E-01     0.0000000000000000E+00 
    1.0000000000000000E+00     5.9374999999893940E-01     0.0000000000000000E+00 
    1.0000000000000000E+00     6.2499999999902101E-01     0.0000000000000000E+00 
    1.0000000000000000E+00     6.5624999999910261E-01     0.0000000000000000E+00 
    1.0000000000000000E+00     6.8749999999918421E-01     0.0000000000000000E+00 
    1.0000000000000000E+00     7.1874999999926570E-01     0.0000000000000000E+00 
    1.0000000000000000E+00     7.4999999999934730E-01     0.0000000000000000E+00 
    1.0000000000000000E+00     7.8124999999942890E-01     0.0000000000000000E+00 
    1.0000000000000000E+00     8.1249999999951039E-01     0.0000000000000000E+00 
    1.0000000000000000E+00     8.4374999999959199E-01     0.0000000000000000E+00 
    1.0000000000000000E+00     8.7499999999967359E-01     0.0000000000000000E+00 
    1.0000000000000000E+00     9.0624999999975520E-01     0.0000000000000000E+00 
    1.0000000000000000E+00     9.3749999999983680E-01     0.0000000000000000E+00 
    1.0000000000000000E+00     9.6874999999991840E-01     0.0000000000000000E+00 
    9.6875000000003686E-01     1.0000000000000000E+00     0.0000000000000000E+00 
    9.3750000000011691E-01     1.0000000000000000E+00     0.0000000000000000E+00 
    9.0625000000015765E-01     1.0000000000000000E+00     0.0000000000000000E+00 
    8.7500000000017863E-01     1.0000000000000000E+00     0.0000000000000000E+00 
    8.4375000000028044E-01     1.0000000000000000E+00     0.0000000000000000E+00 
    8.1250000000040856E-01     1.0000000000000000E+00     0.0000000000000000E+00 
    7.8125000000054956E-01     1.0000000000000000E+00     0.0000000000000000E+00 
    7.5000000000066480E-01     1.0000000000000000E+00     0.0000000000000000E+00 
    7.1875000000086831E-01     1.0000000000000000E+00     0.0000000000000000E+00 
    6.8750000000102829E-01     1.0000000000000000E+00     0.0000000000000000E+00 
    6.5625000000114431E-01     1.0000000000000000E+00     0.0000000000000000E+00 
    6.2500000000129829E-01     1.0000000000000000E+00     0.0000000000000000E+00 
    5.9375000000147926E-01     1.0000000000000000E+00     0.0000000000000000E+00 
    5.6250000000168354E-01     1.0000000000000000E+00     0.0000000000000000E+00 
    5.3125000000188671E-01     1.0000000000000000E+00     0.0000000000000000E+00 
    5.0000000000205835E-01     1.0000000000000000E+00     0.0000000000000000E+00 
    4.6875000000192979E-01     1.0000000000000000E+00     0.0000000000000000E+00 
    4.3750000000180111E-01     1.0000000000000000E+00     0.0000000000000000E+00 
    4.0625000000167238E-01     1.0000000000000000E+00     0.0000000000000000E+00 
    3.7500000000154382E-01     1.0000000000000000E+00     0.0000000000000000E+00 
    3.4375000000141509E-01     1.0000000000000000E+00     0.0000000000000000E+00 
    3.1250000000128642E-01     1.0000000000000000E+00     0.0000000000000000E+00 
    2.8125000000115769E-01     1.0000000000000000E+00     0.0000000000000000E+00 
    2.5000000000102918E-01     1.0000000000000000E+00     0.0000000000000000E+00 
    2.1875000000090050E-01     1.0000000000000000E+00     0.0000000000000000E+00 
    1.8750000000077180E-01     1.0000000000000000E+00     0.0000000000000000E+00 
    1.5625000000064329E-01     1.0000000000000000E+00     0.0000000000000000E+00 
    1.2500000000051459E-01     1.0000000000000000E+00     0.0000000000000000E+00 
    9.3750000000385914E-02     1.0000000000000000E+00     0.0000000000000000E+00 
    6.2500000000257239E-02     1.0000000000000000E+00     0.0000000000000000E+00 
    3.1250000000128557E-02     1.0000000000000000E+00     0.0000000000000000E+00 
    0.0000000000000000E+00     9.6875000000003686E-01     0.0000000000000000E+00 
    0.0000000000000000E+00     9.3750000000011691E-01     0.0000000000000000E+00 
    0.0000000000000000E+00     9.0625000000015765E-01     0.0000000000000000E+00 
    0.0000000000000000E+00     8.7500000000017863E-01     0.0000000000000000E+00 
    0.0000000000000000E+00     8.4375000000028044E-01     0.0000000000000000E+00 
    0.0000000000000000E+00     8.1250000000040856E-01     0.0000000000000000E+00 
    0.0000000000000000E+00     7.8125000000054956E-01     0.0000000000000000E+00 
    0.0000000000000000E+00     7.5000000000066480E-01     0.0000000000000000E+00 
    0.0000000000000000E+00     7.1875000000086831E-01     0.0000000000000000E+00 
    0.0000000000000000E+00     6.8750000000102829E-01     0.0000000000000000E+00 
    0.0000000000000000E+00     6.5625000000114431E-01     0.0000000000000000E+00 
    0.0000000000000000E+00     6.2500000000129829E-01     0.0000000000000000E+00 
    0.0000000000000000E+00     5.9375000000147926E-01     0.0000000000000000E+00 
    0.0000000000000000E+00     5.6250000000168354E-01     0.0000000000000000E+00 
    0.0000000000000000E+00     5.3125000000188671E-01     0.0000000000000000E+00 
    0.0000000000000000E+00     5.0000000000205835E-01     0.0000000000000000E+00 
    0.0000000000000000E+00     4.6875000000192979E-01     0.0000000000000000E+00 
    0.0000000000000000E+00     4.3750000000180111E-01     0.0000000000000000E+00 
    0.0000000000000000E+00     4.0625000000167238E-01     0.0000000000000000E+00 
[...]
CELL_DATA 2795 
SCALARS Pressure double 1 
LOOKUP_TABLE default 

    5.6786619915134526E+00 
    1.2628411849816517E+01 
    8.9085633812575509E+00 
    8.5444493375416322E+00 
    6.8961813670242647E+00 
    1.2508016088403091E+01 
    1.3160909297605171E+01 
    5.0972336977323636E+00 
    9.4292798183845203E+00 
    7.1709222822690055E+00 
    6.0955613592016329E+00 
    1.2282502542766979E+01 
    1.2555883091015071E+01 
    1.2480987105574084E+01 
    8.1860340510484271E+00 
    5.0121359438976620E+00 
    7.9026627197315342E+00 
    6.4961952874322773E+00 
    1.1963500387347910E+01 
    8.8992281300487281E+00 
    8.7896533174801839E+00 
    1.2422762612041222E+01 
    8.3151880943520293E+00 
    3.3189765168260621E-01 
    1.2293213257784712E+01 
    1.2518477126235421E+01 
    1.3190065638427619E+01 
    5.8567412101092717E+00 
    1.2212184445048614E+01 
    1.3179805712477169E+01 
    8.9741716154696771E+00 
    9.1391844258807158E+00 
    6.2840946228729457E+00 
    8.8684867306340447E+00 
    2.9190352018739261E+00 
    7.9038349578960627E+00 
    8.8584174187872584E+00 
    1.3215869216265325E+01 
    1.3140906134992365E+01 
    1.2294184128075470E+01 
    6.8400416328653213E+00 
    1.2262957472569664E+01 
    6.9527643988092602E-01 
    8.7695407971700590E+00 
    1.2997583370277487E+01 
    1.2829234134207793E+01 
    1.2272946922613341E+01 
    9.7435679317460373E+00 
    1.2336551568544373E+01 
    8.0758845146252014E+00 
    7.7145489523578075E+00 
    9.1063685921918331E+00 
    8.6605326642125977E+00 
    7.9493037713685633E+00 
    9.0430979579483850E+00 
    1.1779165474866767E+01 
    1.0630724631360293E+01 
    6.9314104598292658E+00 
    1.2426712640997598E+01 
    1.2359777814246081E+01 
    8.5723303264188058E+00 
    8.5529915977693047E+00 
    8.4602681508432802E+00 
    1.3092052240993445E+01 
    1.3341139619340083E+01 
    7.9137502777561206E+00 
    9.1043914737253413E+00 
    1.2197808485036399E+01 
    1.0439924584145121E+01 
    8.5857196890189744E+00 
    1.3335501309050414E+01 
    1.2387029747072319E+01 
    7.8067243660361800E+00 
    1.2912559100269709E+01 
    9.2624182392873706E+00 
    1.2155262252287841E+01 
    1.3231681993815092E+01 
    9.2277141097233528E+00 
    5.7392509257792028E+00 
    9.1214982394956010E+00 
    1.3148147585494213E+01 
    1.3357325511308069E+01 
    7.9249828768508914E+00 
    9.0307285034235179E+00 
    1.3398817370438854E+01 
    8.8618967965946851E+00 
    8.3884675610966966E+00 
    1.0803307059684787E+01 
    5.5128716333671166E+00 
    7.7371566038468940E+00 
    9.0317905088980357E+00 
    9.5554204394139113E+00 
    1.4754445749381112E+01 
    6.7111048043196302E+00 
    9.1117514135794977E+00 
    1.2253688399540476E+01 
    1.2512507683966314E+01 
    5.9487553759671501E+00 
    8.7354634985791382E+00 
    9.0607697290039564E+00 
    1.2530639300866714E+01 
    9.0699205303788517E+00 
    1.2469681901704154E+01 
    3.6250001500737903E+00 
    5.9234264037793221E+00 
    9.3134870333818558E+00 
    1.2634763814974317E+01 
    7.8734336050660891E+00 
    8.3880535366054971E+00 
    9.0555004881070911E+00 
    8.3637491187836925E+00 
    1.0295798427869945E+01 
    8.1637299801856216E+00 
    7.8123032156330590E+00 
    6.2378728594608095E+00 
    1.0562235986019614E+01 
    9.1408836605987709E+00 
    1.3015218157593601E+01 
    7.8072823500062460E+00 
    8.5322516003170978E+00 
    1.2373564464843833E+01 
    7.2010431417430336E+00 
    1.2778824467567976E+01 
    8.9449363970086804E+00 
    8.4694454952540035E+00 
    1.2514031933433474E+01 
    9.1336070695862777E+00 
    1.3237534548567481E+01 
    1.0814754403497643E+01 
    1.1645983082031975E+01 
    1.3205374829893350E+01 
    6.7235794257251174E+00 
    9.3314570893562578E+00 
    1.2508094398656313E+01 
    2.7089953585591502E+00 
    9.0223713740456777E+00 
    1.3175056481586713E+01 
    8.4976944562138694E+00 
    9.8057787347610272E+00 
    5.8909877273594020E+00 
    1.2253226630598629E+01 
    1.5215284053775672E+01 
    1.1223925269141629E+01 
    8.4933461432540707E+00 
    7.6506780711284366E+00 
    9.6439177428606389E+00 
    8.9634354583391183E+00 
    6.1587388440538229E+00 
    1.3199867880140495E+01 
    1.2594428990429860E+01 
    1.2255292134686819E+01 
    9.5631064467820508E+00 
    7.7869538179583948E+00 
    8.7884868792607591E+00 
    1.2935061571123859E+01 
    7.9844796368930986E+00 
    8.9082488087544967E+00 
    8.1182214424799941E+00 
    1.0338286149141979E+01 
    1.5204134529315104E+01 
    1.2247505636616349E+01 
    7.7511656342764468E+00 
    1.2685481246143505E+01 
    1.2598651878714696E+01 
    1.2670096767279485E+01 
    1.3579537886217452E+01 
    1.4080571648952802E+01 
    1.2822382966745590E+01 
    9.0964814532783755E+00 
    9.6969467922394568E+00 
    1.2665183788960283E+01 
    1.3026533501169736E+01 
    6.4178201034736713E+00 
    1.2272394149528992E+01 
    1.2899354556493314E+01 
    6.2596519923709630E+00 
    1.3500089901265394E+01 
    1.3487304361109612E+01 
    1.2024720235762448E+01 
    9.3892646089829999E+00 
    2.4122813584703517E+00 
    1.3173913169866719E+01 
    9.2630449878240775E+00 
    1.3289920412372359E+01 
    8.4408961311945170E+00 
    1.3024405840037550E+01 
    8.5253928424956682E-01 
    1.1660494242673627E+01 
    8.5941792216724231E+00 
    7.7531653347037484E+00 
    7.5665518519621662E+00 
    8.9134031493963288E+00 
    9.9784459217730941E+00 
    9.2501546363423319E+00 
    6.3009371831117331E+00 
    1.3020172596583517E+01 
    1.2527317279683221E+01 
    1.0550085504512209E+01 
    9.3067212240211621E+00 
    1.3754403282858940E+00 
    7.0178789048399501E+00 
    4.9190564263241265E+00 
    1.3191482325270481E+01 
    1.0118201803584187E+01 
    1.2572277109802792E+01 
    1.2588596979218259E+01 
    8.0633003258561722E+00 
    1.0620478733807722E+01 
    1.2250708273155967E+01 
    1.3473702731182286E+01 
    5.8817153750329236E+00 
    1.1062393782007728E+01 
    9.2960860615425922E+00 
    5.2544623167094278E+00 
    8.0430953158191656E+00 
    1.1077934155054763E+01 
    1.2552930346114961E+01 
    8.9747448393962959E+00 
    1.2651357617332158E+01 
    1.2442915549471651E+01 
    1.2396871752725872E+01 
    8.7953602345828816E+00 
    7.7039918169884753E+00 
    1.2262932835856823E+01 
    7.8036045347550873E+00 
    9.0718170322308467E+00 
    7.6621493087796066E+00 
    8.8524822145424142E+00 
    1.2597892545935293E+01 
    5.5865921763766080E+00 
    7.9713891617867949E+00 
    1.3114377147737912E+01 
    8.8097629578280756E+00 
    1.0016781429352488E+01 
    5.7326722894085869E+00 
    7.8513642764360947E+00 
    1.2424007311175767E+01 
    1.2701067994446257E+01 
    4.6942080256710019E+00 
    8.8122791346821607E+00 
    7.7004197693009822E+00 
    1.3863095603554374E+01 
    1.3366272665585889E+01 
    1.4104690759282327E+01 
    8.8331080254259700E+00 
    1.2571796103157785E+01 
    1.2212642421697840E+01 
    8.7123680808572281E+00 
    1.2255378534316172E+01 
    9.3082323734344108E+00 
    5.2877163018173743E+00 
    9.0608454673272742E+00 
    1.3102721033261293E+01 
    1.2252493884337794E+01 
    6.0618922217797566E+00 
    1.2278605619796528E+01 
    9.9895110069403348E+00 
    9.0060069053278173E+00 
    8.5693840524956943E+00 
    1.2134673606881174E+01 
    9.4900642079549939E+00 
    1.2267374849767974E+01 
    8.7121226831086602E+00 
    5.4157974032424807E+00 
    9.1400979529072579E+00 
    7.5730125177260215E+00 
    1.1227450959759180E+01 
    1.3282753731686169E+01 
    1.2261897118282159E+01 
    1.3168473273024608E+01 
    8.7599946447409227E+00 
    5.9121363875544146E+00 
    5.9936051135329071E+00 
    9.1774902742549092E+00 
    9.0492477936050033E+00 
    1.3227281784597977E+00 
    1.1822929950664504E+01 
    1.3608984683105774E+01 
    8.4488316003311574E+00 
    5.5431254546382691E+00 
    1.0290051447428842E+01 
    1.2277261509414812E+01 
    6.5140360177823862E+00 
    4.4435247527962920E+00 
    9.0204671432176635E+00 
    1.2362828942028271E+01 
    1.2935562383713975E+01 
    1.2832875479008754E+01 
    1.2702737933503174E+01 
    6.3701690227979038E+00 
    8.9970939685342142E+00 
    1.1855669387839827E+01 
    7.0392491992425104E+00 
    1.2544235914259698E+01 
    1.0823777987972402E+01 
    6.0774693365758150E+00 
    1.2373829894585642E+01 
    1.3194913129752804E+01 
    1.2399666597775175E+01 
    6.2883612345696802E+00 
    9.1006654492792016E+00 
    6.8757964427635665E+00 
    8.5722070684285985E+00 
    1.2269738120201287E+01 
    1.2259342337799170E+01 
    6.3234441027399031E+00 
    1.3059773439185820E+01 
    9.5930009838931980E+00 
    1.2293937245653304E+01 
    1.3041067088925438E+01 
    1.2280599869525339E+01 
    1.1440563939075421E+01 
    1.3911336171880325E+01 
    8.4213038788305461E+00 
    1.3140911547782386E+01 
    1.2320578990535358E+01 
    1.3206694257925728E+01 
    1.3053290884302742E+01 
    8.5051138382285512E+00 
    8.9012298983139235E+00 
    8.4394734069389727E+00 
    1.1005229270260141E+01 
    3.6349212957804151E+00 
    9.1187262899118142E+00 
    1.4029194755939550E+01 
    9.3097081960645856E+00 
    9.4802628626276650E+00 
    1.3181739141317937E+01 
    1.3398471850722709E+01 
    8.3887813459251355E+00 
    1.2282402132931598E+01 
    1.2256447964528091E+01 
    9.4689733811577899E+00 
    1.3011873624993882E+01 
    6.3892405621168669E+00 
    4.1054534099744222E+00 
    9.7249624723844228E+00 
    9.3226982628160346E+00 
    1.2260998441355790E+01 
    5.9349649553344728E+00 
    1.2756353828307754E+01 
    4.1854895573830770E+00 
    9.2628365576771099E+00 
    8.5680456695474749E+00 
    9.0775891865646336E+00 
    1.5253115265817939E+01 
    3.5318361067374084E+00 
    9.0396744808382650E+00 
    1.0749093658958088E+01 
    8.6689917999301329E+00 
    6.9244323335349165E+00 
    1.2862504184008770E+01 
    1.4841203884989570E+01 
    1.2997577870863815E+01 
    8.9855938313626744E+00 
    5.2387565334088286E+00 
    1.4699021210258225E+01 
    1.2520593617378173E+01 
    6.5325439604087778E+00 
    8.6185381748737147E+00 
    1.3564069842232987E+01 
    2.9956342900450643E+00 
    9.3685499897434958E+00 
    1.2980711759778167E+01 
    9.0900961478455677E+00 
    7.8853900368874834E+00 
    9.0775458562642246E+00 
    1.2062222873081312E+01 
    9.0701547729112484E+00 
    4.6845393200144327E+00 
    8.3937653363482823E-01 
    6.7067305373356181E+00 
    1.3762404078920978E+01 
    8.4376459386318228E+00 
    1.0302997471395777E+01 
    9.7908899981420330E+00 
    1.1307389266314281E+01 
    9.1032508988259426E+00 
    1.2439794377296272E+01 
    1.5266706830091877E+01 
    1.0722192640945002E+01 
    1.3115671976841295E+01 
    4.9379341667547444E-01 
    1.2261033035345617E+01 
    5.0748245413644311E+00 
    1.4187250239829860E+01 
    9.0526653748286936E+00 
    7.9947826215940836E+00 
    7.0034283589713615E+00 
    4.8827456854706659E+00 
    1.0133944049139222E+01 
    7.1065788702049799E+00 
    1.1133360048103320E+01 
    2.0487368788425631E+00 
    1.0020908685093417E+01 
    1.2201140183765791E+01 
    5.4425172367393255E+00 
    1.2711321645173660E+01 
    1.4014815315493527E+01 
    1.2578971646957749E+01 
    8.9307656737155767E+00 
    9.0719915669780438E+00 
    9.0456744948519532E+00 
    5.3162262405987724E+00 
    8.2088179149974074E+00 
    8.0799662404361605E+00 
    9.0353047735114647E+00 
    8.3839004894278801E+00 
    6.2733950379958847E-01 
    5.8137689314391388E+00 
    8.7230967268930186E+00 
    9.0125735164057126E+00 
    1.1438388480555037E+01 
    1.9612201987427811E+00 
    9.4323371001839771E+00 
    9.3273782330257404E+00 
    3.3946116648897537E+00 
    1.2453128783926630E+01 
    7.8227741507347153E+00 
    9.1983042565208599E+00 
    1.2522146922061889E+01 
    4.9331509833143086E+00 
    1.2563941858421551E+01 
    7.9096208558601360E+00 
    8.9241156906220387E-01 
    8.4924689806634959E+00 
    1.3071778117042141E+01 
    1.2261428060226226E+01 
    1.2280257220195093E+01 
    9.3756281995953259E+00 
    9.2662853878263061E+00 
    7.8007209260764148E+00 
    6.3111896924560460E+00 
    1.2626501367301399E+01 
    8.6182811647615285E+00 
    6.0707745195961031E+00 
    1.2274802339590350E+01 
    1.2902829440171061E+01 
    9.1987868177360532E+00 
    8.8563590729175310E+00 
    1.5153269757585630E+01 
    9.4697692463603946E+00 
    1.2634642392305869E+01 
    7.4389494232282036E+00 
    1.5294705618604537E+01 
    5.9583155735094397E+00 
    8.1669791672051257E+00 
    6.6655202107411311E+00 
    9.6790456465903461E+00 
    7.6562271191975109E+00 
    1.5278839579828416E+01 
    9.5132967715480241E+00 
    1.2000210347975990E+01 
    6.1264760894101800E+00 
    9.1012147825259309E+00 
    1.2488486552801177E+01 
    7.6757903708324333E+00 
    6.5851800726117142E+00 
    9.9864189873701132E+00 
    1.2689640984514698E+01 
    6.5778717278979162E+00 
    8.5847600963778010E+00 
    8.8843845920084838E+00 
    1.2239291596996797E+01 
    8.6947305271399937E+00 
    1.2667649347963991E+01 
    1.3233309011074573E+01 
    7.8233464404057989E+00 
    7.6792335358539390E+00 
    7.1488356604773600E+00 
    1.2369629352541386E+01 
    9.3426667705865363E+00 
    1.4876765447551692E+01 
    1.1660913788401352E+01 
    1.2453957160839481E+01 
    1.4580385785198123E+01 
    1.4017801675160021E+01 
    9.1466286010019360E+00 
    9.0214500659201349E+00 
    1.2051551878104696E+01 
    1.2294618010181017E+01 
    1.2787358153119246E+01 
    1.2541360234082969E+01 
    1.5171460856104144E+01 
    9.4693472167470496E+00 
    7.9089469174753999E+00 
    9.4562055121604214E+00 
    1.3153819168369861E+01 
    9.2373890674138579E+00 
    5.3359360909167517E+00 
    8.9162515227462489E+00 
    1.3537120189741493E+01 
    9.3599575923075449E+00 
    7.9119429350491144E+00 
    8.8235885617315919E+00 
    1.3636481815860728E+01 
    1.2310433069222682E+01 
    7.5469334627142795E+00 
    1.3764367798282535E+01 
    9.1758952031016250E+00 
    1.2763288855012291E+01 
    1.3649867245123021E+01 
    9.5988538594833415E+00 
    4.9285620859139190E+00 
    9.9718520930664454E+00 
    5.0967145340150308E+00 
    9.2811173500354851E+00 
    9.0891456769460994E+00 
    1.0486040247996682E+01 
    5.3807054894687676E+00 
    1.1130789305591048E+01 
    9.1130199097315483E+00 
    1.2531156627020474E+01 
    9.5472238424335121E+00 
    7.3620059215938829E+00 
    8.7059279761070041E+00 
    9.5193226192182365E+00 
    9.5640284091176184E+00 
    1.3283530515458548E+01 
    7.5828363773080341E+00 
    7.4586039989447404E+00 
    5.6448738854651337E+00 
    1.2805714738545532E+01 
    8.7443746855885234E+00 
    1.2128854545743422E+01 
    9.0614414469392823E+00 
    6.1470585616515443E+00 
    1.2340906726131546E+01 
    9.0348761263640700E+00 
    6.6747666784365229E+00 
    7.0508023835630107E+00 
    7.2865524933728683E+00 
    1.2562007717532783E+01 
    9.0371461810051965E+00 
    1.3125523041811759E+01 
    8.9875029659248629E+00 
    8.9187477658375762E+00 
    8.5101112752863042E+00 
    1.2415054808815361E+01 
    8.8348272696432204E+00 
    7.3221959846303406E+00 
    1.4004751058490161E+01 
    1.2489063025307942E+01 
    6.2406647209250128E+00 
    2.4817977423096949E+00 
    9.0270308504358638E+00 
    8.4596938031172524E+00 
    7.6772962314724404E+00 
    8.3372297711885661E+00 
    1.2441763838867308E+01 
    8.7639870512440190E+00 
    7.9613147731806082E+00 
    1.2314421741912270E+01 
    6.1853990352045010E+00 
    1.2016172304957864E+01 
    8.1734999185404611E+00 
    7.2722035925095501E+00 
    7.7436724515852262E+00 
    1.2839980783209603E+01 
    9.0806632700084098E+00 
    9.0888461283605562E+00 
    5.4620774212396599E+00 
    5.8792795359296033E+00 
    1.1439267480440543E+01 
    9.0986167723463129E+00 
    9.0647632805610279E+00 
    1.3748433498464513E+01 
    7.4558739624209753E+00 
    9.1104229486426078E+00 
    6.4011306854797851E+00 
    6.6090047744600176E+00 
    1.2412691628521083E+01 
    8.7273615671221041E+00 
    6.4476539705097853E+00 
    9.5674222621171356E+00 
    8.9657347752512724E+00 
    1.2414121599975983E+01 
    1.3835361259379235E+01 
    9.5573307635120774E-01 
    9.0315607392841937E+00 
    9.3211649519246240E+00 
    1.2469233878370895E+01 
    8.5566386774123391E+00 
    9.0533728140956171E+00 
    1.3336855013766575E+01 
    7.7703164615285862E+00 
    6.5012206404951733E+00 
    1.0985969836784513E+01 
    1.2273779345148467E+01 
    1.3207050273078508E+01 
    1.3448883464954553E+01 
    8.8866664653410563E+00 
    9.0241205227152523E+00 
    1.0193807003415804E+01 
    5.9311904239011914E+00 
    1.2386708279490861E+01 
    6.9794256626084801E+00 
    6.1759138491961743E+00 
    1.1373732070980127E+01 
    1.0686486881072712E+01 
    6.0564453136414524E+00 
    1.2306894873686678E+01 
    1.3193294531455990E+01 
    9.4836619555971762E+00 
    1.3929605799654420E+01 
    1.2335651228097660E+01 
    8.6327417942663978E+00 
    1.2950691897879878E+01 
    6.6105740455481570E+00 
    1.2289677107139664E+01 
    9.0307692726413205E+00 
    8.9930666485271082E+00 
    1.3906219937532645E+01 
    8.7747910049033653E+00 
    1.1104303496064961E+01 
    7.7269899394693580E+00 
    1.3300779136001093E+01 
    1.2206667872689803E+01 
    8.0429978582755783E+00 
    1.2252761566966765E+01 
    8.1672450097183198E+00 
    9.0648485399412966E+00 
    1.3156122282475440E+01 
    1.2540732640636771E+01 
    1.3196458962459493E+01 
    1.2472970339449367E+01 
    8.2169073827692873E+00 
    8.4211798062375980E+00 
    1.3202287028726994E+01 
    8.5295453463603419E+00 
    1.2145853160147153E+01 
    8.7658361378522098E+00 
    3.6668848544722330E+00 
    6.2385612704340527E+00 
    5.7824378756354182E+00 
    1.3159035720232504E+01 
    1.3840524588877866E+01 
    1.2269186652101505E+01 
    1.0501590563176761E+01 
    1.2527088830814940E+01 
    1.2311725847871360E+01 
    1.2839469958804571E+01 
    5.2797737698229534E+00 
    3.4145036792300809E+00 
    1.0310723012103708E+01 
    8.7036399863137301E+00 
    1.2443331507272424E+01 
    1.2441198953392488E+01 
    9.3384557005605870E+00 
    1.2474324871462370E+01 
    9.0189568920070045E+00 
    8.9278369583528949E+00 
    4.7675441375556709E+00 
    3.4004687406607492E+00 
    1.3632830018412429E+01 
    7.0247331734116587E+00 
    7.9840032016152405E+00 
    9.2441062089135890E+00 
    1.5153858141269332E+01 
    9.3299201562543583E+00 
    9.3200869717703245E+00 
    3.8472637571881201E+00 
    9.3309183564340792E+00 
    9.3434077136040088E+00 
    1.2735772799398374E+01 
    7.7510414316589111E+00 
    8.6464942651452503E+00 
    1.3789419042009762E+01 
    9.0392353750353891E+00 
    1.2283692002109172E+01 
    1.2525474700093611E+01 
    1.1196133211159546E+01 
    7.6427703595898722E+00 
    1.2473452325414190E+01 
    8.8413995580757714E+00 
    1.2467301180534065E+01 
    1.2227059088957873E+01 
    1.3176804596699204E+01 
    1.2468393076671887E+01 
    1.1700790161288607E+01 
    9.0290672794813407E+00 
    6.0092425574108512E+00 
    1.5032700501094592E+01 
    7.1170820309967642E+00 
    1.3107202809040560E+01 
    9.0266113733901321E+00 
    7.5048141926993752E+00 
    4.4702773429588749E+00 
    9.3748738796491491E+00 
    1.2460282443092728E+01 
    1.2458968481037930E+01 
    9.0447669285402217E+00 
    9.0210752275512274E+00 
    1.3984171067664660E+01 
    1.3396376101818120E+01 
    9.3468936557938935E+00 
    3.1770938680913723E+00 
    1.1678781632872193E+01 
    1.5277335996852212E+01 
    9.0322221717088862E+00 
    1.0841876883425520E+01 
    8.5531984344553713E+00 
    1.4898114927323453E+01 
    1.3470483516373939E+01 
    1.3242443225564569E+01 
    9.3665453390787974E+00 
    4.1939650023146990E+00 
    8.5156200727548423E+00 
    8.5767594051851539E+00 
    8.6212449013641770E+00 
    3.4544726231348806E+00 