# vtk DataFile Version 2.0
Pressure Field Data 
ASCII 
DATASET UNSTRUCTURED_GRID 

POINTS 2860 double 

    0.0000000000000000E+00     0.0000000000000000E+00     0.0000000000000000E+00 
    1.0000000000000000E+00     0.0000000000000000E+00     0.0000000000000000E+00 
    1.0000000000000000E+00     1.0000000000000000E+00     0.0000000000000000E+00 
    0.0000000000000000E+00     1.0000000000000000E+00     0.0000000000000000E+00 
    2.5000000000000000E-01     2.5000000000000000E-01     0.0000000000000000E+00 
    7.5000000000000000E-01     2.5000000000000000E-01     0.0000000000000000E+00 
    7.5000000000000000E-01     7.5000000000000000E-01     0.0000000000000000E+00 
    2.5000000000000000E-01     7.5000000000000000E-01     0.0000000000000000E+00 
    3.1249999999942091E-02     0.0000000000000000E+00     0.0000000000000000E+00 
    6.2499999999873469E-02     0.0000000000000000E+00     0.0000000000000000E+00 
    9.3749999999826514E-02     0.0000000000000000E+00     0.0000000000000000E+00 
    1.2499999999977961E-01     0.0000000000000000E+00     0.0000000000000000E+00 
    1.5624999999968961E-01     0.0000000000000000E+00     0.0000000000000000E+00 
    1.8749999999959971E-01     0.0000000000000000E+00     0.0000000000000000E+00 
    2.1874999999950970E-01     0.0000000000000000E+00     0.0000000000000000E+00 
    2.4999999999941969E-01     0.0000000000000000E+00     0.0000000000000000E+00 
    2.8124999999932920E-01     0.0000000000000000E+00     0.0000000000000000E+00 
    3.1249999999923850E-01     0.0000000000000000E+00     0.0000000000000000E+00 
    3.4374999999914790E-01     0.0000000000000000E+00     0.0000000000000000E+00 
    3.7499999999905720E-01     0.0000000000000000E+00     0.0000000000000000E+00 
    4.0624999999896660E-01     0.0000000000000000E+00     0.0000000000000000E+00 
    4.3749999999887590E-01     0.0000000000000000E+00     0.0000000000000000E+00 
    4.6874999999878530E-01     0.0000000000000000E+00     0.0000000000000000E+00 
    4.9999999999869471E-01     0.0000000000000000E+00     0.0000000000000000E+00 
    5.3124999999877620E-01     0.0000000000000000E+00     0.0000000000000000E+00 
    5.6249999999885780E-01     0.0000000000000000E+00     0.0000000000000000E+00 
    5.9374999999893940E-01     0.0000000000000000E+00     0.0000000000000000E+00 
    6.2499999999902101E-01     0.0000000000000000E+00     0.0000000000000000E+00 
    6.5624999999910261E-01     0.0000000000000000E+00     0.0000000000000000E+00 
    6.8749999999918421E-01     0.0000000000000000E+00     0.0000000000000000E+00 
    7.1874999999926570E-01     0.0000000000000000E+00     0.0000000000000000E+00 
    7.4999999999934730E-01     0.0000000000000000E+00     0.0000000000000000E+00 
    7.8124999999942890E-01     0.0000000000000000E+00     0.0000000000000000E+00 
    8.1249999999951039E-01     0.0000000000000000E+00     0.0000000000000000E+00 
    8.4374999999959199E-01     0.0000000000000000E+00     0.0000000000000000E+00 
    8.7499999999967359E-01     0.0000000000000000E+00     0.0000000000000000E+00 
    9.0624999999975520E-01     0.0000000000000000E+00     0.0000000000000000E+00 
    9.3749999999983680E-01     0.0000000000000000E+00     0.0000000000000000E+00 
    9.6874999999991840E-01     0.0000000000000000E+00     0.0000000000000000E+00 
    1.0000000000000000E+00     3.1249999999942091E-02     0.0000000000000000E+00 
    1.0000000000000000E+00     6.2499999999873469E-02     0.0000000000000000E+00 
    1.0000000000000000E+00     9.3749999999826514E-02     0.0000000000000000E+00 
    1.0000000000000000E+00     1.2499999999977961E-01     0.0000000000000000E+00 
    1.0000000000000000E+00     1.5624999999968961E-01     0.0000000000000000E+00 
    1.0000000000000000E+00     1.8749999999959971E-01     0.0000000000000000E+00 
    1.0000000000000000E+00     2.1874999999950970E-01     0.0000000000000000E+00 
    1.0000000000000000E+00     2.4999999999941969E-01     0.0000000000000000E+00 
    1.0000000000000000E+00     2.8124999999932920E-01     0.0000000000000000E+00 
    1.0000000000000000E+00     3.1249999999923850E-01     0.0000000000000000E+00 
    1.0000000000000000E+00     3.4374999999914790E-01     0.0000000000000000E+00 
    1.0000000000000000E+00     3.7499999999905720E-01     0.0000000000000000E+00 
    1.0000000000000000E+00     4.0624999999896660E-01     0.0000000000000000E+00 
    1.0000000000000000E+00     4.3749999999887590E-01     0.0000000000000000E+00 
    1.0000000000000000E+00     4.6874999999878530E-01     0.0000000000000000E+00 
    1.0000000000000000E+00     4.9999999999869471E-01     0.0000000000000000E+00 
    1.0000000000000000E+00     5.3124999999877620E-01     0.0000000000000000E+00 
    1.0000000000000000E+00     5.6249999999885780E-01     0.0000000000000000E+00 
    1.0000000000000000E+00     5.9374999999893940E-01     0.0000000000000000E+00 
    1.0000000000000000E+00     6.2499999999902101E-01     0.0000000000000000E+00 
    1.0000000000000000E+00     6.5624999999910261E-01     0.0000000000000000E+00 
    1.0000000000000000E+00     6.8749999999918421E-01     0.0000000000000000E+00 
    1.0000000000000000E+00     7.1874999999926570E-01     0.0000000000000000E+00 
    1.0000000000000000E+00     7.4999999999934730E-01     0.0000000000000000E+00 
    1.0000000000000000E+00     7.8124999999942890E-01     0.0000000000000000E+00 
    1.0000000000000000E+00     8.1249999999951039E-01     0.0000000000000000E+00 
    1.0000000000000000E+00     8.4374999999959199E-01     0.0000000000000000E+00 
    1.0000000000000000E+00     8.7499999999967359E-01     0.0000000000000000E+00 
    1.0000000000000000E+00     9.0624999999975520E-01     0.0000000000000000E+00 
    1.0000000000000000E+00     9.3749999999983680E-01     0.0000000000000000E+00 
    1.0000000000000000E+00     9.6874999999991840E-01     0.0000000000000000E+00 
    9.6875000000003686E-01     1.0000000000000000E+00     0.0000000000000000E+00 
    9.3750000000011691E-01     1.0000000000000000E+00     0.0000000000000000E+00 
    9.0625000000015765E-01     1.0000000000000000E+00     0.0000000000000000E+00 
    8.7500000000017863E-01     1.0000000000000000E+00     0.0000000000000000E+00 
    8.4375000000028044E-01     1.0000000000000000E+00     0.0000000000000000E+00 
    8.1250000000040856E-01     1.0000000000000000E+00     0.0000000000000000E+00 
    7.8125000000054956E-01     1.0000000000000000E+00     0.0000000000000000E+00 
    7.5000000000066480E-01     1.0000000000000000E+00     0.0000000000000000E+00 
    7.1875000000086831E-01     1.0000000000000000E+00     0.0000000000000000E+00 
    6.8750000000102829E-01     1.0000000000000000E+00     0.0000000000000000E+00 
    6.5625000000114431E-01     1.0000000000000000E+00     0.0000000000000000E+00 
    6.2500000000129829E-01     1.0000000000000000E+00     0.0000000000000000E+00 
    5.9375000000147926E-01     1.0000000000000000E+00     0.0000000000000000E+00 
    5.6250000000168354E-01     1.0000000000000000E+00     0.0000000000000000E+00 
    5.3125000000188671E-01     1.0000000000000000E+00     0.0000000000000000E+00 
    5.0000000000205835E-01     1.0000000000000000E+00     0.0000000000000000E+00 
    4.6875000000192979E-01     1.0000000000000000E+00     0.0000000000000000E+00 
    4.3750000000180111E-01     1.0000000000000000E+00     0.0000000000000000E+00 
    4.0625000000167238E-01     1.0000000000000000E+00     0.0000000000000000E+00 
    3.7500000000154382E-01     1.0000000000000000E+00     0.0000000000000000E+00 
    3.4375000000141509E-01     1.0000000000000000E+00     0.0000000000000000E+00 
    3.1250000000128642E-01     1.0000000000000000E+00     0.0000000000000000E+00 
    2.8125000000115769E-01     1.0000000000000000E+00     0.0000000000000000E+00 
    2.5000000000102918E-01     1.0000000000000000E+00     0.0000000000000000E+00 
    2.1875000000090050E-01     1.0000000000000000E+00     0.0000000000000000E+00 
    1.8750000000077180E-01     1.0000000000000000E+00     0.0000000000000000E+00 
    1.5625000000064329E-01     1.0000000000000000E+00     0.0000000000000000E+00 
    1.2500000000051459E-01     1.0000000000000000E+00     0.0000000000000000E+00 
    9.3750000000385914E-02     1.0000000000000000E+00     0.0000000000000000E+00 
    6.2500000000257239E-02     1.0000000000000000E+00     0.0000000000000000E+00 
    3.1250000000128557E-02     1.0000000000000000E+00     0.0000000000000000E+00 
    0.0000000000000000E+00     9.6875000000003686E-01     0.0000000000000000E+00 
    0.0000000000000000E+00     9.3750000000011691E-01     0.0000000000000000E+00 
    0.0000000000000000E+00     9.0625000000015765E-01     0.0000000000000000E+00 
    0.0000000000000000E+00     8.7500000000017863E-01     0.0000000000000000E+00 
    0.0000000000000000E+00     8.4375000000028044E-01     0.0000000000000000E+00 
    0.0000000000000000E+00     8.1250000000040856E-01     0.0000000000000000E+00 
    0.0000000000000000E+00     7.8125000000054956E-01     0.0000000000000000E+00 
    0.0000000000000000E+00     7.5000000000066480E-01     0.0000000000000000E+00 
    0.0000000000000000E+00     7.1875000000086831E-01     0.0000000000000000E+00 
    0.0000000000000000E+00     6.8750000000102829E-01     0.0000000000000000E+00 
    0.0000000000000000E+00     6.5625000000114431E-01     0.0000000000000000E+00 
    0.0000000000000000E+00     6.2500000000129829E-01     0.0000000000000000E+00 
    0.0000000000000000E+00     5.9375000000147926E-01     0.0000000000000000E+00 
    0.0000000000000000E+00     5.6250000000168354E-01     0.0000000000000000E+00 
    0.0000000000000000E+00     5.3125000000188671E-01     0.0000000000000000E+00 
    0.0000000000000000E+00     5.0000000000205835E-01     0.0000000000000000E+00 
    0.0000000000000000E+00     4.6875000000192979E-01     0.0000000000000000E+00 
    0.0000000000000000E+00     4.3750000000180111E-01     0.0000000000000000E+00 
    0.0000000000000000E+00     4.0625000000167238E-01     0.0000000000000000E+00 
[...]
CELL_DATA 2795 
SCALARS Pressure double 1 
LOOKUP_TABLE default 

    5.9404206918548237E+00 
    1.3163249306821285E+01 
    9.2733097240259372E+00 
    8.9229173989237989E+00 
    7.2091691472534007E+00 
    1.3036451728019919E+01 
    1.3712748151396356E+01 
    5.3356259035222680E+00 
    9.8198991534595041E+00 
    7.4569395895211645E+00 
    6.3415750696762494E+00 
    1.2801996667040914E+01 
    1.3090476062935153E+01 
    1.3008454791365372E+01 
    8.5213441316998697E+00 
    5.2469458837514491E+00 
    8.2601555745403488E+00 
    6.7571772274035560E+00 
    1.2469555873153309E+01 
    9.2632783451811100E+00 
    9.1543552328480864E+00 
    1.2947902127355771E+01 
    8.6876939031197349E+00 
    3.4572646263525497E-01 
    1.2816793713459155E+01 
    1.3049318118744667E+01 
    1.3742635015863652E+01 
    6.0852397977798462E+00 
    1.2728956739272579E+01 
    1.3731403477684525E+01 
    9.3486610261479424E+00 
    9.4906084502764259E+00 
    6.5110151510076753E+00 
    9.2340596221436044E+00 
    3.0471758228605577E+00 
    8.2613122560957084E+00 
    9.2236051322068597E+00 
    1.3768339202460895E+01 
    1.3691886479629968E+01 
    1.2814057955014579E+01 
    7.1572762038502518E+00 
    1.2783701150031289E+01 
    7.2436024846617464E-01 
    9.1508358973711399E+00 
    1.3549087028415716E+01 
    1.3371602424557082E+01 
    1.2792125668952204E+01 
    1.0135312600788030E+01 
    1.2857982520994195E+01 
    8.4403825993932617E+00 
    8.0648925232054474E+00 
    9.4579532403631763E+00 
    9.0435436880668956E+00 
    8.3093470143259651E+00 
    9.4169219482045960E+00 
    1.2277435269996110E+01 
    1.1050356300767131E+01 
    7.2460919593017925E+00 
    1.2951995945281899E+01 
    1.2882399210724465E+01 
    8.9410823839124518E+00 
    8.9054743503064984E+00 
    8.8366361986437738E+00 
    1.3641115417036659E+01 
    1.3902673980147352E+01 
    8.2720562550988337E+00 
    9.4559185711871816E+00 
    1.2713325242306839E+01 
    1.0870298455616895E+01 
    8.9407460806697721E+00 
    1.3891744615336364E+01 
    1.2913369881101282E+01 
    8.1611753278643437E+00 
    1.3459887834670340E+01 
    9.6362180570057472E+00 
    1.2673426685475413E+01 
    1.3785346076804354E+01 
    9.6327730088292611E+00 
    6.0241069438351227E+00 
    9.4743946005631532E+00 
    1.3699556409789910E+01 
    1.3913532928786850E+01 
    8.2822256926505808E+00 
    9.3868596117102427E+00 
    1.3956859178117659E+01 
    9.2268830144992844E+00 
    8.7631406616774488E+00 
    1.1252005542284218E+01 
    5.7784191457541771E+00 
    8.0885625458261377E+00 
    9.3866784230095277E+00 
    9.9527519917142904E+00 
    1.5335341515032557E+01 
    7.0162796144646125E+00 
    9.4638722378794000E+00 
    1.2772174161087239E+01 
    1.3044921405057110E+01 
    6.2233052221314873E+00 
    9.0977435889683491E+00 
    9.4172009960283329E+00 
    1.3063806021575333E+01 
    9.4194506447255772E+00 
    1.3000162627632893E+01 
    3.7948288254101441E+00 
    6.1625050349080714E+00 
    9.6793929407089205E+00 
    1.3169781903735329E+01 
    8.2302471942054662E+00 
    8.7505315845859695E+00 
    9.4053932719077356E+00 
    8.7379209719379070E+00 
    1.0693179986184930E+01 
    8.5207995140965611E+00 
    8.1666375448651305E+00 
    6.5362889959646227E+00 
    1.1017042961868638E+01 
    9.4914754626186095E+00 
    1.3562092503554497E+01 
    8.1151620448692956E+00 
    8.9094351543819226E+00 
    1.2898839366613691E+01 
    7.5314240077788170E+00 
    1.3320248614056327E+01 
    9.3067422448661663E+00 
    8.8459218674978128E+00 
    1.3046348989640698E+01 
    9.4873414176245170E+00 
    1.3791371563580741E+01 
    1.1265004226374186E+01 
    1.2137007272111500E+01 
    1.3758386163884936E+01 
    7.0292705687313450E+00 
    9.7005051771152750E+00 
    1.3038638707707298E+01 
    2.8327279079191134E+00 
    9.3962811340898913E+00 
    1.3727119236759609E+01 
    8.8739430022555954E+00 
    1.0232722672040163E+01 
    6.1753113213837185E+00 
    1.2771226668880784E+01 
    1.5800022766827952E+01 
    1.1693210592770775E+01 
    8.8704973164506296E+00 
    7.9983439868041017E+00 
    1.0016471315515250E+01 
    9.3242363609334458E+00 
    6.4037684129382644E+00 
    1.3752771554212224E+01 
    1.3114267998995865E+01 
    1.2773834777915713E+01 
    9.9498810177632020E+00 
    8.1404615660286428E+00 
    9.1528144832645779E+00 
    1.3482595712283571E+01 
    8.3455277611886771E+00 
    9.3003779742003267E+00 
    8.4847313099280424E+00 
    1.0782678636686759E+01 
    1.5788757738044719E+01 
    1.2765739190659415E+01 
    8.1116401673314833E+00 
    1.3224306745897612E+01 
    1.3132419144350676E+01 
    1.3206324477042836E+01 
    1.4141872501086400E+01 
    1.4652303919197953E+01 
    1.3366934494525850E+01 
    9.4473193941433227E+00 
    1.0119351753433977E+01 
    1.3204548115408693E+01 
    1.3574304479650996E+01 
    6.6696000969368407E+00 
    1.2791582184769576E+01 
    1.3445880922234567E+01 
    6.5093214422904166E+00 
    1.4063224798902830E+01 
    1.4047113394243267E+01 
    1.2533071815800261E+01 
    9.7617579823963716E+00 
    2.5147408447862705E+00 
    1.3726112574770179E+01 
    9.6259916102024015E+00 
    1.3846026989570657E+01 
    8.8153879035284639E+00 
    1.3574299843472277E+01 
    8.9077855145162943E-01 
    1.2150521484150094E+01 
    8.9475335634749484E+00 
    8.1050937536176306E+00 
    7.9107275385741627E+00 
    9.2759817685674459E+00 
    1.0363399703032087E+01 
    9.6553497901893639E+00 
    6.6096523832988101E+00 
    1.3567203497152189E+01 
    1.3058534142373869E+01 
    1.0984670215098046E+01 
    9.6738064472047807E+00 
    1.4359552443409402E+00 
    7.3362721404888500E+00 
    5.1633547359250258E+00 
    1.3743316331872375E+01 
    1.0463780300919302E+01 
    1.3107708125770889E+01 
    1.3122078867141598E+01 
    8.4240381973281693E+00 
    1.1006854428252733E+01 
    1.2769002623178778E+01 
    1.4033731684380491E+01 
    6.1596407586678259E+00 
    1.1537256660871959E+01 
    9.7003735482287876E+00 
    5.5084163290511228E+00 
    8.4071249517277771E+00 
    1.1543728873470045E+01 
    1.3085107609701231E+01 
    9.3324924146031556E+00 
    1.3187016188646915E+01 
    1.2970962679090505E+01 
    1.2923063899903088E+01 
    9.1593513331345502E+00 
    8.0471068295475483E+00 
    1.2781631309858980E+01 
    8.1574507361085100E+00 
    9.4239559117135023E+00 
    8.0104163660055878E+00 
    9.2430227500121003E+00 
    1.3131824405016017E+01 
    5.8122390523295246E+00 
    8.3320139897605223E+00 
    1.3664547617699832E+01 
    9.1729564512817348E+00 
    1.0362926687855600E+01 
    5.9640191491221781E+00 
    8.2076363199212903E+00 
    1.2951321958814976E+01 
    1.3238421681128123E+01 
    4.8844817808645367E+00 
    9.1769670303033557E+00 
    8.0511413099773090E+00 
    1.4431435850051180E+01 
    1.3923106264995592E+01 
    1.4677110539994828E+01 
    9.1979676766744003E+00 
    1.3104656860605928E+01 
    1.2729099806913915E+01 
    9.0733754792475896E+00 
    1.2773918906158613E+01 
    9.6764416840538630E+00 
    5.5534200143384442E+00 
    9.4385464000279580E+00 
    1.3652304659132213E+01 
    1.2770922779172917E+01 
    6.3018892643709412E+00 
    1.2798020722485285E+01 
    1.0377205418862276E+01 
    9.3794242765649098E+00 
    8.9451816596566989E+00 
    1.2648248117668960E+01 
    9.8636563894083658E+00 
    1.2786258810587587E+01 
    9.0901349883156968E+00 
    5.7008708935835086E+00 
    9.4931876575037553E+00 
    7.9175364584942569E+00 
    1.1698414116498776E+01 
    1.3837904553457458E+01 
    1.2780279956114768E+01 
    1.3720448272011689E+01 
    9.1217533794191432E+00 
    6.1513949443896561E+00 
    6.2355813314029191E+00 
    9.5519355283129226E+00 
    9.4003642190234817E+00 
    1.3828721883408159E+00 
    1.2321564040185633E+01 
    1.4174930771933713E+01 
    8.8245365437363184E+00 
    5.8061684459792033E+00 
    1.0735783522934174E+01 
    1.2796631473040584E+01 
    6.8122497110972153E+00 
    4.6494091707882443E+00 
    9.3748008280517254E+00 
    1.2877237223539636E+01 
    1.3480146867334328E+01 
    1.3376795026565675E+01 
    1.3240011104712483E+01 
    6.6689413224239678E+00 
    9.3712105254913212E+00 
    1.2360596795406014E+01 
    7.3198175966144330E+00 
    1.3078219562850252E+01 
    1.1239097924674905E+01 
    6.3226764577776402E+00 
    1.2897038974584724E+01 
    1.3749927996804143E+01 
    1.2927549977339462E+01 
    6.5756419484516782E+00 
    9.4519293000294073E+00 
    7.1880522109115272E+00 
    8.9060942410430179E+00 
    1.2788823346598102E+01 
    1.2778032401681200E+01 
    6.6121950718332920E+00 
    1.3609773233116913E+01 
    9.9678133960548490E+00 
    1.2811364002454594E+01 
    1.3590528015967019E+01 
    1.2798772390968081E+01 
    1.1918422096216567E+01 
    1.4481101040531270E+01 
    8.7931663148673156E+00 
    1.3691881504116791E+01 
    1.2837866911901122E+01 
    1.3759812871871022E+01 
    1.3602824462250654E+01 
    8.8793892056261488E+00 
    9.2653338646429901E+00 
    8.8153414419158622E+00 
    1.1462254539095342E+01 
    3.8040778908209019E+00 
    9.4923578891978266E+00 
    1.4600726247188939E+01 
    9.6752945268346711E+00 
    9.8514377677721363E+00 
    1.3734182619548598E+01 
    1.3956062100725966E+01 
    8.7508081751421827E+00 
    1.2801974821230687E+01 
    1.2775015306000011E+01 
    9.8397814588752990E+00 
    1.3559901743831517E+01 
    6.6452743646457186E+00 
    4.2722350111703395E+00 
    1.0104021337144601E+01 
    9.6890964035080724E+00 
    1.2779680743732104E+01 
    6.2082381105925952E+00 
    1.3297086457949892E+01 
    4.3569238325379320E+00 
    9.6256621954506514E+00 
    8.9337600363675769E+00 
    9.4273770443937810E+00 
    1.5837783664405325E+01 
    3.6966372354419192E+00 
    9.4134610554391625E+00 
    1.1209376379042222E+01 
    9.0281125117750598E+00 
    7.2531398999967802E+00 
    1.3403770844563967E+01 
    1.5423306962847960E+01 
    1.3546649476601976E+01 
    9.3586723005744883E+00 
    5.4873748126028250E+00 
    1.5278565356352704E+01 
    1.3051633406398009E+01 
    6.8700912712881124E+00 
    8.9999746584575959E+00 
    1.4125804359293021E+01 
    3.1338778957983635E+00 
    9.7361445138597080E+00 
    1.3529518685885776E+01 
    9.4410536957935971E+00 
    8.1956416041343036E+00 
    9.4513650879992230E+00 
    1.2576804700229916E+01 
    9.4209993303919006E+00 
    4.9036833365076387E+00 
    8.7866113483521113E-01 
    6.9780853221062644E+00 
    1.4329289413455603E+01 
    8.8134278688299119E+00 
    1.0652919636342853E+01 
    1.0158148982944164E+01 
    1.1787757726414371E+01 
    9.4547721027332088E+00 
    1.2967804462978759E+01 
    1.5851454960550010E+01 
    1.1168673340544691E+01 
    1.3665795982165614E+01 
    5.1471297313975362E-01 
    1.2779786683411203E+01 
    5.3455505355557316E+00 
    1.4760869802328868E+01 
    9.4264453232361998E+00 
    8.3212277047208669E+00 
    7.3212179779252269E+00 
    5.1133506932348798E+00 
    1.0547058195391603E+01 
    7.3951945363140874E+00 
    1.1600665497152274E+01 
    2.1347605706695725E+00 
    1.0409691225123090E+01 
    1.2717234922133180E+01 
    5.6623883410323819E+00 
    1.3249073543878332E+01 
    1.4584826089396204E+01 
    1.3094516890045654E+01 
    9.3029642257482941E+00 
    9.4223908444868005E+00 
    9.4194797903412297E+00 
    5.5632126291127024E+00 
    8.5777829071603424E+00 
    8.4445067557653832E+00 
    9.4090814381004027E+00 
    8.7579766328953017E+00 
    6.5554120340870536E-01 
    6.1108883492882429E+00 
    9.1085748926858603E+00 
    9.3860667328799927E+00 
    1.1919031802375539E+01 
    2.0504370920005277E+00 
    9.8019727295049357E+00 
    9.6936401232650091E+00 
    3.5521337588198363E+00 
    1.2964226907225417E+01 
    8.1751371383991245E+00 
    9.5567299614274663E+00 
    1.3053552103551139E+01 
    5.1640862910706220E+00 
    1.3084392372770106E+01 
    8.2681399075735040E+00 
    9.3151071509261085E-01 
    8.8692937913546555E+00 
    1.3621439770128225E+01 
    1.2780167527568562E+01 
    1.2799008869458875E+01 
    9.7483552221337995E+00 
    9.6300810803168169E+00 
    8.1545491660848821E+00 
    6.6261430969445794E+00 
    1.3163732698681745E+01 
    8.9992219713505595E+00 
    6.3917069569121621E+00 
    1.2793742926109285E+01 
    1.3449700162257619E+01 
    9.5727885846114216E+00 
    9.2203185959921967E+00 
    1.5736953979852244E+01 
    9.8406064970447584E+00 
    1.3170220390919260E+01 
    7.7782520786147034E+00 
    1.5879434205982147E+01 
    6.1987372714531839E+00 
    8.5236334534003149E+00 
    6.9299905919698617E+00 
    1.0056676567859727E+01 
    7.9675056601211232E+00 
    1.5863498129279481E+01 
    9.8855423479109668E+00 
    1.2512940735741710E+01 
    6.3728883928106610E+00 
    9.4523784931654760E+00 
    1.3018273812187362E+01 
    7.9848486588785308E+00 
    6.9030682090198896E+00 
    1.0418404358760025E+01 
    1.3225069169409483E+01 
    6.8415591384687229E+00 
    8.9512782764035563E+00 
    9.2489303114801498E+00 
    1.2757211365056884E+01 
    9.0539347934818064E+00 
    1.3203750331035609E+01 
    1.3787142366250347E+01 
    8.1779359895744435E+00 
    8.0282805432358035E+00 
    7.4330812759981493E+00 
    1.2892901611454446E+01 
    9.7147715893491373E+00 
    1.5458969263501956E+01 
    1.2126374172075506E+01 
    1.2982509174057858E+01 
    1.5158477116799501E+01 
    1.4587576989140265E+01 
    9.4991598159571424E+00 
    9.3950846564897219E+00 
    1.2560190349612377E+01 
    1.2814660407246725E+01 
    1.3330989406203017E+01 
    1.3073329455919680E+01 
    1.5755872205526105E+01 
    9.8401701671151365E+00 
    8.2671964735545416E+00 
    9.8430248557921978E+00 
    1.3705306939318405E+01 
    9.5992293036791576E+00 
    5.5568487085045977E+00 
    9.2882504487693804E+00 
    1.4099353749943056E+01 
    9.7272763076368935E+00 
    8.2709737941087376E+00 
    9.1887211678798586E+00 
    1.4200450362101648E+01 
    1.2833001953194866E+01 
    7.8934789175374824E+00 
    1.4330848722395631E+01 
    9.5304193065745011E+00 
    1.3302812148090730E+01 
    1.4213929070236828E+01 
    9.9966434109734816E+00 
    5.1632077231391609E+00 
    1.0398576400989068E+01 
    5.3379597355406156E+00 
    9.6463616786336868E+00 
    9.4418290102864173E+00 
    1.0937891155012750E+01 
    5.6332639833949054E+00 
    1.1608758243665191E+01 
    9.4643810544622671E+00 
    1.3062636285362919E+01 
    9.9614558359241574E+00 
    7.7139422425784065E+00 
    9.0667805896700582E+00 
    9.8954550951575975E+00 
    9.9378772852778248E+00 
    1.3840941280963445E+01 
    7.9275808832455450E+00 
    7.7979469345182970E+00 
    5.9088408848521619E+00 
    1.3349211486261471E+01 
    9.1068608120506802E+00 
    1.2645022742454273E+01 
    9.4116057869351000E+00 
    6.4329660209041970E+00 
    1.2865049561231920E+01 
    9.3860821148321758E+00 
    6.9825863501243086E+00 
    7.3735176862325229E+00 
    7.6186757560023386E+00 
    1.3095062888662987E+01 
    9.4109368294284792E+00 
    1.3676168995220117E+01 
    9.3432784856682467E+00 
    9.2795556155272365E+00 
    8.8760051477753805E+00 
    1.2942135947292428E+01 
    9.1955182806658797E+00 
    7.6553286134791403E+00 
    1.4574523123809710E+01 
    1.3019121082419579E+01 
    6.4914127106906712E+00 
    2.5950589495199377E+00 
    9.4008394659439798E+00 
    8.8089412822877584E+00 
    8.0259433012792218E+00 
    8.6994483708700692E+00 
    1.2967679492773440E+01 
    9.1342177877019868E+00 
    8.3169972709589945E+00 
    1.2835194919416727E+01 
    6.4350791499079483E+00 
    1.2523585067454144E+01 
    8.5062565771399541E+00 
    7.6111914476424865E+00 
    8.0952393949372627E+00 
    1.3382030534370291E+01 
    9.4306741811907084E+00 
    9.4390407802698881E+00 
    5.7149709816587011E+00 
    6.1496083457850874E+00 
    1.1932120577690387E+01 
    9.4495338246112546E+00 
    9.4387018989012592E+00 
    1.4314976868043672E+01 
    7.7951612268353010E+00 
    9.4624256929145574E+00 
    6.6595727969920802E+00 
    6.8762057967307362E+00 
    1.2940541311878563E+01 
    9.0854648596356480E+00 
    6.7420026597006544E+00 
    9.9578043996322574E+00 
    9.3270221495019818E+00 
    1.2941667071367217E+01 
    1.4403311107627216E+01 
    9.9482054039261214E-01 
    9.4053984426485719E+00 
    9.6874072131506637E+00 
    1.2998399664847199E+01 
    8.9342703991731121E+00 
    9.4044468953113807E+00 
    1.3898600319082185E+01 
    8.1230453930369837E+00 
    6.7982905011697117E+00 
    1.1408361946536594E+01 
    1.2792918128091916E+01 
    1.3759975895454145E+01 
    1.4007540377825151E+01 
    9.2593607437289425E+00 
    9.3978152374990831E+00 
    1.0608900655495907E+01 
    6.1698920880479813E+00 
    1.2910406620880682E+01 
    7.2959868508227625E+00 
    6.4246259531723000E+00 
    1.1840376928579715E+01 
    1.1126362241003099E+01 
    6.2999486676472927E+00 
    1.2827026069718292E+01 
    1.3745930186437214E+01 
    9.8549473697453447E+00 
    1.4499291693088374E+01 
    1.2857304534949703E+01 
    9.0065594752284017E+00 
    1.3496366453405576E+01 
    6.8762924018133509E+00 
    1.2809536214037898E+01 
    9.4045612119436441E+00 
    9.3671025324516197E+00 
    1.4475789711002015E+01 
    9.1389529903778346E+00 
    1.1563527885985627E+01 
    8.0777658200780991E+00 
    1.3856414669441115E+01 
    1.2723123469605572E+01 
    8.4058109561360901E+00 
    1.2770891911181465E+01 
    8.4996684645090816E+00 
    9.4148307244323615E+00 
    1.3707588328350615E+01 
    1.3074335849633769E+01 
    1.3749146228263220E+01 
    1.3002332459993990E+01 
    8.5870532978429903E+00 
    8.7905485077741528E+00 
    1.3755240431218331E+01 
    8.9014195330197410E+00 
    1.2658908884447582E+01 
    9.1287909965569281E+00 
    3.8396873666889046E+00 
    6.4898564793098288E+00 
    6.0158254721693396E+00 
    1.3710654178969307E+01 
    1.4408659542054096E+01 
    1.2787843032110223E+01 
    1.0897525908433810E+01 
    1.3058257926517900E+01 
    1.2832441098821786E+01 
    1.3379869075784480E+01 
    5.5259863761491239E+00 
    3.5733999885979242E+00 
    1.0702225715747730E+01 
    9.0821430967084940E+00 
    1.2969290359114053E+01 
    1.2967062550787647E+01 
    9.7071047496350555E+00 
    1.3001510115341407E+01 
    9.3925974950585100E+00 
    9.2987824352588930E+00 
    4.9903567762985945E+00 
    3.5586104048184093E+00 
    1.4196374645467017E+01 
    7.3097225212345425E+00 
    8.3454825634979350E+00 
    9.6061262356002590E+00 
    1.5737784755541808E+01 
    9.6963096009895846E+00 
    9.6852276664276928E+00 
    4.0318655268449302E+00 
    9.6975198227079140E+00 
    9.7107131286550885E+00 
    1.3277143040315318E+01 
    8.1022015082172665E+00 
    8.9968396159548831E+00 
    1.4356442700176469E+01 
    9.4131196134526682E+00 
    1.2802782884637175E+01 
    1.3052076587625729E+01 
    1.1620414015021566E+01 
    7.9575724947553326E+00 
    1.3002957221359679E+01 
    9.2164670314904900E+00 
    1.2980886315910162E+01 
    1.2744493806090617E+01 
    1.3728972416835708E+01 
    1.2997462302466420E+01 
    1.2190884121571225E+01 
    9.4028312742855285E+00 
    6.2517542639184658E+00 
    1.5615751471768231E+01 
    7.4399663363818211E+00 
    1.3656547698031719E+01 
    9.4003770889955582E+00 
    7.8439892218548897E+00 
    4.6822038610753411E+00 
    9.7447374573602055E+00 
    1.2989130853867060E+01 
    1.2988180493618046E+01 
    9.3953833558743423E+00 
    9.3948479888656653E+00 
    1.4554623655135234E+01 
    1.3953799751358366E+01 
    9.7137038616232392E+00 
    3.3235935734787625E+00 
    1.2164625297079894E+01 
    1.5861815549465947E+01 
    9.4059795220756079E+00 
    1.1249383475614465E+01 
    8.9313589754403928E+00 
    1.5479701967977979E+01 
    1.4030087027636720E+01 
    1.3800243829866451E+01 
    9.7339912190880380E+00 
    4.3754433019425019E+00 
    8.8932932057404894E+00 
    8.9546497905225078E+00 
    8.9978307804721442E+00 
    3.6143141959363390E+00 