# vtk DataFile Version 2.0
Pressure Field Data 
ASCII 
DATASET UNSTRUCTURED_GRID 

POINTS 2860 double 

    0.0000000000000000E+00     0.0000000000000000E+00     0.0000000000000000E+00 
    1.0000000000000000E+00     0.0000000000000000E+00     0.0000000000000000E+00 
    1.0000000000000000E+00     1.0000000000000000E+00     0.0000000000000000E+00 
    0.0000000000000000E+00     1.0000000000000000E+00     0.0000000000000000E+00 
    2.5000000000000000E-01     2.5000000000000000E-01     0.0000000000000000E+00 
    7.5000000000000000E-01     2.5000000000000000E-01     0.0000000000000000E+00 
    7.5000000000000000E-01     7.5000000000000000E-01     0.0000000000000000E+00 
    2.5000000000000000E-01     7.5000000000000000E-01     0.0000000000000000E+00 
    3.1249999999942091E-02     0.0000000000000000E+00     0.0000000000000000E+00 
    6.2499999999873469E-02     0.0000000000000000E+00     0.0000000000000000E+00 
    9.3749999999826514E-02     0.0000000000000000E+00     0.0000000000000000E+00 
    1.2499999999977961E-01     0.0000000000000000E+00     0.0000000000000000E+00 
    1.5624999999968961E-01     0.0000000000000000E+00     0.0000000000000000E+00 
    1.8749999999959971E-01     0.0000000000000000E+00     0.0000000000000000E+00 
    2.1874999999950970E-01     0.0000000000000000E+00     0.0000000000000000E+00 
    2.4999999999941969E-01     0.0000000000000000E+00     0.0000000000000000E+00 
    2.8124999999932920E-01     0.0000000000000000E+00     0.0000000000000000E+00 
    3.1249999999923850E-01     0.0000000000000000E+00     0.0000000000000000E+00 
    3.4374999999914790E-01     0.0000000000000000E+00     0.0000000000000000E+00 
    3.7499999999905720E-01     0.0000000000000000E+00     0.0000000000000000E+00 
    4.0624999999896660E-01     0.0000000000000000E+00     0.0000000000000000E+00 
    4.3749999999887590E-01     0.0000000000000000E+00     0.0000000000000000E+00 
    4.6874999999878530E-01     0.0000000000000000E+00     0.0000000000000000E+00 
    4.9999999999869471E-01     0.0000000000000000E+00     0.0000000000000000E+00 
    5.3124999999877620E-01     0.0000000000000000E+00     0.0000000000000000E+00 
    5.6249999999885780E-01     0.0000000000000000E+00     0.0000000000000000E+00 
    5.9374999999893940E-01     0.0000000000000000E+00     0.0000000000000000E+00 
    6.2499999999902101E-01     0.0000000000000000E+00     0.0000000000000000E+00 
    6.5624999999910261E-01     0.0000000000000000E+00     0.0000000000000000E+00 
    6.8749999999918421E-01     0.0000000000000000E+00     0.0000000000000000E+00 
    7.1874999999926570E-01     0.0000000000000000E+00     0.0000000000000000E+00 
    7.4999999999934730E-01     0.0000000000000000E+00     0.0000000000000000E+00 
    7.8124999999942890E-01     0.0000000000000000E+00     0.0000000000000000E+00 
    8.1249999999951039E-01     0.0000000000000000E+00     0.0000000000000000E+00 
    8.4374999999959199E-01     0.0000000000000000E+00     0.0000000000000000E+00 
    8.7499999999967359E-01     0.0000000000000000E+00     0.0000000000000000E+00 
    9.0624999999975520E-01     0.0000000000000000E+00     0.0000000000000000E+00 
    9.3749999999983680E-01     0.0000000000000000E+00     0.0000000000000000E+00 
    9.6874999999991840E-01     0.0000000000000000E+00     0.0000000000000000E+00 
    1.0000000000000000E+00     3.1249999999942091E-02     0.0000000000000000E+00 
    1.0000000000000000E+00     6.2499999999873469E-02     0.0000000000000000E+00 
    1.0000000000000000E+00     9.3749999999826514E-02     0.0000000000000000E+00 
    1.0000000000000000E+00     1.2499999999977961E-01     0.0000000000000000E+00 
    1.0000000000000000E+00     1.5624999999968961E-01     0.0000000000000000E+00 
    1.0000000000000000E+00     1.8749999999959971E-01     0.0000000000000000E+00 
    1.0000000000000000E+00     2.1874999999950970E-01     0.0000000000000000E+00 
    1.0000000000000000E+00     2.4999999999941969E-01     0.0000000000000000E+00 
    1.0000000000000000E+00     2.8124999999932920E-01     0.0000000000000000E+00 
    1.0000000000000000E+00     3.1249999999923850E-01     0.0000000000000000E+00 
    1.0000000000000000E+00     3.4374999999914790E-01     0.0000000000000000E+00 
    1.0000000000000000E+00     3.7499999999905720E-01     0.0000000000000000E+00 
    1.0000000000000000E+00     4.0624999999896660E-01     0.0000000000000000E+00 
    1.0000000000000000E+00     4.3749999999887590E-01     0.0000000000000000E+00 
    1.0000000000000000E+00     4.6874999999878530E-01     0.0000000000000000E+00 
    1.0000000000000000E+00     4.9999999999869471E-01     0.0000000000000000E+00 
    1.0000000000000000E+00     5.3124999999877620E-01     0.0000000000000000E+00 
    1.0000000000000000E+00     5.6249999999885780E-01     0.0000000000000000E+00 
    1.0000000000000000E+00     5.9374999999893940E-01     0.0000000000000000E+00 
    1.0000000000000000E+00     6.2499999999902101E-01     0.0000000000000000E+00 
    1.0000000000000000E+00     6.5624999999910261E-01     0.0000000000000000E+00 
    1.0000000000000000E+00     6.8749999999918421E-01     0.0000000000000000E+00 
    1.0000000000000000E+00     7.1874999999926570E-01     0.0000000000000000E+00 
    1.0000000000000000E+00     7.4999999999934730E-01     0.0000000000000000E+00 
    1.0000000000000000E+00     7.8124999999942890E-01     0.0000000000000000E+00 
    1.0000000000000000E+00     8.1249999999951039E-01     0.0000000000000000E+00 
    1.0000000000000000E+00     8.4374999999959199E-01     0.0000000000000000E+00 
    1.0000000000000000E+00     8.7499999999967359E-01     0.0000000000000000E+00 
    1.0000000000000000E+00     9.0624999999975520E-01     0.0000000000000000E+00 
    1.0000000000000000E+00     9.3749999999983680E-01     0.0000000000000000E+00 
    1.0000000000000000E+00     9.6874999999991840E-01     0.0000000000000000E+00 
    9.6875000000003686E-01     1.0000000000000000E+00     0.0000000000000000E+00 
    9.3750000000011691E-01     1.0000000000000000E+00     0.0000000000000000E+00 
    9.0625000000015765E-01     1.0000000000000000E+00     0.0000000000000000E+00 
    8.7500000000017863E-01     1.0000000000000000E+00     0.0000000000000000E+00 
    8.4375000000028044E-01     1.0000000000000000E+00     0.0000000000000000E+00 
    8.1250000000040856E-01     1.0000000000000000E+00     0.0000000000000000E+00 
    7.8125000000054956E-01     1.0000000000000000E+00     0.0000000000000000E+00 
    7.5000000000066480E-01     1.0000000000000000E+00     0.0000000000000000E+00 
    7.1875000000086831E-01     1.0000000000000000E+00     0.0000000000000000E+00 
    6.8750000000102829E-01     1.0000000000000000E+00     0.0000000000000000E+00 
    6.5625000000114431E-01     1.0000000000000000E+00     0.0000000000000000E+00 
    6.2500000000129829E-01     1.0000000000000000E+00     0.0000000000000000E+00 
    5.9375000000147926E-01     1.0000000000000000E+00     0.0000000000000000E+00 
    5.6250000000168354E-01     1.0000000000000000E+00     0.0000000000000000E+00 
    5.3125000000188671E-01     1.0000000000000000E+00     0.0000000000000000E+00 
    5.0000000000205835E-01     1.0000000000000000E+00     0.0000000000000000E+00 
    4.6875000000192979E-01     1.0000000000000000E+00     0.0000000000000000E+00 
    4.3750000000180111E-01     1.0000000000000000E+00     0.0000000000000000E+00 
    4.0625000000167238E-01     1.0000000000000000E+00     0.0000000000000000E+00 
    3.7500000000154382E-01     1.0000000000000000E+00     0.0000000000000000E+00 
    3.4375000000141509E-01     1.0000000000000000E+00     0.0000000000000000E+00 
    3.1250000000128642E-01     1.0000000000000000E+00     0.0000000000000000E+00 
    2.8125000000115769E-01     1.0000000000000000E+00     0.0000000000000000E+00 
    2.5000000000102918E-01     1.0000000000000000E+00     0.0000000000000000E+00 
    2.1875000000090050E-01     1.0000000000000000E+00     0.0000000000000000E+00 
    1.8750000000077180E-01     1.0000000000000000E+00     0.0000000000000000E+00 
    1.5625000000064329E-01     1.0000000000000000E+00     0.0000000000000000E+00 
    1.2500000000051459E-01     1.0000000000000000E+00     0.0000000000000000E+00 
    9.3750000000385914E-02     1.0000000000000000E+00     0.0000000000000000E+00 
    6.2500000000257239E-02     1.0000000000000000E+00     0.0000000000000000E+00 
    3.1250000000128557E-02     1.0000000000000000E+00     0.0000000000000000E+00 
    0.0000000000000000E+00     9.6875000000003686E-01     0.0000000000000000E+00 
    0.0000000000000000E+00     9.3750000000011691E-01     0.0000000000000000E+00 
    0.0000000000000000E+00     9.0625000000015765E-01     0.0000000000000000E+00 
    0.0000000000000000E+00     8.7500000000017863E-01     0.0000000000000000E+00 
    0.0000000000000000E+00     8.4375000000028044E-01     0.0000000000000000E+00 
    0.0000000000000000E+00     8.1250000000040856E-01     0.0000000000000000E+00 
    0.0000000000000000E+00     7.8125000000054956E-01     0.0000000000000000E+00 
    0.0000000000000000E+00     7.5000000000066480E-01     0.0000000000000000E+00 
    0.0000000000000000E+00     7.1875000000086831E-01     0.0000000000000000E+00 
    0.0000000000000000E+00     6.8750000000102829E-01     0.0000000000000000E+00 
    0.0000000000000000E+00     6.5625000000114431E-01     0.0000000000000000E+00 
    0.0000000000000000E+00     6.2500000000129829E-01     0.0000000000000000E+00 
    0.0000000000000000E+00     5.9375000000147926E-01     0.0000000000000000E+00 
    0.0000000000000000E+00     5.6250000000168354E-01     0.0000000000000000E+00 
    0.0000000000000000E+00     5.3125000000188671E-01     0.0000000000000000E+00 
    0.0000000000000000E+00     5.0000000000205835E-01     0.0000000000000000E+00 
    0.0000000000000000E+00     4.6875000000192979E-01     0.0000000000000000E+00 
    0.0000000000000000E+00     4.3750000000180111E-01     0.0000000000000000E+00 
    0.0000000000000000E+00     4.0625000000167238E-01     0.0000000000000000E+00 
[...]
CELL_DATA 2795 
SCALARS Pressure double 1 
LOOKUP_TABLE default 

    6.0743492544187490E+00 
    1.3413244505406237E+01 
    9.4518490873910324E+00 
    9.1069571439312558E+00 
    7.3648932873169564E+00 
    1.3284401725295512E+01 
    1.3970372984567733E+01 
    5.4590008535021060E+00 
    1.0008277543742123E+01 
    7.6011561444261444E+00 
    6.4669455741733799E+00 
    1.3046231275469012E+01 
    1.3339927310338576E+01 
    1.3256002369269059E+01 
    8.6870734644647278E+00 
    5.3691638402001605E+00 
    8.4345285982091749E+00 
    6.8896706260054081E+00 
    1.2708451147154065E+01 
    9.4412498437656147E+00 
    9.3328187012829016E+00 
    1.3194467937974578E+01 
    8.8694862529835596E+00 
    3.5496467729874670E-01 
    1.3061095493220932E+01 
    1.3297540748601186E+01 
    1.4000573441909589E+01 
    6.2101871940468314E+00 
    1.2972040840209189E+01 
    1.3988802418854867E+01 
    9.5325814422494517E+00 
    9.6665763474818078E+00 
    6.6467214508022057E+00 
    9.4129727396128988E+00 
    3.1191011630719525E+00 
    8.4356148315447488E+00 
    9.4021838527226489E+00 
    1.4026109292419399E+01 
    1.3949167387935807E+01 
    1.3058500400739332E+01 
    7.3141944549859401E+00 
    1.3027494123145093E+01 
    7.4332114343622102E-01 
    9.3351788561259568E+00 
    1.3806109044910091E+01 
    1.3622286872696831E+01 
    1.3036190924255925E+01 
    1.0327987373610844E+01 
    1.3102888523126138E+01 
    8.6179782056832348E+00 
    8.2360077371586868E+00 
    9.6323418306647746E+00 
    9.2294598831244024E+00 
    8.4848801397244067E+00 
    9.6008397791457192E+00 
    1.2513207980352954E+01 
    1.1253861763890471E+01 
    7.4024635869881683E+00 
    1.3198636603696682E+01 
    1.3127918624172102E+01 
    9.1217042431448032E+00 
    9.0787280394139014E+00 
    9.0200202189186385E+00 
    1.3897425116662316E+01 
    1.4164066483304291E+01 
    8.4468285195601283E+00 
    9.6309344076728198E+00 
    1.2955111181343399E+01 
    1.1079208596639170E+01 
    9.1150012077384766E+00 
    1.4151198584293951E+01 
    1.3159468177758827E+01 
    8.3338712096358361E+00 
    1.3714889458773278E+01 
    9.8209792854540723E+00 
    1.2916058666395248E+01 
    1.4043625842463426E+01 
    9.8279197282781467E+00 
    6.1722392217902744E+00 
    9.6497566640629149E+00 
    1.3957008872496914E+01 
    1.4172913717763635E+01 
    8.4563104124865927E+00 
    9.5635207887144560E+00 
    1.4217054631687061E+01 
    9.4050854227181553E+00 
    8.9458405438632020E+00 
    1.1468704996467141E+01 
    5.9161525444513936E+00 
    8.2600364117475671E+00 
    9.5631847061757451E+00 
    1.0146021725082509E+01 
    1.5605362893866882E+01 
    7.1687220923481956E+00 
    9.6391173584535661E+00 
    1.3015873422785345E+01 
    1.3293388175384278E+01 
    6.3624596474818276E+00 
    9.2752444985694140E+00 
    9.5939208165796384E+00 
    1.3312608688844646E+01 
    9.5954085521406078E+00 
    1.3247784696161609E+01 
    3.8892314171799200E+00 
    6.2843649803508752E+00 
    9.8610189359505522E+00 
    1.3419909768889761E+01 
    8.4041477318416593E+00 
    8.9282948700466882E+00 
    9.5804385264624621E+00 
    8.9202439356548613E+00 
    1.0888087801558999E+01 
    8.6959020023758296E+00 
    8.3394918428799247E+00 
    6.6866879178140541E+00 
    1.1233277118245642E+01 
    9.6674170516812161E+00 
    1.3817434865718047E+01 
    8.2698463292538218E+00 
    9.0930498637429213E+00 
    1.3144463562594723E+01 
    7.6939040979015996E+00 
    1.3572944763596237E+01 
    9.4843139534318297E+00 
    9.0292979018745001E+00 
    1.3294812658230947E+01 
    9.6627840384536015E+00 
    1.4049787489385933E+01 
    1.1482084226008944E+01 
    1.2370143416814587E+01 
    1.4016506342025725E+01 
    7.1819241199975625E+00 
    9.8835176002688137E+00 
    1.3286584932363560E+01 
    2.9046595273908142E+00 
    9.5801636287732368E+00 
    1.3984846741288269E+01 
    9.0571686685152581E+00 
    1.0437089290272953E+01 
    6.3209948785867844E+00 
    1.3014737748140828E+01 
    1.6071711100628146E+01 
    1.1918121646100616E+01 
    9.0540809068449288E+00 
    8.1683801875351048E+00 
    1.0202806239175171E+01 
    9.5016906342680869E+00 
    6.5294087447427609E+00 
    1.4010808347550176E+01 
    1.3355833238834791E+01 
    1.3017539202971005E+01 
    1.0140308264867311E+01 
    8.3130994754990812E+00 
    9.3310916428814590E+00 
    1.3738091742154371E+01 
    8.5212263350845081E+00 
    9.4898197448492425E+00 
    8.6628128346512270E+00 
    1.0994544929646862E+01 
    1.6060397017136484E+01 
    1.3009382110770277E+01 
    8.2866921344698223E+00 
    1.3475631437673245E+01 
    1.3381954505010125E+01 
    1.3456984506113908E+01 
    1.4403885252309461E+01 
    1.4918370198391003E+01 
    1.3620053085026543E+01 
    9.6224008014255045E+00 
    1.0322160430564486E+01 
    1.3457319234495248E+01 
    1.3830064182419413E+01 
    6.7991195229529753E+00 
    1.3035654590382487E+01 
    1.3701435932787591E+01 
    6.6371013625797648E+00 
    1.4325089403874584E+01 
    1.4308043538540449E+01 
    1.2772921991510611E+01 
    9.9463423348012530E+00 
    2.5668340949321520E+00 
    1.3983851530255619E+01 
    9.8052549856510431E+00 
    1.4105343474106009E+01 
    8.9978471061140741E+00 
    1.3831036146803118E+01 
    9.1476990353760235E-01 
    1.2383307539353252E+01 
    9.1211630205564127E+00 
    8.2767174741263112E+00 
    8.0792568011724093E+00 
    9.4534941541742672E+00 
    1.0553412403984344E+01 
    9.8505577043286880E+00 
    6.7656363288042440E+00 
    1.3822635331604374E+01 
    1.3306865272019174E+01 
    1.1196032679160824E+01 
    9.8559789239026525E+00 
    1.4739446915136047E+00 
    7.4942032493597637E+00 
    5.2961110582174928E+00 
    1.4000818197780005E+01 
    1.0647515278250072E+01 
    1.3358908665698616E+01 
    1.3371354287232853E+01 
    8.5999570296216756E+00 
    1.1180244065063448E+01 
    1.3012709677111699E+01 
    1.4294752026771748E+01 
    6.3008099508659408E+00 
    1.1762186776029768E+01 
    9.8942800896613488E+00 
    5.6422539097014530E+00 
    8.5836029373397267E+00 
    1.1742899214705986E+01 
    1.3333847243422269E+01 
    9.5095567454490659E+00 
    1.3437362153926566E+01 
    1.3217793360348447E+01 
    1.3169067762298388E+01 
    9.3374410909704988E+00 
    8.2157822229082527E+00 
    1.3025398062090336E+01 
    8.3302112435681295E+00 
    9.5998908496398005E+00 
    8.1805927511798195E+00 
    9.4318941530214495E+00 
    1.3381246769810927E+01 
    5.9277487195558605E+00 
    8.5072071020611535E+00 
    1.3921363645981158E+01 
    9.3506602665623184E+00 
    1.0549600950502969E+01 
    6.0826457002607119E+00 
    8.3810170865487912E+00 
    1.3197801887697882E+01 
    1.3489537314095660E+01 
    4.9817391861281983E+00 
    9.3553119332437511E+00 
    8.2225840192539756E+00 
    1.4696036437115414E+01 
    1.4182761821672793E+01 
    1.4943465694582626E+01 
    9.3762389880930286E+00 
    1.3353684510078152E+01 
    1.2972059986620605E+01 
    9.2502948498500235E+00 
    1.3017671763057010E+01 
    9.8582991888140992E+00 
    5.6955354574852901E+00 
    9.6225305347582388E+00 
    1.3908819732066574E+01 
    1.3014637887257010E+01 
    6.4259064145485985E+00 
    1.3042192707018179E+01 
    1.0568010529428879E+01 
    9.5630789945821402E+00 
    9.1283883931397316E+00 
    1.2890069079605698E+01 
    1.0048895808964298E+01 
    1.3030157426375771E+01 
    9.2735364520394903E+00 
    5.8532652531997078E+00 
    9.6703756426828882E+00 
    8.0862779052891245E+00 
    1.1923735410242811E+01 
    1.4096903403460294E+01 
    1.3023946890969153E+01 
    1.3978135337271699E+01 
    9.2989135506398899E+00 
    6.2739300109835012E+00 
    6.3591163844853487E+00 
    9.7363531294881582E+00 
    9.5762209720790477E+00 
    1.4175988046526056E+00 
    1.2557679249662742E+01 
    1.4438421156967888E+01 
    9.0075499525012557E+00 
    5.9415786380595561E+00 
    1.0948414455036350E+01 
    1.3040790350366136E+01 
    6.9612552494882918E+00 
    4.7621467823804275E+00 
    9.5514606273051683E+00 
    1.3120554935811979E+01 
    1.3734495462226681E+01 
    1.3631641191093356E+01 
    1.3491158169656261E+01 
    6.8184384186931055E+00 
    9.5550817049936363E+00 
    1.2598054398153941E+01 
    7.4615557569030697E+00 
    1.3327375332720507E+01 
    1.1416426129095514E+01 
    6.4475974223550558E+00 
    1.3142715267678332E+01 
    1.4007757814490674E+01 
    1.3173867311520487E+01 
    6.7205035058251461E+00 
    9.6270292103128856E+00 
    7.3434599583834217E+00 
    9.0733167338944405E+00 
    1.3032842053706872E+01 
    1.3021864802336532E+01 
    6.7577216664858515E+00 
    1.3866526976525160E+01 
    1.0153277278302808E+01 
    1.3054931147745476E+01 
    1.3846932485317506E+01 
    1.3042468303489713E+01 
    1.2146395196441658E+01 
    1.4746341831957107E+01 
    8.9745296394032614E+00 
    1.3949156445312896E+01 
    1.3081594835931991E+01 
    1.4017960410530707E+01 
    1.3859470933549094E+01 
    9.0618805744232311E+00 
    9.4437235446912808E+00 
    8.9984527777048218E+00 
    1.1682639055624344E+01 
    3.8986631024258998E+00 
    9.6765492682249548E+00 
    1.4866691330024313E+01 
    9.8567470335651883E+00 
    1.0035375064925107E+01 
    1.3992049875785211E+01 
    1.4216114733216592E+01 
    8.9284121987466456E+00 
    1.3046217994413054E+01 
    1.3018707326636239E+01 
    1.0023566301332782E+01 
    1.3816067344417995E+01 
    6.7762044721350776E+00 
    4.3562303582753064E+00 
    1.0291258046521541E+01 
    9.8710412434928649E+00 
    1.3023555079893306E+01 
    6.3470214727375573E+00 
    1.3550761528384948E+01 
    4.4460886333041962E+00 
    9.8057186763214190E+00 
    9.1132590768360693E+00 
    9.6030744027654933E+00 
    1.6109444104323366E+01 
    3.7886398207853862E+00 
    9.5973594282710906E+00 
    1.1427851905371863E+01 
    9.2042705964354017E+00 
    7.4155132765910006E+00 
    1.3657041863851315E+01 
    1.5693845149877163E+01 
    1.3802820741843981E+01 
    9.5421407069101019E+00 
    5.6173873330197965E+00 
    1.5548008298014901E+01 
    1.3299761409141887E+01 
    7.0399645782896894E+00 
    9.1852502303383918E+00 
    1.4387559248762450E+01 
    3.2133865178172512E+00 
    9.9185333654107612E+00 
    1.3785515506724481E+01 
    9.6164817814529560E+00 
    8.3515163936245553E+00 
    9.6354131297916421E+00 
    1.2816808993121899E+01 
    9.5969726419007610E+00 
    5.0212132343159190E+00 
    9.0282031985696154E-01 
    7.1153517060781111E+00 
    1.4593394753545500E+01 
    8.9965525972959153E+00 
    1.0828963339911697E+01 
    1.0344618306108385E+01 
    1.2003166460645613E+01 
    9.6301836649871309E+00 
    1.3214586043694611E+01 
    1.6123149931086559E+01 
    1.1384018531225403E+01 
    1.3922719375151406E+01 
    5.2864638075143588E-01 
    1.3023659676633494E+01 
    5.4913613030221899E+00 
    1.5027742457748236E+01 
    9.6103943982190643E+00 
    8.4831537528748839E+00 
    7.4789435310041412E+00 
    5.2334540991813379E+00 
    1.0748926849168303E+01 
    7.5403152054936760E+00 
    1.1824417235848927E+01 
    2.1753749373449032E+00 
    1.0601018024360959E+01 
    1.2960074074150135E+01 
    5.7743330131649229E+00 
    1.3498169691964415E+01 
    1.4850173837005295E+01 
    1.3336740135747737E+01 
    9.4859429596700391E+00 
    9.5979566114693604E+00 
    9.6034046218718458E+00 
    5.6909057153262967E+00 
    8.7575635311773183E+00 
    8.6218686826506250E+00 
    9.5929599985687712E+00 
    8.9401769664644846E+00 
    6.7432540343583836E-01 
    6.2656588120971426E+00 
    9.2951505028731933E+00 
    9.5697696900185623E+00 
    1.2148232546330725E+01 
    2.1037539299899808E+00 
    9.9852516291033009E+00 
    9.8754231194233739E+00 
    3.6410946886183000E+00 
    1.3205897133724628E+01 
    8.3472519242289405E+00 
    9.7346616270546260E+00 
    1.3301704024506453E+01 
    5.2845388625860465E+00 
    1.3326032435900407E+01 
    8.4426384755705239E+00 
    9.5662061371417539E-01 
    9.0527445439046712E+00 
    1.3878027994992840E+01 
    1.3023988318529522E+01 
    1.3042871496274239E+01 
    9.9334629607135234E+00 
    9.8103669745494813E+00 
    8.3270131746575355E+00 
    6.7855755899101107E+00 
    1.3414235239712470E+01 
    9.1841582823393058E+00 
    6.5576473111125946E+00 
    1.3037712526389997E+01 
    1.3703270174437211E+01 
    9.7573037925228991E+00 
    9.3981080356990727E+00 
    1.6008189768165117E+01 
    1.0024400307744029E+01 
    1.3420312049756808E+01 
    7.9447359778753279E+00 
    1.6151121107626448E+01 
    6.3214875891772717E+00 
    8.6986030938187717E+00 
    7.0655377092626059E+00 
    1.0243321627838821E+01 
    8.1225728158120258E+00 
    1.6135154776806861E+01 
    1.0069929155834647E+01 
    1.2752595301020635E+01 
    6.4987177961276954E+00 
    9.6268136651097311E+00 
    1.3265911803879357E+01 
    8.1401327635138045E+00 
    7.0615449320777239E+00 
    1.0625081963622296E+01 
    1.3475993027402877E+01 
    6.9753229115855842E+00 
    9.1311208923956340E+00 
    9.4273769329102990E+00 
    1.3000716429657141E+01 
    9.2300229900495854E+00 
    1.3454387642289182E+01 
    1.4045604316550511E+01 
    8.3509597730457301E+00 
    8.1990091730293884E+00 
    7.5765832830118454E+00 
    1.3138559681482702E+01 
    9.8943741384029131E+00 
    1.5729558543266997E+01 
    1.2342440386732127E+01 
    1.3229537176129238E+01 
    1.5427290730142403E+01 
    1.4852826486810985E+01 
    9.6751513478261035E+00 
    9.5788664859768478E+00 
    1.2800002401765221E+01 
    1.3059115161609370E+01 
    1.3584493872562900E+01 
    1.3321792708876661E+01 
    1.6027420389916795E+01 
    1.0023958744826370E+01 
    8.4414495812452071E+00 
    1.0029905460062819E+01 
    1.3962794995057536E+01 
    9.7786186258004708E+00 
    5.6715466726859614E+00 
    9.4711116144029450E+00 
    1.4361292262674080E+01 
    9.9095645371904091E+00 
    8.4454713323072497E+00 
    9.3672549553316635E+00 
    1.4463155645597196E+01 
    1.3077452262063378E+01 
    8.0630814316336128E+00 
    1.4594643960159781E+01 
    9.7068282196087949E+00 
    1.3554901598521234E+01 
    1.4476686043231688E+01 
    1.0185188618509676E+01 
    5.2884642331055636E+00 
    1.0601468401464226E+01 
    5.4649453928338332E+00 
    9.8278642615552450E+00 
    9.6177308464610789E+00 
    1.1152747245650975E+01 
    5.7637693371867744E+00 
    1.1834267904646985E+01 
    9.6393275712311546E+00 
    1.3310922956064458E+01 
    1.0160609022725259E+01 
    7.8852593673897937E+00 
    9.2437285888063982E+00 
    1.0081146519153039E+01 
    1.0122948359980960E+01 
    1.4100744461574081E+01 
    8.0962104952761749E+00 
    7.9643867254535134E+00 
    6.0438190079960963E+00 
    1.3602720929413326E+01 
    9.2843838886029779E+00 
    1.2887034836435431E+01 
    9.5878330076663829E+00 
    6.5767390293319732E+00 
    1.3110273548148278E+01 
    9.5624910825783420E+00 
    7.1352267471242543E+00 
    7.5325685939857721E+00 
    7.7819319421347011E+00 
    1.3343930900586940E+01 
    9.5948260495982751E+00 
    1.3933313030915926E+01 
    9.5199627387082852E+00 
    9.4565193631033129E+00 
    9.0553887264377444E+00 
    1.3188528860250431E+01 
    9.3724001874537759E+00 
    7.8191751946642247E+00 
    1.4839752304797917E+01 
    1.3266785150539869E+01 
    6.6193935132587365E+00 
    2.6616370594836325E+00 
    9.5847002036658644E+00 
    8.9805085792983661E+00 
    8.1961805964328018E+00 
    8.8769544083001843E+00 
    1.3214568798248191E+01 
    9.3159658625530053E+00 
    8.4908192291794684E+00 
    1.3080026093181866E+01 
    6.5623475579008179E+00 
    1.2763053611087026E+01 
    8.6710061567519983E+00 
    7.7776209654324582E+00 
    8.2667476251493035E+00 
    1.3635250299089664E+01 
    9.6061940525020866E+00 
    9.6142857027235618E+00 
    5.8452587155271933E+00 
    6.2872947067916130E+00 
    1.2162263636605605E+01 
    9.6243698162584117E+00 
    9.6227124974941898E+00 
    1.4578838894916140E+01 
    7.9616094289117711E+00 
    9.6373301420002679E+00 
    6.7910279278604415E+00 
    7.0117774314209855E+00 
    1.3187085710558678E+01 
    9.2611859191187449E+00 
    6.8897907503680482E+00 
    1.0149465544956795E+01 
    9.5046954301407371E+00 
    1.3188192902577942E+01 
    1.4667746846725974E+01 
    1.0196495717984679E+00 
    9.5892834813987520E+00 
    9.8692212986308352E+00 
    1.3245694003939072E+01 
    9.1180761450089705E+00 
    9.5799880989352442E+00 
    1.4159951495138960E+01 
    8.2951513205383520E+00 
    6.9470672467545844E+00 
    1.1608895830058698E+01 
    1.3036980949639750E+01 
    1.4018064126933982E+01 
    1.4267972130764273E+01 
    9.4423840216660970E+00 
    9.5816268694335438E+00 
    1.0813346308294177E+01 
    6.2931040811660370E+00 
    1.3156392743494074E+01 
    7.4532176873914437E+00 
    6.5515075528976219E+00 
    1.2058507136365920E+01 
    1.1340848886690809E+01 
    6.4245791895347448E+00 
    1.3071516302484405E+01 
    1.4003897756498851E+01 
    1.0038930840014304E+01 
    1.4764472206995396E+01 
    1.3102464455912138E+01 
    9.1892266749545559E+00 
    1.3751649559612003E+01 
    7.0116609785035049E+00 
    1.3053907593050628E+01 
    9.5884281541870937E+00 
    9.5509337017730527E+00 
    1.4740928540335041E+01 
    9.3171930948718256E+00 
    1.1784658580444217E+01 
    8.2491812902818182E+00 
    1.4115634951811497E+01 
    1.2966102241144871E+01 
    8.5826766507885779E+00 
    1.3014430358403624E+01 
    8.6644957654406944E+00 
    9.5899091811806141E+00 
    1.3965068061199531E+01 
    1.3323286121987115E+01 
    1.4007134832085352E+01 
    1.3249697220740986E+01 
    8.7670529519134188E+00 
    8.9709517164774493E+00 
    1.4013329419708674E+01 
    9.0830751161187901E+00 
    1.2900387938137762E+01 
    9.3064704760962105E+00 
    3.9348244429430421E+00 
    6.6177315368706759E+00 
    6.1350279540251309E+00 
    1.3968196514915586E+01 
    1.4673192930238011E+01 
    1.3031657644040584E+01 
    1.1094728519562906E+01 
    1.3307564213698797E+01 
    1.3077188951312127E+01 
    1.3632776218288992E+01 
    5.6533610988799303E+00 
    3.6630330658256538E+00 
    1.0896975276357734E+01 
    9.2659276606613492E+00 
    1.3216209739554834E+01 
    1.3213940756257383E+01 
    9.8900616650158657E+00 
    1.3248938385329707E+01 
    9.5763732273476361E+00 
    9.4820917367260140E+00 
    5.1080547084593579E+00 
    3.6475246959833139E+00 
    1.4458908972123529E+01 
    7.4530438767749310E+00 
    8.5211738791457403E+00 
    9.7856377480773578E+00 
    1.6009124619472683E+01 
    9.8782621578653362E+00 
    9.8673095606714263E+00 
    4.1327805279416578E+00 
    9.8796070232392346E+00 
    9.8929864697121737E+00 
    1.3529580647068755E+01 
    8.2735842011960194E+00 
    9.1695660502293190E+00 
    1.4620477726249209E+01 
    9.5970445763077983E+00 
    1.3046852449647595E+01 
    1.3297716551672121E+01 
    1.1826579815515487E+01 
    8.1138067652234476E+00 
    1.3250372926165053E+01 
    9.4001884302747154E+00 
    1.3222178102501577E+01 
    1.2987814868102484E+01 
    1.3986742057236285E+01 
    1.3244738460931734E+01 
    1.2423142842001846E+01 
    9.5866832470461141E+00 
    6.3754508718725171E+00 
    1.5886711885268511E+01 
    7.5997171549300857E+00 
    1.3912973601587034E+01 
    9.5842215775507356E+00 
    8.0105133858332120E+00 
    4.7942984520855685E+00 
    9.9279361638278232E+00 
    1.3236275341922408E+01 
    1.3235434787716994E+01 
    9.5705990320384089E+00 
    9.5786772712854678E+00 
    1.4820124886502391E+01 
    1.4213700862144359E+01 
    9.8958582461378644E+00 
    3.4075176346525811E+00 
    1.2392979651150455E+01 
    1.6133395245162834E+01 
    9.5898404824502137E+00 
    1.1449594912903722E+01 
    9.1153175213750384E+00 
    1.5750029575837278E+01 
    1.4290930180417378E+01 
    1.4059748422295598E+01 
    9.9164142059823472E+00 
    4.4740661709105405E+00 
    9.0770697133268889E+00 
    9.1385707493467088E+00 
    9.1814412724474703E+00 
    3.7050207266953405E+00 