# vtk DataFile Version 2.0
Pressure Field Data 
ASCII 
DATASET UNSTRUCTURED_GRID 

POINTS 2860 double 

    0.0000000000000000E+00     0.0000000000000000E+00     0.0000000000000000E+00 
    1.0000000000000000E+00     0.0000000000000000E+00     0.0000000000000000E+00 
    1.0000000000000000E+00     1.0000000000000000E+00     0.0000000000000000E+00 
    0.0000000000000000E+00     1.0000000000000000E+00     0.0000000000000000E+00 
    2.5000000000000000E-01     2.5000000000000000E-01     0.0000000000000000E+00 
    7.5000000000000000E-01     2.5000000000000000E-01     0.0000000000000000E+00 
    7.5000000000000000E-01     7.5000000000000000E-01     0.0000000000000000E+00 
    2.5000000000000000E-01     7.5000000000000000E-01     0.0000000000000000E+00 
    3.1249999999942091E-02     0.0000000000000000E+00     0.0000000000000000E+00 
    6.2499999999873469E-02     0.0000000000000000E+00     0.0000000000000000E+00 
    9.3749999999826514E-02     0.0000000000000000E+00     0.0000000000000000E+00 
    1.2499999999977961E-01     0.0000000000000000E+00     0.0000000000000000E+00 
    1.5624999999968961E-01     0.0000000000000000E+00     0.0000000000000000E+00 
    1.8749999999959971E-01     0.0000000000000000E+00     0.0000000000000000E+00 
    2.1874999999950970E-01     0.0000000000000000E+00     0.0000000000000000E+00 
    2.4999999999941969E-01     0.0000000000000000E+00     0.0000000000000000E+00 
    2.8124999999932920E-01     0.0000000000000000E+00     0.0000000000000000E+00 
    3.1249999999923850E-01     0.0000000000000000E+00     0.0000000000000000E+00 
    3.4374999999914790E-01     0.0000000000000000E+00     0.0000000000000000E+00 
    3.7499999999905720E-01     0.0000000000000000E+00     0.0000000000000000E+00 
    4.0624999999896660E-01     0.0000000000000000E+00     0.0000000000000000E+00 
    4.3749999999887590E-01     0.0000000000000000E+00     0.0000000000000000E+00 
    4.6874999999878530E-01     0.0000000000000000E+00     0.0000000000000000E+00 
    4.9999999999869471E-01     0.0000000000000000E+00     0.0000000000000000E+00 
    5.3124999999877620E-01     0.0000000000000000E+00     0.0000000000000000E+00 
    5.6249999999885780E-01     0.0000000000000000E+00     0.0000000000000000E+00 
    5.9374999999893940E-01     0.0000000000000000E+00     0.0000000000000000E+00 
    6.2499999999902101E-01     0.0000000000000000E+00     0.0000000000000000E+00 
    6.5624999999910261E-01     0.0000000000000000E+00     0.0000000000000000E+00 
    6.8749999999918421E-01     0.0000000000000000E+00     0.0000000000000000E+00 
    7.1874999999926570E-01     0.0000000000000000E+00     0.0000000000000000E+00 
    7.4999999999934730E-01     0.0000000000000000E+00     0.0000000000000000E+00 
    7.8124999999942890E-01     0.0000000000000000E+00     0.0000000000000000E+00 
    8.1249999999951039E-01     0.0000000000000000E+00     0.0000000000000000E+00 
    8.4374999999959199E-01     0.0000000000000000E+00     0.0000000000000000E+00 
    8.7499999999967359E-01     0.0000000000000000E+00     0.0000000000000000E+00 
    9.0624999999975520E-01     0.0000000000000000E+00     0.0000000000000000E+00 
    9.3749999999983680E-01     0.0000000000000000E+00     0.0000000000000000E+00 
    9.6874999999991840E-01     0.0000000000000000E+00     0.0000000000000000E+00 
    1.0000000000000000E+00     3.1249999999942091E-02     0.0000000000000000E+00 
    1.0000000000000000E+00     6.2499999999873469E-02     0.0000000000000000E+00 
    1.0000000000000000E+00     9.3749999999826514E-02     0.0000000000000000E+00 
    1.0000000000000000E+00     1.2499999999977961E-01     0.0000000000000000E+00 
    1.0000000000000000E+00     1.5624999999968961E-01     0.0000000000000000E+00 
    1.0000000000000000E+00     1.8749999999959971E-01     0.0000000000000000E+00 
    1.0000000000000000E+00     2.1874999999950970E-01     0.0000000000000000E+00 
    1.0000000000000000E+00     2.4999999999941969E-01     0.0000000000000000E+00 
    1.0000000000000000E+00     2.8124999999932920E-01     0.0000000000000000E+00 
    1.0000000000000000E+00     3.1249999999923850E-01     0.0000000000000000E+00 
    1.0000000000000000E+00     3.4374999999914790E-01     0.0000000000000000E+00 
    1.0000000000000000E+00     3.7499999999905720E-01     0.0000000000000000E+00 
    1.0000000000000000E+00     4.0624999999896660E-01     0.0000000000000000E+00 
    1.0000000000000000E+00     4.3749999999887590E-01     0.0000000000000000E+00 
    1.0000000000000000E+00     4.6874999999878530E-01     0.0000000000000000E+00 
    1.0000000000000000E+00     4.9999999999869471E-01     0.0000000000000000E+00 
    1.0000000000000000E+00     5.3124999999877620E-01     0.0000000000000000E+00 
    1.0000000000000000E+00     5.6249999999885780E-01     0.0000000000000000E+00 
    1.0000000000000000E+00     5.9374999999893940E-01     0.0000000000000000E+00 
    1.0000000000000000E+00     6.2499999999902101E-01     0.0000000000000000E+00 
    1.0000000000000000E+00     6.5624999999910261E-01     0.0000000000000000E+00 
    1.0000000000000000E+00     6.8749999999918421E-01     0.0000000000000000E+00 
    1.0000000000000000E+00     7.1874999999926570E-01     0.0000000000000000E+00 
    1.0000000000000000E+00     7.4999999999934730E-01     0.0000000000000000E+00 
    1.0000000000000000E+00     7.8124999999942890E-01     0.0000000000000000E+00 
    1.0000000000000000E+00     8.1249999999951039E-01     0.0000000000000000E+00 
    1.0000000000000000E+00     8.4374999999959199E-01     0.0000000000000000E+00 
    1.0000000000000000E+00     8.7499999999967359E-01     0.0000000000000000E+00 
    1.0000000000000000E+00     9.0624999999975520E-01     0.0000000000000000E+00 
    1.0000000000000000E+00     9.3749999999983680E-01     0.0000000000000000E+00 
    1.0000000000000000E+00     9.6874999999991840E-01     0.0000000000000000E+00 
    9.6875000000003686E-01     1.0000000000000000E+00     0.0000000000000000E+00 
    9.3750000000011691E-01     1.0000000000000000E+00     0.0000000000000000E+00 
    9.0625000000015765E-01     1.0000000000000000E+00     0.0000000000000000E+00 
    8.7500000000017863E-01     1.0000000000000000E+00     0.0000000000000000E+00 
    8.4375000000028044E-01     1.0000000000000000E+00     0.0000000000000000E+00 
    8.1250000000040856E-01     1.0000000000000000E+00     0.0000000000000000E+00 
    7.8125000000054956E-01     1.0000000000000000E+00     0.0000000000000000E+00 
    7.5000000000066480E-01     1.0000000000000000E+00     0.0000000000000000E+00 
    7.1875000000086831E-01     1.0000000000000000E+00     0.0000000000000000E+00 
    6.8750000000102829E-01     1.0000000000000000E+00     0.0000000000000000E+00 
    6.5625000000114431E-01     1.0000000000000000E+00     0.0000000000000000E+00 
    6.2500000000129829E-01     1.0000000000000000E+00     0.0000000000000000E+00 
    5.9375000000147926E-01     1.0000000000000000E+00     0.0000000000000000E+00 
    5.6250000000168354E-01     1.0000000000000000E+00     0.0000000000000000E+00 
    5.3125000000188671E-01     1.0000000000000000E+00     0.0000000000000000E+00 
    5.0000000000205835E-01     1.0000000000000000E+00     0.0000000000000000E+00 
    4.6875000000192979E-01     1.0000000000000000E+00     0.0000000000000000E+00 
    4.3750000000180111E-01     1.0000000000000000E+00     0.0000000000000000E+00 
    4.0625000000167238E-01     1.0000000000000000E+00     0.0000000000000000E+00 
    3.7500000000154382E-01     1.0000000000000000E+00     0.0000000000000000E+00 
    3.4375000000141509E-01     1.0000000000000000E+00     0.0000000000000000E+00 
    3.1250000000128642E-01     1.0000000000000000E+00     0.0000000000000000E+00 
    2.8125000000115769E-01     1.0000000000000000E+00     0.0000000000000000E+00 
    2.5000000000102918E-01     1.0000000000000000E+00     0.0000000000000000E+00 
    2.1875000000090050E-01     1.0000000000000000E+00     0.0000000000000000E+00 
    1.8750000000077180E-01     1.0000000000000000E+00     0.0000000000000000E+00 
    1.5625000000064329E-01     1.0000000000000000E+00     0.0000000000000000E+00 
    1.2500000000051459E-01     1.0000000000000000E+00     0.0000000000000000E+00 
    9.3750000000385914E-02     1.0000000000000000E+00     0.0000000000000000E+00 
    6.2500000000257239E-02     1.0000000000000000E+00     0.0000000000000000E+00 
    3.1250000000128557E-02     1.0000000000000000E+00     0.0000000000000000E+00 
    0.0000000000000000E+00     9.6875000000003686E-01     0.0000000000000000E+00 
    0.0000000000000000E+00     9.3750000000011691E-01     0.0000000000000000E+00 
    0.0000000000000000E+00     9.0625000000015765E-01     0.0000000000000000E+00 
    0.0000000000000000E+00     8.7500000000017863E-01     0.0000000000000000E+00 
    0.0000000000000000E+00     8.4375000000028044E-01     0.0000000000000000E+00 
    0.0000000000000000E+00     8.1250000000040856E-01     0.0000000000000000E+00 
    0.0000000000000000E+00     7.8125000000054956E-01     0.0000000000000000E+00 
    0.0000000000000000E+00     7.5000000000066480E-01     0.0000000000000000E+00 
    0.0000000000000000E+00     7.1875000000086831E-01     0.0000000000000000E+00 
    0.0000000000000000E+00     6.8750000000102829E-01     0.0000000000000000E+00 
    0.0000000000000000E+00     6.5625000000114431E-01     0.0000000000000000E+00 
    0.0000000000000000E+00     6.2500000000129829E-01     0.0000000000000000E+00 
    0.0000000000000000E+00     5.9375000000147926E-01     0.0000000000000000E+00 
    0.0000000000000000E+00     5.6250000000168354E-01     0.0000000000000000E+00 
    0.0000000000000000E+00     5.3125000000188671E-01     0.0000000000000000E+00 
    0.0000000000000000E+00     5.0000000000205835E-01     0.0000000000000000E+00 
    0.0000000000000000E+00     4.6875000000192979E-01     0.0000000000000000E+00 
    0.0000000000000000E+00     4.3750000000180111E-01     0.0000000000000000E+00 
    0.0000000000000000E+00     4.0625000000167238E-01     0.0000000000000000E+00 
[...]
CELL_DATA 2795 
SCALARS Pressure double 1 
LOOKUP_TABLE default 

    7.4651914046633960E+00 
    1.6195733291442629E+01 
    1.1452582295115622E+01 
    1.1168676925126119E+01 
    9.0745353752556159E+00 
    1.6061749836923941E+01 
    1.6847824937909518E+01 
    6.7031778810302995E+00 
    1.2008874749842038E+01 
    9.2612727606689997E+00 
    7.9387847557083804E+00 
    1.5782057156877213E+01 
    1.6105738062264951E+01 
    1.6029577134837172E+01 
    1.0567450325444185E+01 
    6.5901349612146696E+00 
    1.0382873569379909E+01 
    8.4331748247596483E+00 
    1.5390325359288440E+01 
    1.1435190236130348E+01 
    1.1333129249348019E+01 
    1.5955654086668931E+01 
    1.0896639379034543E+01 
    4.3823051468522639E-01 
    1.5719840323998502E+01 
    1.6059606342408923E+01 
    1.6881664751973535E+01 
    7.7019196382182784E+00 
    1.5696865099070395E+01 
    1.6861703883022962E+01 
    1.1608965715922130E+01 
    1.1639666329599274E+01 
    8.4029967070848528E+00 
    1.1415708345995391E+01 
    3.8343704652443753E+00 
    1.0382776743825692E+01 
    1.1402077267328801E+01 
    1.6903166140338488E+01 
    1.6823480958949844E+01 
    1.5796022080751273E+01 
    9.0413866613249780E+00 
    1.5735537823893926E+01 
    9.1781032354139402E-01 
    1.1405937231455120E+01 
    1.6651156899980990E+01 
    1.6394276311895769E+01 
    1.5770484859279980E+01 
    1.2399576748802469E+01 
    1.5833652238580797E+01 
    1.0605907058887906E+01 
    1.0145209120658230E+01 
    1.1603913721695488E+01 
    1.1308804537979883E+01 
    1.0447138982503537E+01 
    1.1679085487010639E+01 
    1.5163182202192697E+01 
    1.3408217875474474E+01 
    9.1205318421949730E+00 
    1.5962508671958613E+01 
    1.5877203591866420E+01 
    1.1150292272005963E+01 
    1.1028293562922237E+01 
    1.1071524746357381E+01 
    1.6757924875810478E+01 
    1.7070285726877962E+01 
    1.0400765415310351E+01 
    1.1602466235050541E+01 
    1.5578554209213531E+01 
    1.3412700669585842E+01 
    1.1076607405159764E+01 
    1.7048899992744747E+01 
    1.5885311658473643E+01 
    1.0262714664398819E+01 
    1.6514162298236414E+01 
    1.1914232529094551E+01 
    1.5564934739294227E+01 
    1.6926197580471072E+01 
    1.1956792876071109E+01 
    7.6029982126383500E+00 
    1.1620434671014502E+01 
    1.6832703875894421E+01 
    1.7068416570805692E+01 
    1.0400136903890800E+01 
    1.1546285611376661E+01 
    1.7122280431805962E+01 
    1.1401504548191268E+01 
    1.0985487314115268E+01 
    1.3886452427326340E+01 
    7.2893322195377444E+00 
    1.0175269812833417E+01 
    1.1543713646740185E+01 
    1.2167343127675233E+01 
    1.8623938279644182E+01 
    8.8306473102982128E+00 
    1.1610238050292127E+01 
    1.5746751149350343E+01 
    1.6046131054676966E+01 
    7.8295729342712033E+00 
    1.1267010327724901E+01 
    1.1577252682401886E+01 
    1.6071668442211518E+01 
    1.1568946999550516E+01 
    1.5988411718062203E+01 
    4.7960041650244758E+00 
    7.7167347963773159E+00 
    1.1825274635178156E+01 
    1.6205173435470154E+01 
    1.0347935983241589E+01 
    1.0921676578179788E+01 
    1.1548699523489812E+01 
    1.0954284731308260E+01 
    1.3017366835289895E+01 
    1.0654615717922077E+01 
    1.0270245252318446E+01 
    8.2911467754266397E+00 
    1.3638381400824716E+01 
    1.1645088350665880E+01 
    1.6666385384893768E+01 
    1.0034389220873702E+01 
    1.1149935680202166E+01 
    1.5872917237059101E+01 
    9.4885874604360207E+00 
    1.6376838380486998E+01 
    1.1474321878860147E+01 
    1.1080953715267984E+01 
    1.6049348618071321E+01 
    1.1632642962631673E+01 
    1.6935262753235779E+01 
    1.3919818336421267E+01 
    1.4987388900625307E+01 
    1.6899548157633859E+01 
    8.8467180663362761E+00 
    1.1848974700476051E+01 
    1.6042000493762348E+01 
    3.5775536884846812E+00 
    1.1657417576627568E+01 
    1.6863761428358384E+01 
    1.1108723745074785E+01 
    1.2689562580429628E+01 
    7.7976399306791917E+00 
    1.5742972077409917E+01 
    1.9110719347242100E+01 
    1.4432601778242486E+01 
    1.1108979220666392E+01 
    1.0062425591510625E+01 
    1.2321908088471284E+01 
    1.1491174362275533E+01 
    8.0426762656898756E+00 
    1.6892452258729776E+01 
    1.6093635927935331E+01 
    1.5748465558795289E+01 
    1.2164438028536354E+01 
    1.0240142753064848E+01 
    1.1329182367641632E+01 
    1.6555491006035858E+01 
    1.0486294546644832E+01 
    1.1568188233598304E+01 
    1.0653361259536821E+01 
    1.3372651863838577E+01 
    1.9098862711317931E+01 
    1.5739775790053065E+01 
    1.0238539974334644E+01 
    1.6273504888764784E+01 
    1.6159594483877523E+01 
    1.6248580735587890E+01 
    1.7329606201524495E+01 
    1.7891370686168244E+01 
    1.6384768602554434E+01 
    1.1594297270934128E+01 
    1.2471123440207938E+01 
    1.6211113151236116E+01 
    1.6685124146217849E+01 
    8.3975945276999440E+00 
    1.5770141407133540E+01 
    1.6516031480112012E+01 
    8.1651639019261069E+00 
    1.7248471707711854E+01 
    1.7221344371194089E+01 
    1.5462902253174612E+01 
    1.1924494381961695E+01 
    3.1731745487255139E+00 
    1.6862195938446501E+01 
    1.1766545579555993E+01 
    1.6998957151393888E+01 
    1.1039240687275754E+01 
    1.6677571755752243E+01 
    1.1444425675179992E+00 
    1.4987115263248773E+01 
    1.1073784642724723E+01 
    1.0193518038198423E+01 
    9.9574370161633361E+00 
    1.1443008198275745E+01 
    1.2620030307250454E+01 
    1.2027477824886473E+01 
    8.3577410519088939E+00 
    1.6673418788171990E+01 
    1.6068643337260006E+01 
    1.3493169268889590E+01 
    1.1818201469627168E+01 
    1.8130254992503541E+00 
    9.2348764078423038E+00 
    6.5216193476722006E+00 
    1.6874381717049435E+01 
    1.2796546085672425E+01 
    1.6121169186190969E+01 
    1.6142944173514945E+01 
    1.0565207627318129E+01 
    1.3340554597005372E+01 
    1.5743264583447532E+01 
    1.7208601880134864E+01 
    7.8021891775470120E+00 
    1.4247646307162382E+01 
    1.1976363835543991E+01 
    6.9366790877497584E+00 
    1.0559424869152005E+01 
    1.3929697634049381E+01 
    1.6100023383980481E+01 
    1.1494366409844563E+01 
    1.6223682427869363E+01 
    1.5960806235755420E+01 
    1.5903906226272891E+01 
    1.1333475185374466E+01 
    1.0092784734228157E+01 
    1.5756850024632907E+01 
    1.0258452442185904E+01 
    1.1576584864710934E+01 
    1.0080222912181545E+01 
    1.1529953036570404E+01 
    1.6153243453392466E+01 
    7.2848499112672060E+00 
    1.0467453599074760E+01 
    1.6788325842539479E+01 
    1.1342744460134039E+01 
    1.2691541440491386E+01 
    7.4714502147284385E+00 
    1.0318349852636368E+01 
    1.5936582553305238E+01 
    1.6285314315936333E+01 
    6.1287740979145058E+00 
    1.1353627217624418E+01 
    1.0134502702900708E+01 
    1.7651754086821413E+01 
    1.7081048733398383E+01 
    1.7920021738023998E+01 
    1.1373610456385098E+01 
    1.6122910219377840E+01 
    1.5693018866107812E+01 
    1.1236353231470833E+01 
    1.5749051368013026E+01 
    1.1819893803817038E+01 
    7.0127700204111925E+00 
    1.1700514729095477E+01 
    1.6771204497271249E+01 
    1.5745696503625160E+01 
    7.9311860096922517E+00 
    1.5777671299156392E+01 
    1.2644621784346890E+01 
    1.1637400739969273E+01 
    1.1182556301996661E+01 
    1.5602390614154801E+01 
    1.2158504484254690E+01 
    1.5762647901195733E+01 
    1.1343691693588877E+01 
    7.2395083595562451E+00 
    1.1654904924391495E+01 
    9.9614365893497396E+00 
    1.4453473024887550E+01 
    1.6989157415108512E+01 
    1.5754373098429866E+01 
    1.6856496965635142E+01 
    1.1285964032081552E+01 
    7.7099586038573733E+00 
    7.8117687652624674E+00 
    1.1824344190761549E+01 
    1.1549659556683595E+01 
    1.7685064909461601E+00 
    1.5203935552171487E+01 
    1.7377354601927774E+01 
    1.1054187465572324E+01 
    7.3282489684436847E+00 
    1.3241042208958701E+01 
    1.5775975367513855E+01 
    8.5714192073183728E+00 
    5.8825906712298393E+00 
    1.1532263775928477E+01 
    1.5855007061408932E+01 
    1.6571727913424031E+01 
    1.6443269523552825E+01 
    1.6289418147042788E+01 
    8.4549596235851876E+00 
    1.1631424471147069E+01 
    1.5233801491734217E+01 
    9.0970884292158196E+00 
    1.6089989185548152E+01 
    1.3578269017972518E+01 
    7.9137954828334163E+00 
    1.5881648695260459E+01 
    1.6884449290601754E+01 
    1.5883885366705364E+01 
    8.2714573315702964E+00 
    1.1598625559153648E+01 
    9.0482176098750315E+00 
    1.0963165717010767E+01 
    1.5766816603834370E+01 
    1.5754025569744426E+01 
    8.3169727175493300E+00 
    1.6727348455250816E+01 
    1.2162904302746435E+01 
    1.5785342398207909E+01 
    1.6702808742168830E+01 
    1.5773667937973208E+01 
    1.4674345981464857E+01 
    1.7709893637522626E+01 
    1.1004768302583733E+01 
    1.6823416278756671E+01 
    1.5814989791663113E+01 
    1.6901247962383110E+01 
    1.6722099059787183E+01 
    1.1106481521070130E+01 
    1.1442037210819640E+01 
    1.1045091438059659E+01 
    1.4102007735421536E+01 
    4.8059078470740459E+00 
    1.1759926564123543E+01 
    1.7838637137977095E+01 
    1.1821704559126061E+01 
    1.2026278373442771E+01 
    1.6872128418959580E+01 
    1.7119919010726910E+01 
    1.0920178807398219E+01 
    1.5782476918173211E+01 
    1.5749593688058383E+01 
    1.2012547472661204E+01 
    1.6675208254864852E+01 
    8.3110854794672111E+00 
    5.3617840113678810E+00 
    1.2322569611997336E+01 
    1.1835299326141209E+01 
    1.5755364801388154E+01 
    7.8066145747289299E+00 
    1.6362472729948404E+01 
    5.4734605164813512E+00 
    1.1770787005989638E+01 
    1.1130396990358562E+01 
    1.1575781647627565E+01 
    1.9148281339865211E+01 
    4.6725499715458865E+00 
    1.1675287617172625E+01 
    1.3860260031502136E+01 
    1.1182546736304348E+01 
    9.2096276617285540E+00 
    1.6489913686975644E+01 
    1.8718240372005802E+01 
    1.6641494284135366E+01 
    1.1613871302805611E+01 
    6.9036817703268545E+00 
    1.8561009929316100E+01 
    1.6057083879774208E+01 
    8.7423077735701202E+00 
    1.1256411299094829E+01 
    1.7310416091929174E+01 
    3.9629057530969427E+00 
    1.1891475918668855E+01 
    1.6629409563282476E+01 
    1.1590539973954357E+01 
    1.0128009482134367E+01 
    1.1716033637389105E+01 
    1.5346478085355365E+01 
    1.1572705942194050E+01 
    6.1592246102322026E+00 
    1.1353775955890029E+00 
    8.7027437798860205E+00 
    1.7542331637116359E+01 
    1.1043909883467707E+01 
    1.2988118315840145E+01 
    1.2473086971552567E+01 
    1.4218058382564127E+01 
    1.1604078026429610E+01 
    1.5955406777039661E+01 
    1.9162388771435118E+01 
    1.3810613776762168E+01 
    1.6793368228767065E+01 
    6.5597845247347752E-01 
    1.5756230748391804E+01 
    6.7883480011152573E+00 
    1.8010409081294824E+01 
    1.1689246321532433E+01 
    1.0321123743041646E+01 
    9.2166693532767017E+00 
    6.4527470102200439E+00 
    1.2932480292489673E+01 
    9.2049435695112720E+00 
    1.4341623706429937E+01 
    2.6938827733588644E+00 
    1.2684613851063792E+01 
    1.5681098626272178E+01 
    7.0948984208188062E+00 
    1.6237822993433319E+01 
    1.7813471042797591E+01 
    1.6086200432648830E+01 
    1.1550824363381082E+01 
    1.1569969660384928E+01 
    1.1681793387141617E+01 
    6.9875150782205910E+00 
    1.0764494404463132E+01 
    1.0604532325620484E+01 
    1.1670546716796796E+01 
    1.0975624662807849E+01 
    8.4428571362448912E-01 
    7.7331131896746603E+00 
    1.1369493808415063E+01 
    1.1644804430769559E+01 
    1.4717888900734398E+01 
    2.5924457083928196E+00 
    1.1968340119462800E+01 
    1.1842246966704225E+01 
    4.4893225961894530E+00 
    1.5942679607239354E+01 
    1.0266954111420457E+01 
    1.1701991320334654E+01 
    1.6056331574305204E+01 
    6.4873979710005809E+00 
    1.6059358987855951E+01 
    1.0393184076001786E+01 
    1.1756291324498354E+00 
    1.1106337390150365E+01 
    1.6742340024024468E+01 
    1.5755860458347474E+01 
    1.5775602719535636E+01 
    1.2034235952569501E+01 
    1.1773873916007922E+01 
    1.0253855000630752E+01 
    8.3796119817391936E+00 
    1.6184727772431550E+01 
    1.1251368109585396E+01 
    8.1559104565810436E+00 
    1.5770902195308533E+01 
    1.6503070157038518E+01 
    1.1847686794536726E+01 
    1.1390688307918026E+01 
    1.9042171164112876E+01 
    1.2013578063451476E+01 
    1.6197657098394512E+01 
    9.7905848786353022E+00 
    1.9190300656045725E+01 
    7.7651726479303864E+00 
    1.0655992309305098E+01 
    8.6798500890089336E+00 
    1.2267978163643786E+01 
    9.8863376999121009E+00 
    1.9173984227236446E+01 
    1.2066404356831297E+01 
    1.5301523964012228E+01 
    7.9852000132694867E+00 
    1.1598829757348163E+01 
    1.6018235552634842E+01 
    9.9381990936933331E+00 
    8.7547768181998933E+00 
    1.2934941831979184E+01 
    1.6286559142586434E+01 
    8.5312057034027582E+00 
    1.1152316435635887E+01 
    1.1425901741600802E+01 
    1.5729821110577799E+01 
    1.1206866318902753E+01 
    1.6246550790461445E+01 
    1.6932210826496895E+01 
    1.0283050497989167E+01 
    1.0099504129732479E+01 
    9.2296422508529261E+00 
    1.5882646042214661E+01 
    1.1876491327780705E+01 
    1.8754935422608149E+01 
    1.4725234380947825E+01 
    1.5973370676112935E+01 
    1.8432733594278876E+01 
    1.7815744576031186E+01 
    1.1645301154943924E+01 
    1.1655006026768778E+01 
    1.5485152729232370E+01 
    1.5797620613553702E+01 
    1.6390280776473830E+01 
    1.6081426085560732E+01 
    1.9064815207245719E+01 
    1.2013051977267697E+01 
    1.0388990014189215E+01 
    1.2017239217844221E+01 
    1.6839120271372106E+01 
    1.1739424346243089E+01 
    6.9740144167021105E+00 
    1.1534302005521665E+01 
    1.7285243771710075E+01 
    1.1880843429490804E+01 
    1.0395785829647624E+01 
    1.1367181464066647E+01 
    1.7396725831909063E+01 
    1.5796641157364647E+01 
    9.9511613211097085E+00 
    1.7540824735332080E+01 
    1.1673392925593321E+01 
    1.6362292661888908E+01 
    1.7410915105865797E+01 
    1.2273774318281514E+01 
    6.4949778980246551E+00 
    1.2738781889163690E+01 
    6.7120022822285090E+00 
    1.1788691238477952E+01 
    1.1594806096034963E+01 
    1.3408374906281033E+01 
    7.0973930237292295E+00 
    1.4268828754413665E+01 
    1.1611407911394048E+01 
    1.6069649371966822E+01 
    1.2392565392754483E+01 
    9.7918680289827957E+00 
    1.1230197570901302E+01 
    1.2192204246694903E+01 
    1.2127294244273672E+01 
    1.6996321162734088E+01 
    9.9754961699525850E+00 
    9.8163349004048737E+00 
    7.4616876901145641E+00 
    1.6410642639403459E+01 
    1.1275687916863136E+01 
    1.5569410375341063E+01 
    1.1563800986879993E+01 
    8.1295739350841725E+00 
    1.5832015317641069E+01 
    1.1540486967007913E+01 
    8.8042367930442964E+00 
    9.2840132457976239E+00 
    9.5885275852066538E+00 
    1.6105494396646559E+01 
    1.1672582401366704E+01 
    1.6805926786009433E+01 
    1.1501113328048669E+01 
    1.1440824593136142E+01 
    1.1069373468572335E+01 
    1.5924364125169397E+01 
    1.1356274777975207E+01 
    9.6354232182591755E+00 
    1.7802175265897379E+01 
    1.6016449063708034E+01 
    8.1288636974187511E+00 
    3.2813569418088271E+00 
    1.1661848220433939E+01 
    1.0913201507330934E+01 
    1.0094904843161389E+01 
    1.0866041707104733E+01 
    1.5979262966130735E+01 
    1.1362616689865051E+01 
    1.0431290501761799E+01 
    1.5821695248862127E+01 
    8.0549147216586245E+00 
    1.5446475133478021E+01 
    1.0535684153480419E+01 
    9.6260734580844538E+00 
    1.0180822610443599E+01 
    1.6456759454702585E+01 
    1.1578384106082723E+01 
    1.1586643082861913E+01 
    7.1791365819592201E+00 
    7.7300341687168137E+00 
    1.4491986409323646E+01 
    1.1596377404546180E+01 
    1.1702665265063914E+01 
    1.7525664942298409E+01 
    9.8096845427088546E+00 
    1.1608491474933205E+01 
    8.3252150822647444E+00 
    8.5814618735255195E+00 
    1.5910781327043438E+01 
    1.1233988459480283E+01 
    8.4817025994554349E+00 
    1.2168039178889295E+01 
    1.1497105701725379E+01 
    1.5917475976975178E+01 
    1.7621710189298337E+01 
    1.2453574397570768E+00 
    1.1666840047921029E+01 
    1.1833872235123062E+01 
    1.5992044457660244E+01 
    1.1177791935488548E+01 
    1.1551423000440364E+01 
    1.7066163850336018E+01 
    1.0217071873558897E+01 
    8.5529396693256601E+00 
    1.3845128785295600E+01 
    1.5770906507615283E+01 
    1.6900762048738358E+01 
    1.7175601286004170E+01 
    1.1506161412033979E+01 
    1.1658162242259499E+01 
    1.2937994767941730E+01 
    7.7487946280381630E+00 
    1.5912360039021308E+01 
    9.1847931649938825E+00 
    8.0451115412721812E+00 
    1.4391659480463870E+01 
    1.3588730635639809E+01 
    7.9016710286613181E+00 
    1.5810129197929079E+01 
    1.6885303342401517E+01 
    1.2030413487889438E+01 
    1.7727241603427061E+01 
    1.5846665421128591E+01 
    1.1240325332645384E+01 
    1.6604450239062125E+01 
    8.5690495661263313E+00 
    1.5791463658799939E+01 
    1.1665756930287335E+01 
    1.1626663093026815E+01 
    1.7703420753555260E+01 
    1.1315489652823691E+01 
    1.4150106233441917E+01 
    1.0159251211269410E+01 
    1.7010445350967210E+01 
    1.5689412021267234E+01 
    1.0562889236560201E+01 
    1.5743259269222376E+01 
    1.0565149139521420E+01 
    1.1559034980429443E+01 
    1.6841430328809821E+01 
    1.6084603175856522E+01 
    1.6888776509883996E+01 
    1.5996433996579242E+01 
    1.0776739159662533E+01 
    1.0991905375331989E+01 
    1.6896045973780556E+01 
    1.1120353707800527E+01 
    1.5601259003323399E+01 
    1.1298718914996492E+01 
    4.8551567266471123E+00 
    8.1145391647693543E+00 
    7.5369050624035223E+00 
    1.6845155056343248E+01 
    1.7628793544816094E+01 
    1.5763536643941279E+01 
    1.3255254322492760E+01 
    1.6085487940245297E+01 
    1.5818984077209359E+01 
    1.6461904430802548E+01 
    6.9466994031625839E+00 
    4.5168254037574576E+00 
    1.3015092599749110E+01 
    1.1334581379910500E+01 
    1.5982418064607886E+01 
    1.5979982137299780E+01 
    1.1856937246400912E+01 
    1.6020474881770753E+01 
    1.1652368534014606E+01 
    1.1563283817575616E+01 
    6.2777323742762423E+00 
    4.4973527530489088E+00 
    1.7390720747415831E+01 
    9.0963733728405405E+00 
    1.0485694114123209E+01 
    1.1750584922731418E+01 
    1.9044226560164880E+01 
    1.1843623331992262E+01 
    1.1961246117285896E+01 
    5.1411215337426937E+00 
    1.1844014855966433E+01 
    1.1858534045280527E+01 
    1.6283735730050587E+01 
    1.0185026594303165E+01 
    1.1112619600173179E+01 
    1.7569701545283266E+01 
    1.1675293854997163E+01 
    1.5781192894304935E+01 
    1.6030722787608934E+01 
    1.4127956963115730E+01 
    9.8900616814921882E+00 
    1.5996835093587533E+01 
    1.1469442973958325E+01 
    1.5958739956426214E+01 
    1.5715179548928708E+01 
    1.6866077000478636E+01 
    1.5991869499026667E+01 
    1.5004488029536283E+01 
    1.1663798478548905E+01 
    7.8288260796644229E+00 
    1.8917260407155293E+01 
    9.3642974068871130E+00 
    1.6774684007984742E+01 
    1.1661180872678912E+01 
    9.8603356818908470E+00 
    5.9909806533758134E+00 
    1.1896474992885034E+01 
    1.5980677446184597E+01 
    1.5977908166190741E+01 
    1.1539436097990054E+01 
    1.1655298511891093E+01 
    1.7785686326425616E+01 
    1.7115160759781386E+01 
    1.1863526729361487E+01 
    4.2010711912076850E+00 
    1.4835957098908183E+01 
    1.9171366122206624E+01 
    1.1667147065944368E+01 
    1.3675830560749606E+01 
    1.1176385735752358E+01 
    1.8773227591341527E+01 
    1.7203213901167896E+01 
    1.6949582600343685E+01 
    1.1886202464464247E+01 
    5.5104669774425616E+00 
    1.1135026128678321E+01 
    1.1200163697151970E+01 
    1.1241587320971888E+01 
    4.5853203986586220E+00 