# vtk DataFile Version 2.0
Pressure Field Data 
ASCII 
DATASET UNSTRUCTURED_GRID 

POINTS 2860 double 

    0.0000000000000000E+00     0.0000000000000000E+00     0.0000000000000000E+00 
    1.0000000000000000E+00     0.0000000000000000E+00     0.0000000000000000E+00 
    1.0000000000000000E+00     1.0000000000000000E+00     0.0000000000000000E+00 
    0.0000000000000000E+00     1.0000000000000000E+00     0.0000000000000000E+00 
    2.5000000000000000E-01     2.5000000000000000E-01     0.0000000000000000E+00 
    7.5000000000000000E-01     2.5000000000000000E-01     0.0000000000000000E+00 
    7.5000000000000000E-01     7.5000000000000000E-01     0.0000000000000000E+00 
    2.5000000000000000E-01     7.5000000000000000E-01     0.0000000000000000E+00 
    3.1249999999942091E-02     0.0000000000000000E+00     0.0000000000000000E+00 
    6.2499999999873469E-02     0.0000000000000000E+00     0.0000000000000000E+00 
    9.3749999999826514E-02     0.0000000000000000E+00     0.0000000000000000E+00 
    1.2499999999977961E-01     0.0000000000000000E+00     0.0000000000000000E+00 
    1.5624999999968961E-01     0.0000000000000000E+00     0.0000000000000000E+00 
    1.8749999999959971E-01     0.0000000000000000E+00     0.0000000000000000E+00 
    2.1874999999950970E-01     0.0000000000000000E+00     0.0000000000000000E+00 
    2.4999999999941969E-01     0.0000000000000000E+00     0.0000000000000000E+00 
    2.8124999999932920E-01     0.0000000000000000E+00     0.0000000000000000E+00 
    3.1249999999923850E-01     0.0000000000000000E+00     0.0000000000000000E+00 
    3.4374999999914790E-01     0.0000000000000000E+00     0.0000000000000000E+00 
    3.7499999999905720E-01     0.0000000000000000E+00     0.0000000000000000E+00 
    4.0624999999896660E-01     0.0000000000000000E+00     0.0000000000000000E+00 
    4.3749999999887590E-01     0.0000000000000000E+00     0.0000000000000000E+00 
    4.6874999999878530E-01     0.0000000000000000E+00     0.0000000000000000E+00 
    4.9999999999869471E-01     0.0000000000000000E+00     0.0000000000000000E+00 
    5.3124999999877620E-01     0.0000000000000000E+00     0.0000000000000000E+00 
    5.6249999999885780E-01     0.0000000000000000E+00     0.0000000000000000E+00 
    5.9374999999893940E-01     0.0000000000000000E+00     0.0000000000000000E+00 
    6.2499999999902101E-01     0.0000000000000000E+00     0.0000000000000000E+00 
    6.5624999999910261E-01     0.0000000000000000E+00     0.0000000000000000E+00 
    6.8749999999918421E-01     0.0000000000000000E+00     0.0000000000000000E+00 
    7.1874999999926570E-01     0.0000000000000000E+00     0.0000000000000000E+00 
    7.4999999999934730E-01     0.0000000000000000E+00     0.0000000000000000E+00 
    7.8124999999942890E-01     0.0000000000000000E+00     0.0000000000000000E+00 
    8.1249999999951039E-01     0.0000000000000000E+00     0.0000000000000000E+00 
    8.4374999999959199E-01     0.0000000000000000E+00     0.0000000000000000E+00 
    8.7499999999967359E-01     0.0000000000000000E+00     0.0000000000000000E+00 
    9.0624999999975520E-01     0.0000000000000000E+00     0.0000000000000000E+00 
    9.3749999999983680E-01     0.0000000000000000E+00     0.0000000000000000E+00 
    9.6874999999991840E-01     0.0000000000000000E+00     0.0000000000000000E+00 
    1.0000000000000000E+00     3.1249999999942091E-02     0.0000000000000000E+00 
    1.0000000000000000E+00     6.2499999999873469E-02     0.0000000000000000E+00 
    1.0000000000000000E+00     9.3749999999826514E-02     0.0000000000000000E+00 
    1.0000000000000000E+00     1.2499999999977961E-01     0.0000000000000000E+00 
    1.0000000000000000E+00     1.5624999999968961E-01     0.0000000000000000E+00 
    1.0000000000000000E+00     1.8749999999959971E-01     0.0000000000000000E+00 
    1.0000000000000000E+00     2.1874999999950970E-01     0.0000000000000000E+00 
    1.0000000000000000E+00     2.4999999999941969E-01     0.0000000000000000E+00 
    1.0000000000000000E+00     2.8124999999932920E-01     0.0000000000000000E+00 
    1.0000000000000000E+00     3.1249999999923850E-01     0.0000000000000000E+00 
    1.0000000000000000E+00     3.4374999999914790E-01     0.0000000000000000E+00 
    1.0000000000000000E+00     3.7499999999905720E-01     0.0000000000000000E+00 
    1.0000000000000000E+00     4.0624999999896660E-01     0.0000000000000000E+00 
    1.0000000000000000E+00     4.3749999999887590E-01     0.0000000000000000E+00 
    1.0000000000000000E+00     4.6874999999878530E-01     0.0000000000000000E+00 
    1.0000000000000000E+00     4.9999999999869471E-01     0.0000000000000000E+00 
    1.0000000000000000E+00     5.3124999999877620E-01     0.0000000000000000E+00 
    1.0000000000000000E+00     5.6249999999885780E-01     0.0000000000000000E+00 
    1.0000000000000000E+00     5.9374999999893940E-01     0.0000000000000000E+00 
    1.0000000000000000E+00     6.2499999999902101E-01     0.0000000000000000E+00 
    1.0000000000000000E+00     6.5624999999910261E-01     0.0000000000000000E+00 
    1.0000000000000000E+00     6.8749999999918421E-01     0.0000000000000000E+00 
    1.0000000000000000E+00     7.1874999999926570E-01     0.0000000000000000E+00 
    1.0000000000000000E+00     7.4999999999934730E-01     0.0000000000000000E+00 
    1.0000000000000000E+00     7.8124999999942890E-01     0.0000000000000000E+00 
    1.0000000000000000E+00     8.1249999999951039E-01     0.0000000000000000E+00 
    1.0000000000000000E+00     8.4374999999959199E-01     0.0000000000000000E+00 
    1.0000000000000000E+00     8.7499999999967359E-01     0.0000000000000000E+00 
    1.0000000000000000E+00     9.0624999999975520E-01     0.0000000000000000E+00 
    1.0000000000000000E+00     9.3749999999983680E-01     0.0000000000000000E+00 
    1.0000000000000000E+00     9.6874999999991840E-01     0.0000000000000000E+00 
    9.6875000000003686E-01     1.0000000000000000E+00     0.0000000000000000E+00 
    9.3750000000011691E-01     1.0000000000000000E+00     0.0000000000000000E+00 
    9.0625000000015765E-01     1.0000000000000000E+00     0.0000000000000000E+00 
    8.7500000000017863E-01     1.0000000000000000E+00     0.0000000000000000E+00 
    8.4375000000028044E-01     1.0000000000000000E+00     0.0000000000000000E+00 
    8.1250000000040856E-01     1.0000000000000000E+00     0.0000000000000000E+00 
    7.8125000000054956E-01     1.0000000000000000E+00     0.0000000000000000E+00 
    7.5000000000066480E-01     1.0000000000000000E+00     0.0000000000000000E+00 
    7.1875000000086831E-01     1.0000000000000000E+00     0.0000000000000000E+00 
    6.8750000000102829E-01     1.0000000000000000E+00     0.0000000000000000E+00 
    6.5625000000114431E-01     1.0000000000000000E+00     0.0000000000000000E+00 
    6.2500000000129829E-01     1.0000000000000000E+00     0.0000000000000000E+00 
    5.9375000000147926E-01     1.0000000000000000E+00     0.0000000000000000E+00 
    5.6250000000168354E-01     1.0000000000000000E+00     0.0000000000000000E+00 
    5.3125000000188671E-01     1.0000000000000000E+00     0.0000000000000000E+00 
    5.0000000000205835E-01     1.0000000000000000E+00     0.0000000000000000E+00 
    4.6875000000192979E-01     1.0000000000000000E+00     0.0000000000000000E+00 
    4.3750000000180111E-01     1.0000000000000000E+00     0.0000000000000000E+00 
    4.0625000000167238E-01     1.0000000000000000E+00     0.0000000000000000E+00 
    3.7500000000154382E-01     1.0000000000000000E+00     0.0000000000000000E+00 
    3.4375000000141509E-01     1.0000000000000000E+00     0.0000000000000000E+00 
    3.1250000000128642E-01     1.0000000000000000E+00     0.0000000000000000E+00 
    2.8125000000115769E-01     1.0000000000000000E+00     0.0000000000000000E+00 
    2.5000000000102918E-01     1.0000000000000000E+00     0.0000000000000000E+00 
    2.1875000000090050E-01     1.0000000000000000E+00     0.0000000000000000E+00 
    1.8750000000077180E-01     1.0000000000000000E+00     0.0000000000000000E+00 
    1.5625000000064329E-01     1.0000000000000000E+00     0.0000000000000000E+00 
    1.2500000000051459E-01     1.0000000000000000E+00     0.0000000000000000E+00 
    9.3750000000385914E-02     1.0000000000000000E+00     0.0000000000000000E+00 
    6.2500000000257239E-02     1.0000000000000000E+00     0.0000000000000000E+00 
    3.1250000000128557E-02     1.0000000000000000E+00     0.0000000000000000E+00 
    0.0000000000000000E+00     9.6875000000003686E-01     0.0000000000000000E+00 
    0.0000000000000000E+00     9.3750000000011691E-01     0.0000000000000000E+00 
    0.0000000000000000E+00     9.0625000000015765E-01     0.0000000000000000E+00 
    0.0000000000000000E+00     8.7500000000017863E-01     0.0000000000000000E+00 
    0.0000000000000000E+00     8.4375000000028044E-01     0.0000000000000000E+00 
    0.0000000000000000E+00     8.1250000000040856E-01     0.0000000000000000E+00 
    0.0000000000000000E+00     7.8125000000054956E-01     0.0000000000000000E+00 
    0.0000000000000000E+00     7.5000000000066480E-01     0.0000000000000000E+00 
    0.0000000000000000E+00     7.1875000000086831E-01     0.0000000000000000E+00 
    0.0000000000000000E+00     6.8750000000102829E-01     0.0000000000000000E+00 
    0.0000000000000000E+00     6.5625000000114431E-01     0.0000000000000000E+00 
    0.0000000000000000E+00     6.2500000000129829E-01     0.0000000000000000E+00 
    0.0000000000000000E+00     5.9375000000147926E-01     0.0000000000000000E+00 
    0.0000000000000000E+00     5.6250000000168354E-01     0.0000000000000000E+00 
    0.0000000000000000E+00     5.3125000000188671E-01     0.0000000000000000E+00 
    0.0000000000000000E+00     5.0000000000205835E-01     0.0000000000000000E+00 
    0.0000000000000000E+00     4.6875000000192979E-01     0.0000000000000000E+00 
    0.0000000000000000E+00     4.3750000000180111E-01     0.0000000000000000E+00 
    0.0000000000000000E+00     4.0625000000167238E-01     0.0000000000000000E+00 
[...]
CELL_DATA 2795 
SCALARS Pressure double 1 
LOOKUP_TABLE default 

    7.4046888170238496E+00 
    1.5988975877969684E+01 
    1.1332254704884075E+01 
    1.1045249768305968E+01 
    8.9852162226027943E+00 
    1.5854159736849173E+01 
    1.6628904487084132E+01 
    6.6567852185177436E+00 
    1.1889934954386970E+01 
    9.1601426944665789E+00 
    7.8487559083267024E+00 
    1.5579477468271419E+01 
    1.5901466965096949E+01 
    1.5822514026012213E+01 
    1.0446297667648832E+01 
    6.5469544038801413E+00 
    1.0272006830580294E+01 
    8.3388003511925817E+00 
    1.5192916814777320E+01 
    1.1314831006285063E+01 
    1.1211431241634873E+01 
    1.5750071360132083E+01 
    1.0777895936245072E+01 
    4.3366273743624878E-01 
    1.5535945081775010E+01 
    1.5855202550020305E+01 
    1.6662329954000466E+01 
    7.6120778026035776E+00 
    1.5495350530758305E+01 
    1.6643730627192795E+01 
    1.1481038055898251E+01 
    1.1521300754986374E+01 
    8.3035680190693260E+00 
    1.1295032220044614E+01 
    3.7941603039394276E+00 
    1.0272045167111900E+01 
    1.1281249395071443E+01 
    1.6684702350671877E+01 
    1.6604900150656896E+01 
    1.5593273276747311E+01 
    8.9454275843925188E+00 
    1.5537647536430949E+01 
    9.0858783429914425E-01 
    1.1280191188559174E+01 
    1.6439496030320452E+01 
    1.6186782358079860E+01 
    1.5568052016694885E+01 
    1.2302245084925730E+01 
    1.5633340489504739E+01 
    1.0491457441546293E+01 
    1.0038560626880809E+01 
    1.1485508376534577E+01 
    1.1184735353060265E+01 
    1.0334951099719614E+01 
    1.1550460696167566E+01 
    1.4968941695966500E+01 
    1.3269165879601431E+01 
    9.0304694270644372E+00 
    1.5756458089838992E+01 
    1.5673093341288665E+01 
    1.1028726580225872E+01 
    1.0909210741649774E+01 
    1.0949526126357151E+01 
    1.6541460032738719E+01 
    1.6849907309812433E+01 
    1.0289462309991723E+01 
    1.1484090164539802E+01 
    1.5394845522945429E+01 
    1.3266718208250586E+01 
    1.0955372770679798E+01 
    1.6827696048386770E+01 
    1.5686445044737320E+01 
    1.0153894449852746E+01 
    1.6307167186627336E+01 
    1.1782878137154068E+01 
    1.5383149787866763E+01 
    1.6707035056094021E+01 
    1.1829119459486584E+01 
    7.5486749401582740E+00 
    1.1502135498494194E+01 
    1.6613963865841644E+01 
    1.6847727317231222E+01 
    1.0289502486265837E+01 
    1.1427105974485791E+01 
    1.6900292730346660E+01 
    1.1280756179417414E+01 
    1.0865206529716733E+01 
    1.3721883794339368E+01 
    7.2355653195224985E+00 
    1.0068066342599467E+01 
    1.1424630369165360E+01 
    1.2049254152380666E+01 
    1.8388226591608227E+01 
    8.7456964084853954E+00 
    1.1491898606714116E+01 
    1.5544641389746408E+01 
    1.5843411009080597E+01 
    7.7632742587076260E+00 
    1.1145193719092584E+01 
    1.1458143925267619E+01 
    1.5868133619208544E+01 
    1.1450372892055693E+01 
    1.5787638152661149E+01 
    4.7569406613162410E+00 
    7.6292054664642963E+00 
    1.1707762268197039E+01 
    1.5998043525413323E+01 
    1.0237665478538187E+01 
    1.0803809061995960E+01 
    1.1430457274573257E+01 
    1.0834402505012326E+01 
    1.2882310511709520E+01 
    1.0540759443289417E+01 
    1.0161286059763119E+01 
    8.2359339903903290E+00 
    1.3468593946486276E+01 
    1.1526518118710054E+01 
    1.6451287528138728E+01 
    9.9274807550147486E+00 
    1.1026950280060110E+01 
    1.5672835511488655E+01 
    9.3904002020690651E+00 
    1.6168288696510469E+01 
    1.1354421780410179E+01 
    1.0958878609328062E+01 
    1.5846432877687292E+01 
    1.1514395310073521E+01 
    1.6715581816724935E+01 
    1.3747353378029599E+01 
    1.4796726355000938E+01 
    1.6679995032737917E+01 
    8.7616407388842603E+00 
    1.1732247603809107E+01 
    1.5838514947039718E+01 
    3.5451391529062830E+00 
    1.1529027700956306E+01 
    1.6644668890043587E+01 
    1.0986384433970281E+01 
    1.2546690777945727E+01 
    7.7570614000638871E+00 
    1.5541540658494149E+01 
    1.8872386848932678E+01 
    1.4254020279990055E+01 
    1.0986472105994061E+01 
    9.9568580218354583E+00 
    1.2185835838348149E+01 
    1.1371414765967815E+01 
    7.9492781135506680E+00 
    1.6673158805571539E+01 
    1.5890372270793250E+01 
    1.5546368599837232E+01 
    1.2051066439234495E+01 
    1.0131185020806774E+01 
    1.1207648945980017E+01 
    1.6347071493746164E+01 
    1.0373749563307362E+01 
    1.1440879266275752E+01 
    1.0538327175367655E+01 
    1.3212146990733219E+01 
    1.8860594293507017E+01 
    1.5537678228664930E+01 
    1.0127730986832638E+01 
    1.6064780691099990E+01 
    1.5953379980682618E+01 
    1.6040702319599120E+01 
    1.7105270439413236E+01 
    1.7661186639423338E+01 
    1.6179574664292588E+01 
    1.1475891721926276E+01 
    1.2335808381805965E+01 
    1.6011117964886274E+01 
    1.6469968667606626E+01 
    8.2975894825021612E+00 
    1.5567660818296330E+01 
    1.6308529639750866E+01 
    8.0693470578765751E+00 
    1.7022926627876306E+01 
    1.6998506711761959E+01 
    1.5265079797482834E+01 
    1.1809098756820665E+01 
    3.1353776887708920E+00 
    1.6643280690577136E+01 
    1.1649035136045631E+01 
    1.6778665977116695E+01 
    1.0918045947764647E+01 
    1.6464969741962374E+01 
    1.1324542490038647E+00 
    1.4799847430854587E+01 
    1.0954796818282293E+01 
    1.0086088130361730E+01 
    9.8534710409477366E+00 
    1.1322880895128565E+01 
    1.2491539650771564E+01 
    1.1891869095748394E+01 
    8.3106944948885229E+00 
    1.6458135440187469E+01 
    1.5864342810522587E+01 
    1.3361467840297104E+01 
    1.1701025804407511E+01 
    1.7953661580808693E+00 
    9.1427344782191984E+00 
    6.4822451072352392E+00 
    1.6656348136560069E+01 
    1.2654993393701387E+01 
    1.5918721785869584E+01 
    1.5937475199049793E+01 
    1.0452009392805635E+01 
    1.3192729489680582E+01 
    1.5541215462735131E+01 
    1.6985719914841383E+01 
    7.7412055277113838E+00 
    1.4074498102063425E+01 
    1.1844189089276572E+01 
    6.8917512737544415E+00 
    1.0445750917446457E+01 
    1.3774626988960076E+01 
    1.5895224926746229E+01 
    1.1374798422427123E+01 
    1.6016474308047425E+01 
    1.5758820253523457E+01 
    1.5702904523413842E+01 
    1.1212188913514163E+01 
    9.9876674559111827E+00 
    1.5554762234667125E+01 
    1.0149524784170628E+01 
    1.1457834811528770E+01 
    9.9748245183494966E+00 
    1.1406365862531759E+01 
    1.5947748404709984E+01 
    7.2025896996936760E+00 
    1.0355334560914013E+01 
    1.6570974683147497E+01 
    1.1221851012761446E+01 
    1.2550815578615323E+01 
    7.3869413263631429E+00 
    1.0208547438199362E+01 
    1.5735178905973612E+01 
    1.6076981741390107E+01 
    6.0595760311460527E+00 
    1.1232356666569428E+01 
    1.0026563159388827E+01 
    1.7423710357323682E+01 
    1.6860023864043502E+01 
    1.7689363828130812E+01 
    1.1252573857795047E+01 
    1.5917748417902205E+01 
    1.5492315100425508E+01 
    1.1114879129812877E+01 
    1.5546878337332247E+01 
    1.1702799008676791E+01 
    6.9692188712840650E+00 
    1.1571321377239082E+01 
    1.6554499859576953E+01 
    1.5543542585410439E+01 
    7.8395270840259599E+00 
    1.5575098326637372E+01 
    1.2515167402907586E+01 
    1.1509330955754674E+01 
    1.1059430615044363E+01 
    1.5402077589383424E+01 
    1.2024036817276228E+01 
    1.5560416499403496E+01 
    1.1218504428858566E+01 
    7.1916329596158359E+00 
    1.1535918917116375E+01 
    9.8570245144943840E+00 
    1.4271247524660888E+01 
    1.6768606591240797E+01 
    1.5552508337592172E+01 
    1.6637474063458129E+01 
    1.1165098044797283E+01 
    7.6227518702790631E+00 
    7.7231687168556036E+00 
    1.1693951385540498E+01 
    1.1431032392063090E+01 
    1.7496185901710797E+00 
    1.5011142403949925E+01 
    1.7151699559517695E+01 
    1.0932608727951182E+01 
    7.2746244519757219E+00 
    1.3099827947946736E+01 
    1.5573447506203177E+01 
    8.4926211108269776E+00 
    5.8397911800905860E+00 
    1.1413111242083847E+01 
    1.5653042512081230E+01 
    1.6358132278208014E+01 
    1.6236939593341532E+01 
    1.6080693361504064E+01 
    8.3632696034463070E+00 
    1.1503305041045621E+01 
    1.5042529359676760E+01 
    8.9974680096033399E+00 
    1.5886037544585864E+01 
    1.3429301823896642E+01 
    7.8241268096584760E+00 
    1.5680695727440591E+01 
    1.6663654557143790E+01 
    1.5686790963002462E+01 
    8.1965015231997640E+00 
    1.1480241447170890E+01 
    8.9593159038669690E+00 
    1.0849279746812645E+01 
    1.5564389522259095E+01 
    1.5551772432898735E+01 
    8.2414188468574778E+00 
    1.6511679657778505E+01 
    1.2040597363362595E+01 
    1.5583859409042983E+01 
    1.6487761944761324E+01 
    1.5571818674195654E+01 
    1.4504877640818886E+01 
    1.7480874235634989E+01 
    1.0884423405944725E+01 
    1.6604840835309339E+01 
    1.5612890876929960E+01 
    1.6681693346046327E+01 
    1.6505077071573197E+01 
    1.0984511473626949E+01 
    1.1321662699620083E+01 
    1.0923614727434963E+01 
    1.3949868897854241E+01 
    4.7672283854681021E+00 
    1.1630373868434880E+01 
    1.7608538188831140E+01 
    1.1704099972661192E+01 
    1.1905964302886177E+01 
    1.6652945121477362E+01 
    1.6898013326863079E+01 
    1.0802395137231478E+01 
    1.5579810154628316E+01 
    1.5547524774620603E+01 
    1.1892438703093582E+01 
    1.6458093067940332E+01 
    8.2149133399778655E+00 
    5.3004100080975052E+00 
    1.2197951256437362E+01 
    1.1717834614086314E+01 
    1.5553253379121042E+01 
    7.7412619127707769E+00 
    1.6155999848959794E+01 
    5.4122264459344258E+00 
    1.1653106398766868E+01 
    1.1009544340718929E+01 
    1.1457285834052511E+01 
    1.8909954433738207E+01 
    4.6332244044459161E+00 
    1.1546712447569067E+01 
    1.3693912151239426E+01 
    1.1061232772261162E+01 
    9.1168795065466810E+00 
    1.6276007466308673E+01 
    1.8481815754327446E+01 
    1.6429818697684812E+01 
    1.1486133564628620E+01 
    6.8570329857018910E+00 
    1.8325842129524919E+01 
    1.5853373740958920E+01 
    8.6891746478974206E+00 
    1.1132494982292016E+01 
    1.7086397027972275E+01 
    3.9288986068562615E+00 
    1.1773055977853430E+01 
    1.6416593632883178E+01 
    1.1471981133580217E+01 
    1.0020467398675946E+01 
    1.1586978526080502E+01 
    1.5180752511468967E+01 
    1.1453999057627483E+01 
    6.1208962232868060E+00 
    1.1231708057689365E+00 
    8.6052940467861916E+00 
    1.7315139689585031E+01 
    1.0922401475886751E+01 
    1.2844896140479120E+01 
    1.2335454030542687E+01 
    1.4065020253662826E+01 
    1.1485562219927244E+01 
    1.5753841351974376E+01 
    1.8924012790146584E+01 
    1.3636767468214291E+01 
    1.6575198039850271E+01 
    6.4905936137948583E-01 
    1.5553930534370053E+01 
    6.7489499183349455E+00 
    1.7778989337926554E+01 
    1.1560507757293097E+01 
    1.0208691031464214E+01 
    9.1249543563236077E+00 
    6.4070726400924043E+00 
    1.2824656776556186E+01 
    9.1024727612411613E+00 
    1.4159492244911734E+01 
    2.6607626539453189E+00 
    1.2554418714070556E+01 
    1.5480149434518161E+01 
    7.0143196106583998E+00 
    1.6035553444611804E+01 
    1.7584561245730573E+01 
    1.5881962217252523E+01 
    1.1423971696401827E+01 
    1.1451506511031459E+01 
    1.1553139506618111E+01 
    6.9366849560801436E+00 
    1.0647754778173915E+01 
    1.0490205502003393E+01 
    1.1542028818204876E+01 
    1.0855347337918019E+01 
    8.3553564799238678E-01 
    7.6787653346774380E+00 
    1.1244855925177903E+01 
    1.1516635265943183E+01 
    1.4532204770486784E+01 
    2.5691424023602960E+00 
    1.1848852843870718E+01 
    1.1724461763293123E+01 
    4.4516510942171328E+00 
    1.5740308039421553E+01 
    1.0158686707684975E+01 
    1.1584038066134346E+01 
    1.5853151706389284E+01 
    6.4448349175789961E+00 
    1.5856758316074904E+01 
    1.0282155546253421E+01 
    1.1645774735839376E+00 
    1.0983919560086644E+01 
    1.6526144013464620E+01 
    1.5553679557398540E+01 
    1.5573461545900919E+01 
    1.1901549866957454E+01 
    1.1656260876198102E+01 
    1.0145234958443364E+01 
    8.3247435863969681E+00 
    1.5980211185345897E+01 
    1.1127260677793286E+01 
    8.0998479093155851E+00 
    1.5568618109454846E+01 
    1.6292465081845855E+01 
    1.1716946674314121E+01 
    1.1270061585632817E+01 
    1.8804428019187924E+01 
    1.1893446922654856E+01 
    1.5991676097028970E+01 
    9.6886152371109056E+00 
    1.8951928259595398E+01 
    7.6771414367299604E+00 
    1.0542172634739309E+01 
    8.5756816718970850E+00 
    1.2144067263099792E+01 
    9.7745812254458482E+00 
    1.8935654423430339E+01 
    1.1945496915373024E+01 
    1.5136830771971027E+01 
    7.8936460008519642E+00 
    1.1480415488910515E+01 
    1.5815096174310202E+01 
    9.8182510195951913E+00 
    8.6971428299909501E+00 
    1.2774261679146772E+01 
    1.6075382318060832E+01 
    8.4362038091359182E+00 
    1.1031079374928265E+01 
    1.1305366325083698E+01 
    1.5527843857208037E+01 
    1.1086343678596483E+01 
    1.6038562142334520E+01 
    1.6712261803940869E+01 
    1.0173862214818529E+01 
    9.9928264871039616E+00 
    9.1290738066715225E+00 
    1.5678829731191495E+01 
    1.1758012783476806E+01 
    1.8518358271589346E+01 
    1.4561919672101290E+01 
    1.5771387285125746E+01 
    1.8198519497489279E+01 
    1.7586830815152030E+01 
    1.1527056617415351E+01 
    1.1526693813874619E+01 
    1.5288924867202972E+01 
    1.5594708016185441E+01 
    1.6182710580670747E+01 
    1.5877497730141556E+01 
    1.8826680253238397E+01 
    1.1892930148275406E+01 
    1.0278187134210670E+01 
    1.1899609955517899E+01 
    1.6620321242868208E+01 
    1.1621717716270572E+01 
    6.8984895089430420E+00 
    1.1407676326505907E+01 
    1.7061196246407803E+01 
    1.1762605181797118E+01 
    1.0284643399824573E+01 
    1.1245958295647721E+01 
    1.7171444543023490E+01 
    1.5597576063855522E+01 
    9.8446122637698004E+00 
    1.7313961726203033E+01 
    1.1555321661605419E+01 
    1.6152625916372592E+01 
    1.7185499143827670E+01 
    1.2137828451163537E+01 
    6.4536433222358367E+00 
    1.2598392524289803E+01 
    6.6672803348276979E+00 
    1.1671253610370934E+01 
    1.1476094195099869E+01 
    1.3266335971270953E+01 
    7.0485153016812765E+00 
    1.4113769840108493E+01 
    1.1492996952203351E+01 
    1.5865780676916170E+01 
    1.2248255608526208E+01 
    9.6932045970167753E+00 
    1.1108425901913364E+01 
    1.2057479083035856E+01 
    1.2005557815563964E+01 
    1.6776389646778167E+01 
    9.8725022807122560E+00 
    9.7154899143576792E+00 
    7.4038052090290032E+00 
    1.6202257171504684E+01 
    1.1154133308727992E+01 
    1.5374193314662218E+01 
    1.1445051524783768E+01 
    8.0482948710332050E+00 
    1.5632547310707928E+01 
    1.1421519710777847E+01 
    8.7156545938830270E+00 
    9.1906101865472074E+00 
    9.4900671668016710E+00 
    1.5901493389463086E+01 
    1.1544038465497218E+01 
    1.6587514719818994E+01 
    1.1381773710884332E+01 
    1.1321001554535560E+01 
    1.0949221146326115E+01 
    1.5723428056576074E+01 
    1.1236098424038275E+01 
    9.5362454376712655E+00 
    1.7573350085017410E+01 
    1.5813904797004177E+01 
    8.0344392342324493E+00 
    3.2514917015033009E+00 
    1.1533426163515658E+01 
    1.0793794056307757E+01 
    9.9894602243536852E+00 
    1.0748884160900939E+01 
    1.5773267402000389E+01 
    1.1238302314833637E+01 
    1.0320456504765691E+01 
    1.5618467618733602E+01 
    7.9633991138775242E+00 
    1.5249651496867275E+01 
    1.0421974656762950E+01 
    9.5229916571794586E+00 
    1.0073592690813772E+01 
    1.6245388494233879E+01 
    1.1459929611835138E+01 
    1.1468197551653644E+01 
    7.1247589966957188E+00 
    7.6656193327580961E+00 
    1.4329550557429304E+01 
    1.1477968076173621E+01 
    1.1573747494602058E+01 
    1.7298715424011505E+01 
    9.7074172839696615E+00 
    1.1490134567083139E+01 
    8.2307454270507687E+00 
    8.4846626799065525E+00 
    1.5713972809639063E+01 
    1.1114112557772392E+01 
    8.4036150199083774E+00 
    1.2052873334077661E+01 
    1.1377281406495442E+01 
    1.5718766190801748E+01 
    1.7393863766782641E+01 
    1.2333329957347268E+00 
    1.1538354121377333E+01 
    1.1716336748418005E+01 
    1.5789797076461882E+01 
    1.1054415163207542E+01 
    1.1432949483641181E+01 
    1.6845316091418315E+01 
    1.0109078140692134E+01 
    8.4742265254840117E+00 
    1.3697738463407619E+01 
    1.5568529365594141E+01 
    1.6681246901203959E+01 
    1.6953431967671946E+01 
    1.1379754336920639E+01 
    1.1529803013601688E+01 
    1.2817922039411551E+01 
    7.6607785893620868E+00 
    1.5707288699494868E+01 
    9.0935655896938599E+00 
    7.9528872228428993E+00 
    1.4234832012994062E+01 
    1.3461125945745961E+01 
    7.8114470557819828E+00 
    1.5607235984588709E+01 
    1.6665931935494282E+01 
    1.1910037610981245E+01 
    1.7498297523423588E+01 
    1.5643097933566526E+01 
    1.1116857455742760E+01 
    1.6388073272343348E+01 
    8.4736591798650238E+00 
    1.5588662234945405E+01 
    1.1537292372570816E+01 
    1.1498615883067966E+01 
    1.7474492945340426E+01 
    1.1193726827720461E+01 
    1.4012160188432384E+01 
    1.0052036499392900E+01 
    1.6789559497200276E+01 
    1.5488110325108600E+01 
    1.0449189731522932E+01 
    1.5541645737433129E+01 
    1.0438859242772885E+01 
    1.1440754231910818E+01 
    1.6622621060335714E+01 
    1.5880726615268925E+01 
    1.6669379881567888E+01 
    1.5794197746130846E+01 
    1.0659642140320683E+01 
    1.0872124599184309E+01 
    1.6676538217007838E+01 
    1.0998627511394167E+01 
    1.5403595214454551E+01 
    1.1177423748524888E+01 
    4.8156390843082111E+00 
    8.0229902480493642E+00 
    7.4514634342989003E+00 
    1.6626283498282081E+01 
    1.7400735306060817E+01 
    1.5561447178639497E+01 
    1.3116881155493614E+01 
    1.5879666181068833E+01 
    1.5615680037225204E+01 
    1.6248415111309658E+01 
    6.8970756767949748E+00 
    4.4780109807836812E+00 
    1.2880815147780410E+01 
    1.1209456563000632E+01 
    1.5776119891452506E+01 
    1.5773670238237434E+01 
    1.1740313562144189E+01 
    1.5813564598461182E+01 
    1.1524086199169295E+01 
    1.1435593774438285E+01 
    6.2359134440054911E+00 
    4.4589949092697365E+00 
    1.7165613725213415E+01 
    8.9957085200452997E+00 
    1.0373212715035724E+01 
    1.1632856996181182E+01 
    1.8806357797159901E+01 
    1.1726032003132200E+01 
    1.1828921525217002E+01 
    5.0972254143152096E+00 
    1.1726598426565200E+01 
    1.1741195790822967E+01 
    1.6083440635681370E+01 
    1.0077963463103419E+01 
    1.0994786257691050E+01 
    1.7342445105800177E+01 
    1.1546698930487620E+01 
    1.5578829365474114E+01 
    1.5827881500152364E+01 
    1.3974344134090217E+01 
    9.7818210334534044E+00 
    1.5794748903988497E+01 
    1.1343078038417568E+01 
    1.5756400481528532E+01 
    1.5513375160283964E+01 
    1.6646939703597113E+01 
    1.5789418473552381E+01 
    1.4829182255494278E+01 
    1.1535361645694470E+01 
    7.7400238097581413E+00 
    1.8679966554184713E+01 
    9.2704988283537304E+00 
    1.6558081046953159E+01 
    1.1532774280299586E+01 
    9.7588241840311483E+00 
    5.9278154967582868E+00 
    1.1779462104937259E+01 
    1.5778712927870645E+01 
    1.5776579437943314E+01 
    1.1421124465044825E+01 
    1.1526959470620490E+01 
    1.7556491432452763E+01 
    1.6893736011292596E+01 
    1.1745720448969227E+01 
    4.1630557465502749E+00 
    1.4680436803782388E+01 
    1.8933137124993355E+01 
    1.1538672210119369E+01 
    1.3530425600929277E+01 
    1.1052944764454915E+01 
    1.8536830253495161E+01 
    1.6980455152329256E+01 
    1.6729506027157587E+01 
    1.1768239516504861E+01 
    5.4571862164871128E+00 
    1.1012110577827466E+01 
    1.1076499073514947E+01 
    1.1117643959913901E+01 
    4.5433432992483329E+00 