# vtk DataFile Version 2.0
Pressure Field Data 
ASCII 
DATASET UNSTRUCTURED_GRID 

POINTS 2860 double 

    0.0000000000000000E+00     0.0000000000000000E+00     0.0000000000000000E+00 
    1.0000000000000000E+00     0.0000000000000000E+00     0.0000000000000000E+00 
    1.0000000000000000E+00     1.0000000000000000E+00     0.0000000000000000E+00 
    0.0000000000000000E+00     1.0000000000000000E+00     0.0000000000000000E+00 
    2.5000000000000000E-01     2.5000000000000000E-01     0.0000000000000000E+00 
    7.5000000000000000E-01     2.5000000000000000E-01     0.0000000000000000E+00 
    7.5000000000000000E-01     7.5000000000000000E-01     0.0000000000000000E+00 
    2.5000000000000000E-01     7.5000000000000000E-01     0.0000000000000000E+00 
    3.1249999999942091E-02     0.0000000000000000E+00     0.0000000000000000E+00 
    6.2499999999873469E-02     0.0000000000000000E+00     0.0000000000000000E+00 
    9.3749999999826514E-02     0.0000000000000000E+00     0.0000000000000000E+00 
    1.2499999999977961E-01     0.0000000000000000E+00     0.0000000000000000E+00 
    1.5624999999968961E-01     0.0000000000000000E+00     0.0000000000000000E+00 
    1.8749999999959971E-01     0.0000000000000000E+00     0.0000000000000000E+00 
    2.1874999999950970E-01     0.0000000000000000E+00     0.0000000000000000E+00 
    2.4999999999941969E-01     0.0000000000000000E+00     0.0000000000000000E+00 
    2.8124999999932920E-01     0.0000000000000000E+00     0.0000000000000000E+00 
    3.1249999999923850E-01     0.0000000000000000E+00     0.0000000000000000E+00 
    3.4374999999914790E-01     0.0000000000000000E+00     0.0000000000000000E+00 
    3.7499999999905720E-01     0.0000000000000000E+00     0.0000000000000000E+00 
    4.0624999999896660E-01     0.0000000000000000E+00     0.0000000000000000E+00 
    4.3749999999887590E-01     0.0000000000000000E+00     0.0000000000000000E+00 
    4.6874999999878530E-01     0.0000000000000000E+00     0.0000000000000000E+00 
    4.9999999999869471E-01     0.0000000000000000E+00     0.0000000000000000E+00 
    5.3124999999877620E-01     0.0000000000000000E+00     0.0000000000000000E+00 
    5.6249999999885780E-01     0.0000000000000000E+00     0.0000000000000000E+00 
    5.9374999999893940E-01     0.0000000000000000E+00     0.0000000000000000E+00 
    6.2499999999902101E-01     0.0000000000000000E+00     0.0000000000000000E+00 
    6.5624999999910261E-01     0.0000000000000000E+00     0.0000000000000000E+00 
    6.8749999999918421E-01     0.0000000000000000E+00     0.0000000000000000E+00 
    7.1874999999926570E-01     0.0000000000000000E+00     0.0000000000000000E+00 
    7.4999999999934730E-01     0.0000000000000000E+00     0.0000000000000000E+00 
    7.8124999999942890E-01     0.0000000000000000E+00     0.0000000000000000E+00 
    8.1249999999951039E-01     0.0000000000000000E+00     0.0000000000000000E+00 
    8.4374999999959199E-01     0.0000000000000000E+00     0.0000000000000000E+00 
    8.7499999999967359E-01     0.0000000000000000E+00     0.0000000000000000E+00 
    9.0624999999975520E-01     0.0000000000000000E+00     0.0000000000000000E+00 
    9.3749999999983680E-01     0.0000000000000000E+00     0.0000000000000000E+00 
    9.6874999999991840E-01     0.0000000000000000E+00     0.0000000000000000E+00 
    1.0000000000000000E+00     3.1249999999942091E-02     0.0000000000000000E+00 
    1.0000000000000000E+00     6.2499999999873469E-02     0.0000000000000000E+00 
    1.0000000000000000E+00     9.3749999999826514E-02     0.0000000000000000E+00 
    1.0000000000000000E+00     1.2499999999977961E-01     0.0000000000000000E+00 
    1.0000000000000000E+00     1.5624999999968961E-01     0.0000000000000000E+00 
    1.0000000000000000E+00     1.8749999999959971E-01     0.0000000000000000E+00 
    1.0000000000000000E+00     2.1874999999950970E-01     0.0000000000000000E+00 
    1.0000000000000000E+00     2.4999999999941969E-01     0.0000000000000000E+00 
    1.0000000000000000E+00     2.8124999999932920E-01     0.0000000000000000E+00 
    1.0000000000000000E+00     3.1249999999923850E-01     0.0000000000000000E+00 
    1.0000000000000000E+00     3.4374999999914790E-01     0.0000000000000000E+00 
    1.0000000000000000E+00     3.7499999999905720E-01     0.0000000000000000E+00 
    1.0000000000000000E+00     4.0624999999896660E-01     0.0000000000000000E+00 
    1.0000000000000000E+00     4.3749999999887590E-01     0.0000000000000000E+00 
    1.0000000000000000E+00     4.6874999999878530E-01     0.0000000000000000E+00 
    1.0000000000000000E+00     4.9999999999869471E-01     0.0000000000000000E+00 
    1.0000000000000000E+00     5.3124999999877620E-01     0.0000000000000000E+00 
    1.0000000000000000E+00     5.6249999999885780E-01     0.0000000000000000E+00 
    1.0000000000000000E+00     5.9374999999893940E-01     0.0000000000000000E+00 
    1.0000000000000000E+00     6.2499999999902101E-01     0.0000000000000000E+00 
    1.0000000000000000E+00     6.5624999999910261E-01     0.0000000000000000E+00 
    1.0000000000000000E+00     6.8749999999918421E-01     0.0000000000000000E+00 
    1.0000000000000000E+00     7.1874999999926570E-01     0.0000000000000000E+00 
    1.0000000000000000E+00     7.4999999999934730E-01     0.0000000000000000E+00 
    1.0000000000000000E+00     7.8124999999942890E-01     0.0000000000000000E+00 
    1.0000000000000000E+00     8.1249999999951039E-01     0.0000000000000000E+00 
    1.0000000000000000E+00     8.4374999999959199E-01     0.0000000000000000E+00 
    1.0000000000000000E+00     8.7499999999967359E-01     0.0000000000000000E+00 
    1.0000000000000000E+00     9.0624999999975520E-01     0.0000000000000000E+00 
    1.0000000000000000E+00     9.3749999999983680E-01     0.0000000000000000E+00 
    1.0000000000000000E+00     9.6874999999991840E-01     0.0000000000000000E+00 
    9.6875000000003686E-01     1.0000000000000000E+00     0.0000000000000000E+00 
    9.3750000000011691E-01     1.0000000000000000E+00     0.0000000000000000E+00 
    9.0625000000015765E-01     1.0000000000000000E+00     0.0000000000000000E+00 
    8.7500000000017863E-01     1.0000000000000000E+00     0.0000000000000000E+00 
    8.4375000000028044E-01     1.0000000000000000E+00     0.0000000000000000E+00 
    8.1250000000040856E-01     1.0000000000000000E+00     0.0000000000000000E+00 
    7.8125000000054956E-01     1.0000000000000000E+00     0.0000000000000000E+00 
    7.5000000000066480E-01     1.0000000000000000E+00     0.0000000000000000E+00 
    7.1875000000086831E-01     1.0000000000000000E+00     0.0000000000000000E+00 
    6.8750000000102829E-01     1.0000000000000000E+00     0.0000000000000000E+00 
    6.5625000000114431E-01     1.0000000000000000E+00     0.0000000000000000E+00 
    6.2500000000129829E-01     1.0000000000000000E+00     0.0000000000000000E+00 
    5.9375000000147926E-01     1.0000000000000000E+00     0.0000000000000000E+00 
    5.6250000000168354E-01     1.0000000000000000E+00     0.0000000000000000E+00 
    5.3125000000188671E-01     1.0000000000000000E+00     0.0000000000000000E+00 
    5.0000000000205835E-01     1.0000000000000000E+00     0.0000000000000000E+00 
    4.6875000000192979E-01     1.0000000000000000E+00     0.0000000000000000E+00 
    4.3750000000180111E-01     1.0000000000000000E+00     0.0000000000000000E+00 
    4.0625000000167238E-01     1.0000000000000000E+00     0.0000000000000000E+00 
    3.7500000000154382E-01     1.0000000000000000E+00     0.0000000000000000E+00 
    3.4375000000141509E-01     1.0000000000000000E+00     0.0000000000000000E+00 
    3.1250000000128642E-01     1.0000000000000000E+00     0.0000000000000000E+00 
    2.8125000000115769E-01     1.0000000000000000E+00     0.0000000000000000E+00 
    2.5000000000102918E-01     1.0000000000000000E+00     0.0000000000000000E+00 
    2.1875000000090050E-01     1.0000000000000000E+00     0.0000000000000000E+00 
    1.8750000000077180E-01     1.0000000000000000E+00     0.0000000000000000E+00 
    1.5625000000064329E-01     1.0000000000000000E+00     0.0000000000000000E+00 
    1.2500000000051459E-01     1.0000000000000000E+00     0.0000000000000000E+00 
    9.3750000000385914E-02     1.0000000000000000E+00     0.0000000000000000E+00 
    6.2500000000257239E-02     1.0000000000000000E+00     0.0000000000000000E+00 
    3.1250000000128557E-02     1.0000000000000000E+00     0.0000000000000000E+00 
    0.0000000000000000E+00     9.6875000000003686E-01     0.0000000000000000E+00 
    0.0000000000000000E+00     9.3750000000011691E-01     0.0000000000000000E+00 
    0.0000000000000000E+00     9.0625000000015765E-01     0.0000000000000000E+00 
    0.0000000000000000E+00     8.7500000000017863E-01     0.0000000000000000E+00 
    0.0000000000000000E+00     8.4375000000028044E-01     0.0000000000000000E+00 
    0.0000000000000000E+00     8.1250000000040856E-01     0.0000000000000000E+00 
    0.0000000000000000E+00     7.8125000000054956E-01     0.0000000000000000E+00 
    0.0000000000000000E+00     7.5000000000066480E-01     0.0000000000000000E+00 
    0.0000000000000000E+00     7.1875000000086831E-01     0.0000000000000000E+00 
    0.0000000000000000E+00     6.8750000000102829E-01     0.0000000000000000E+00 
    0.0000000000000000E+00     6.5625000000114431E-01     0.0000000000000000E+00 
    0.0000000000000000E+00     6.2500000000129829E-01     0.0000000000000000E+00 
    0.0000000000000000E+00     5.9375000000147926E-01     0.0000000000000000E+00 
    0.0000000000000000E+00     5.6250000000168354E-01     0.0000000000000000E+00 
    0.0000000000000000E+00     5.3125000000188671E-01     0.0000000000000000E+00 
    0.0000000000000000E+00     5.0000000000205835E-01     0.0000000000000000E+00 
    0.0000000000000000E+00     4.6875000000192979E-01     0.0000000000000000E+00 
    0.0000000000000000E+00     4.3750000000180111E-01     0.0000000000000000E+00 
    0.0000000000000000E+00     4.0625000000167238E-01     0.0000000000000000E+00 
[...]
CELL_DATA 2795 
SCALARS Pressure double 1 
LOOKUP_TABLE default 

    7.2301396034683547E+00 
    1.5509013372232264E+01 
    1.1021334975620819E+01 
    1.0722749421056388E+01 
    8.7503839659524498E+00 
    1.5371798237144814E+01 
    1.6126581277143607E+01 
    6.5105432474320146E+00 
    1.1578388645793227E+01 
    8.8960462600029278E+00 
    7.6118291962650577E+00 
    1.5105895889688695E+01 
    1.5426720438864283E+01 
    1.5340902843247147E+01 
    1.0137299619345178E+01 
    6.4070245374825596E+00 
    9.9791792691669183E+00 
    8.0910216068408420E+00 
    1.4729654476720032E+01 
    1.1005096380560241E+01 
    1.0899757265218479E+01 
    1.5271220050419668E+01 
    1.0464862097075798E+01 
    4.2580335112698581E-01 
    1.5095971386908795E+01 
    1.5379795277176017E+01 
    1.6159212343949189E+01 
    7.3795552645573013E+00 
    1.5023844288284241E+01 
    1.6143130829487117E+01 
    1.1151438898021192E+01 
    1.1215335806559741E+01 
    8.0472172848146908E+00 
    1.0983917035182484E+01 
    3.7069529685495923E+00 
    9.9800701534276310E+00 
    1.0970529371491249E+01 
    1.6183243027046018E+01 
    1.6103130189750473E+01 
    1.5119305314767880E+01 
    8.7040491080590332E+00 
    1.5074782148020295E+01 
    8.9247878201971031E-01 
    1.0952553270487982E+01 
    1.5946948581195702E+01 
    1.5707792922966297E+01 
    1.5094797350010705E+01 
    1.1987852264260811E+01 
    1.5162504918173280E+01 
    1.0184853620398616E+01 
    9.7564715634314538E+00 
    1.1179793304440651E+01 
    1.0857146596294779E+01 
    1.0036602879382041E+01 
    1.1219836715582336E+01 
    1.4511756959235846E+01 
    1.2924999200064807E+01 
    8.7938722010852111E+00 
    1.5276878072727532E+01 
    1.5196795363471640E+01 
    1.0712778658753001E+01 
    1.0602319603058996E+01 
    1.0629883003475802E+01 
    1.6043547727452392E+01 
    1.6342225701251653E+01 
    9.9940279686948212E+00 
    1.1178460240707803E+01 
    1.4954363438436905E+01 
    1.2865212140667328E+01 
    1.0641074716690310E+01 
    1.6321114325829942E+01 
    1.5220775797920194E+01 
    9.8659003581983225E+00 
    1.5828048033303659E+01 
    1.1446993905716537E+01 
    1.4937520777688645E+01 
    1.6204394320514691E+01 
    1.1494597180280961E+01 
    7.3896662742401373E+00 
    1.1196666413629060E+01 
    1.6112001923476189E+01 
    1.6342298400838654E+01 
    9.9970534342527113E+00 
    1.1119391470198915E+01 
    1.6392487405465143E+01 
    1.0970456842745262E+01 
    1.0548840403135735E+01 
    1.3312517489895107E+01 
    7.0696346021303524E+00 
    9.7837191522592200E+00 
    1.1117351689760092E+01 
    1.1738336650415967E+01 
    1.7855816821502213E+01 
    8.5202795302782484E+00 
    1.1186346995018555E+01 
    1.5072070027934650E+01 
    1.5371782768416148E+01 
    7.5737776123521581E+00 
    1.0832257599050392E+01 
    1.1150216436478368E+01 
    1.5394765792481028E+01 
    1.1144344316002595E+01 
    1.5319251624219774E+01 
    4.6675361844539980E+00 
    7.3991951745999938E+00 
    1.1404014963936534E+01 
    1.5517328751888943E+01 
    9.9460390426308862E+00 
    1.0496866963647779E+01 
    1.1125196319807646E+01 
    1.0519227269276689E+01 
    1.2543549323079594E+01 
    1.0243087384702493E+01 
    9.8733332179214663E+00 
    8.0306569012296816E+00 
    1.3073747026469270E+01 
    1.1219728151489594E+01 
    1.5955997466713489E+01 
    9.6495294595881766E+00 
    1.0705541063484002E+01 
    1.5205437096875647E+01 
    9.1362450396632138E+00 
    1.5684504146904853E+01 
    1.1045434042140101E+01 
    1.0639135858384215E+01 
    1.5374204010727361E+01 
    1.1209031339871542E+01 
    1.6211876585553203E+01 
    1.3330108313070863E+01 
    1.4346240446375660E+01 
    1.6176482495690106E+01 
    8.5358250291097502E+00 
    1.1429811252411136E+01 
    1.5364899768105252E+01 
    3.4818105607082668E+00 
    1.1198806254690577E+01 
    1.6141976280879867E+01 
    1.0666399605718937E+01 
    1.2187343968353668E+01 
    7.5920500408252938E+00 
    1.5069753745129660E+01 
    1.8335436923194983E+01 
    1.3826624875123040E+01 
    1.0665834130947303E+01 
    9.6794187599521511E+00 
    1.1840830234022969E+01 
    1.1062530707399391E+01 
    7.7022477743408206E+00 
    1.6170121081814816E+01 
    1.5414368675998182E+01 
    1.5073810740131472E+01 
    1.1756593985595906E+01 
    9.8440919834338949E+00 
    1.0896135797130270E+01 
    1.5864254378661876E+01 
    1.0076344303827852E+01 
    1.1110805753449428E+01 
    1.0234559521133006E+01 
    1.2822332353953280E+01 
    1.8323760635484518E+01 
    1.5065132239198791E+01 
    9.8314167362782854E+00 
    1.5581340086561671E+01 
    1.5474456636556503E+01 
    1.5558542980745537E+01 
    1.6593282004796770E+01 
    1.7138786866195282E+01 
    1.5704862413381960E+01 
    1.1170203383419736E+01 
    1.2001992689941481E+01 
    1.5539335524887868E+01 
    1.5973091165628944E+01 
    8.0349443234247353E+00 
    1.5094342233830996E+01 
    1.5828156799125324E+01 
    7.8168422434075984E+00 
    1.6508584207588559E+01 
    1.6489218665879690E+01 
    1.4800628900036477E+01 
    1.1514226645508524E+01 
    3.0459076654106902E+00 
    1.6140925110067069E+01 
    1.1344871921603911E+01 
    1.6273719311528435E+01 
    1.0600697687835071E+01 
    1.5972007325846032E+01 
    1.1103855913341025E+00 
    1.4354603842211549E+01 
    1.0648425709458559E+01 
    9.8009886050153376E+00 
    9.5796218468988279E+00 
    1.1013788633542722E+01 
    1.2166325574809058E+01 
    1.1541315836936205E+01 
    8.1514023983720136E+00 
    1.5962235546124095E+01 
    1.5389142110310814E+01 
    1.2995523898005741E+01 
    1.1397784386343121E+01 
    1.7653129808188250E+00 
    8.9013451994829111E+00 
    6.3475953425385816E+00 
    1.6155720106708234E+01 
    1.2299275815011454E+01 
    1.5441736026455139E+01 
    1.5460115974148730E+01 
    1.0153894262901209E+01 
    1.2824235351831947E+01 
    1.5068670706353155E+01 
    1.6476321501168698E+01 
    7.5394330648013250E+00 
    1.3660338591984724E+01 
    1.1504691824542279E+01 
    6.7454382753498869E+00 
    1.0145700365898078E+01 
    1.3392923838277710E+01 
    1.5419082747797102E+01 
    1.1066692198721839E+01 
    1.5535652908560142E+01 
    1.5287920771849485E+01 
    1.5233784041490054E+01 
    1.0901082184656991E+01 
    9.7112334249111676E+00 
    1.5082132878315164E+01 
    9.8626458399315258E+00 
    1.1151245279416964E+01 
    9.6946190575182172E+00 
    1.1075936388007346E+01 
    1.5470340793035193E+01 
    6.9867999354026935E+00 
    1.0059075142284001E+01 
    1.6071392489821331E+01 
    1.0911471058559306E+01 
    1.2198050193844358E+01 
    7.1655905442176726E+00 
    9.9181855050530210E+00 
    1.5265290079062726E+01 
    1.5593987301298501E+01 
    5.8795541416172767E+00 
    1.0921298372704115E+01 
    9.7427291527689182E+00 
    1.6905124896566690E+01 
    1.6354016215227936E+01 
    1.7166130102415352E+01 
    1.0941880637364035E+01 
    1.5440936252742505E+01 
    1.5021816043323575E+01 
    1.0802011663892436E+01 
    1.5074192073231286E+01 
    1.1399488987686402E+01 
    6.8233445474937797E+00 
    1.1237899565601234E+01 
    1.6056285310727471E+01 
    1.5070894982235545E+01 
    7.5971065594310367E+00 
    1.5101583139869659E+01 
    1.2187590590379443E+01 
    1.1179866645584742E+01 
    1.0738228756446674E+01 
    1.4933017508202747E+01 
    1.1683000815962785E+01 
    1.5087577415566267E+01 
    1.0892417744190118E+01 
    7.0391807233568455E+00 
    1.1227543149536707E+01 
    9.5850415320649880E+00 
    1.3837603224995307E+01 
    1.6263349444760891E+01 
    1.5080135872271677E+01 
    1.6134928882741736E+01 
    1.0854723931254862E+01 
    7.3942327911283972E+00 
    7.4903221332326790E+00 
    1.1360105684918969E+01 
    1.1124931924559894E+01 
    1.7108775953878412E+00 
    1.4556098564258706E+01 
    1.6636949379985197E+01 
    1.0614099630902123E+01 
    7.1022050947825255E+00 
    1.2744957515573635E+01 
    1.5100005716387825E+01 
    8.2768901860370274E+00 
    5.7177181941692208E+00 
    1.1105775271942846E+01 
    1.5179562219904053E+01 
    1.5865464476692971E+01 
    1.5757413400635258E+01 
    1.5596939470729929E+01 
    8.1385980582180899E+00 
    1.1173505166023025E+01 
    1.4595285049568655E+01 
    8.7370548003055628E+00 
    1.5411944085401567E+01 
    1.3055223108024155E+01 
    7.5882691356013856E+00 
    1.5208346181047142E+01 
    1.6158027198841932E+01 
    1.5226677936775069E+01 
    7.9923173869783621E+00 
    1.1174598161355876E+01 
    8.7253427306836926E+00 
    1.0554526905735973E+01 
    1.5091179002684713E+01 
    1.5078923405222337E+01 
    8.0362573311642507E+00 
    1.6013881730477966E+01 
    1.1727302684486617E+01 
    1.5111643301830640E+01 
    1.5991782503018172E+01 
    1.5099231849127545E+01 
    1.4078619401459070E+01 
    1.6960394461353623E+01 
    1.0569558523212361E+01 
    1.6103078374738779E+01 
    1.5139540979713338E+01 
    1.6178169431728200E+01 
    1.6006429247514369E+01 
    1.0665891305358501E+01 
    1.1011244329413470E+01 
    1.0605190824286232E+01 
    1.3552114032734613E+01 
    4.6765931187391434E+00 
    1.1297935889803734E+01 
    1.7086295293070492E+01 
    1.1400161054373545E+01 
    1.1596642810790797E+01 
    1.6150106086015459E+01 
    1.6390182891173019E+01 
    1.0495781681235121E+01 
    1.5106126046108278E+01 
    1.5074992426866102E+01 
    1.1583528283648974E+01 
    1.5960562399816208E+01 
    7.9607960003825697E+00 
    5.1424301602009175E+00 
    1.1880067498329723E+01 
    1.1414196085966353E+01 
    1.5080520596803893E+01 
    7.5542522650490866E+00 
    1.5674011873788169E+01 
    5.2552496634497681E+00 
    1.1348976447707781E+01 
    1.0696005492774388E+01 
    1.1151419794512504E+01 
    1.8373031698132284E+01 
    4.5460596064988437E+00 
    1.1216184595790152E+01 
    1.3296614894380628E+01 
    1.0747429599840039E+01 
    8.8644166905823525E+00 
    1.5782530286292326E+01 
    1.7948126033266533E+01 
    1.5938914976287226E+01 
    1.1157396152550561E+01 
    6.7100723015211106E+00 
    1.7794574130570997E+01 
    1.5379346993785845E+01 
    8.5429502248246880E+00 
    1.0807781898168690E+01 
    1.6575004448070224E+01 
    3.8568902336675093E+00 
    1.1467506402750868E+01 
    1.5924116741486316E+01 
    1.1165879657664092E+01 
    9.7409994417616481E+00 
    1.1255526779572422E+01 
    1.4780150468319029E+01 
    1.1147601839513063E+01 
    5.9966735599372658E+00 
    1.0994671772129232E+00 
    8.3483987203487597E+00 
    1.6797120362834885E+01 
    1.0603849272119053E+01 
    1.2484573680452291E+01 
    1.1986923922632631E+01 
    1.3684595679832032E+01 
    1.1179465227245128E+01 
    1.5283722033434199E+01 
    1.8387002198790558E+01 
    1.3218898688693445E+01 
    1.6074156659296762E+01 
    6.3711048323800645E-01 
    1.5080985679993473E+01 
    6.6140521990230043E+00 
    1.7254394824126518E+01 
    1.1229661576892608E+01 
    9.9171910965891836E+00 
    8.8840226183755853E+00 
    6.2671989082809301E+00 
    1.2483856705821522E+01 
    8.8343173036665341E+00 
    1.3726879126699155E+01 
    2.5828641191351132E+00 
    1.2225231392304254E+01 
    1.5009519096280254E+01 
    6.8034421687700579E+00 
    1.5562093162369667E+01 
    1.7064125490754513E+01 
    1.5404979419645574E+01 
    1.1097163992873542E+01 
    1.1145724576010496E+01 
    1.1222459238723221E+01 
    6.7801171383916561E+00 
    1.0339668171122010E+01 
    1.0188231272377346E+01 
    1.1211613756782540E+01 
    1.0539795152270230E+01 
    8.1997569032908901E-01 
    7.5209295454730185E+00 
    1.0918999412284423E+01 
    1.1186961854777536E+01 
    1.4092252736314006E+01 
    2.5240209916671392E+00 
    1.1541179361266511E+01 
    1.1420170842338184E+01 
    4.3685031436256097E+00 
    1.5265679693005753E+01 
    9.8721499201960921E+00 
    1.1279314397217458E+01 
    1.5379980257407725E+01 
    6.3074307937998277E+00 
    1.5380779834677087E+01 
    9.9886293195642093E+00 
    1.1460109479878426E+00 
    1.0663561262174426E+01 
    1.6027180565115522E+01 
    1.5080957232397141E+01 
    1.5100514159249260E+01 
    1.1562939740391712E+01 
    1.1352257715993010E+01 
    9.8574283242835534E+00 
    8.1847763549816452E+00 
    1.5503584873639369E+01 
    1.0802792931092045E+01 
    7.9393613567499823E+00 
    1.5095607462889440E+01 
    1.5808374791985417E+01 
    1.1382517202079347E+01 
    1.0960126284280014E+01 
    1.8268560068078838E+01 
    1.1584490285240738E+01 
    1.5513221281969541E+01 
    9.4236198308693275E+00 
    1.8414928043856513E+01 
    7.4458093858021410E+00 
    1.0244748040240582E+01 
    8.2983962623612335E+00 
    1.1827533367419173E+01 
    9.4868471162031742E+00 
    1.8398730667990190E+01 
    1.1634987387069295E+01 
    1.4722089854287532E+01 
    7.6524499670065200E+00 
    1.1174695551120720E+01 
    1.5342114623412982E+01 
    9.5045274022549631E+00 
    8.4892792134350348E+00 
    1.2402540957496164E+01 
    1.5586401753213577E+01 
    8.1870263125086318E+00 
    1.0716544339838093E+01 
    1.0994909661911459E+01 
    1.5055523676999600E+01 
    1.0776501412219320E+01 
    1.5556185847975312E+01 
    1.6208068849806153E+01 
    9.8858692710207663E+00 
    9.7139525677087555E+00 
    8.8664179368612857E+00 
    1.5203420026418465E+01 
    1.1448852419807942E+01 
    1.7984425557775477E+01 
    1.4162286897664307E+01 
    1.5300496046730595E+01 
    1.7668941281452767E+01 
    1.7066417528445026E+01 
    1.1221529673179376E+01 
    1.1196708833796599E+01 
    1.4825536711201881E+01 
    1.5120554774781461E+01 
    1.5698414809075159E+01 
    1.5403007776004356E+01 
    1.8290081899081276E+01 
    1.1583992411176641E+01 
    9.9851280229431527E+00 
    1.1590828696612773E+01 
    1.6118183121839603E+01 
    1.1317367327061623E+01 
    6.7040377552230765E+00 
    1.1081354226710218E+01 
    1.6549566547865783E+01 
    1.1457420561453940E+01 
    9.9911015995447894E+00 
    1.0934940738258240E+01 
    1.6657726798361796E+01 
    1.5132013552516124E+01 
    9.5657499064029263E+00 
    1.6797466503339127E+01 
    1.1250203605888609E+01 
    1.5667046362572119E+01 
    1.6671583169632914E+01 
    1.1793175575095129E+01 
    6.3195538585017212E+00 
    1.2252827616335672E+01 
    6.5258400652693753E+00 
    1.1367532992544044E+01 
    1.1169406351116082E+01 
    1.2924553300617278E+01 
    6.8847943787730586E+00 
    1.3723834934629519E+01 
    1.1187201784708538E+01 
    1.5391450471612306E+01 
    1.1893251422913682E+01 
    9.4101183105370492E+00 
    1.0794816822369762E+01 
    1.1715554675581519E+01 
    1.1693420024621325E+01 
    1.6271350851413754E+01 
    9.5966312945271639E+00 
    9.4473003351166298E+00 
    7.2161123041113768E+00 
    1.5718112082702811E+01 
    1.0841964087639143E+01 
    1.4915982014355809E+01 
    1.1138605743167474E+01 
    7.8389168963369391E+00 
    1.5166866920200933E+01 
    1.1114663946179080E+01 
    8.4870948422824686E+00 
    8.9469974301093789E+00 
    9.2348052887929519E+00 
    1.5426697076739991E+01 
    1.1213571050760395E+01 
    1.6086172248167891E+01 
    1.1074236488270254E+01 
    1.1012613110049671E+01 
    1.0636874926768145E+01 
    1.5254584470640269E+01 
    1.0927142183999456E+01 
    9.2782128684427878E+00 
    1.7053089388447091E+01 
    1.5341984210540581E+01 
    7.7864869299845907E+00 
    3.1937545595213996E+00 
    1.1203181555663591E+01 
    1.0482162544606407E+01 
    9.7085502359197662E+00 
    1.0443303104187040E+01 
    1.5293689632184075E+01 
    1.0916825581271024E+01 
    1.0028392983603771E+01 
    1.5143691476020789E+01 
    7.7222352643505046E+00 
    1.4786780531449669E+01 
    1.0127831038225770E+01 
    9.2532432791521284E+00 
    9.7888813073778618E+00 
    1.5756590213741900E+01 
    1.1154152768614130E+01 
    1.1162427374293486E+01 
    6.9610332610802166E+00 
    7.4822566983520691E+00 
    1.3955267342836114E+01 
    1.1172266754930689E+01 
    1.1242576193080666E+01 
    1.6782138903635939E+01 
    9.4423018598430595E+00 
    1.1184540415889860E+01 
    7.9821642735721285E+00 
    8.2304006322685197E+00 
    1.5250723589876525E+01 
    1.0805869813114013E+01 
    8.1922940648826916E+00 
    1.1749801760165893E+01 
    1.1067813801423187E+01 
    1.5252852674712914E+01 
    1.6875653182345939E+01 
    1.2127640822762729E+00 
    1.1207983503513885E+01 
    1.1412552244466989E+01 
    1.5318443265781243E+01 
    1.0732185786661502E+01 
    1.1127179889818692E+01 
    1.6336491575817316E+01 
    9.8232842661443325E+00 
    8.2598521886162679E+00 
    1.3335345194264528E+01 
    1.5095380331399122E+01 
    1.6177781204221461E+01 
    1.6445352690752991E+01 
    1.1053587853677636E+01 
    1.1199711351652875E+01 
    1.2508190205780766E+01 
    7.4290503580874798E+00 
    1.5229415071655588E+01 
    8.8541631545327348E+00 
    7.7101107726446125E+00 
    1.3854343618977053E+01 
    1.3122991321340789E+01 
    7.5731539281068301E+00 
    1.5132987355399891E+01 
    1.6162743985687126E+01 
    1.1600592174581701E+01 
    1.6978129983404763E+01 
    1.5167895303506599E+01 
    1.0795692730398491E+01 
    1.5891706916352804E+01 
    8.2207426750169983E+00 
    1.5114715666579890E+01 
    1.1206974822571510E+01 
    1.1168980384848204E+01 
    1.6954228730655775E+01 
    1.0881685165019457E+01 
    1.3641126671075515E+01 
    9.7706155367992586E+00 
    1.6283699684385606E+01 
    1.5016944207309070E+01 
    1.0145367072540187E+01 
    1.5069656347477084E+01 
    1.0112983790905744E+01 
    1.1135392558729315E+01 
    1.6120438869855164E+01 
    1.5406739933403172E+01 
    1.6166137077011150E+01 
    1.5322858865537086E+01 
    1.0350986616466754E+01 
    1.0559173606757026E+01 
    1.6173099205127247E+01 
    1.0681287596979002E+01 
    1.4937443862745097E+01 
    1.0866154772734108E+01 
    4.7213377519097817E+00 
    7.7822876365051883E+00 
    7.2272088447366931E+00 
    1.6123999612158062E+01 
    1.6882208708143320E+01 
    1.5088728369897460E+01 
    1.2771842412478145E+01 
    1.5398370206700749E+01 
    1.5140823147448499E+01 
    1.5755679578774735E+01 
    6.7417810533615192E+00 
    4.3946945426541912E+00 
    1.2544277053146274E+01 
    1.0883781037785791E+01 
    1.5296085518865620E+01 
    1.5293648340607835E+01 
    1.1439367820764749E+01 
    1.5332433651934430E+01 
    1.1194154690101227E+01 
    1.1105403208371142E+01 
    6.1047360289897030E+00 
    4.3761553594070195E+00 
    1.6652267954703813E+01 
    8.7293569213356150E+00 
    1.0076024681936238E+01 
    1.1328611702584302E+01 
    1.8270255405949928E+01 
    1.1422145552822952E+01 
    1.1490930973641259E+01 
    4.9814896417312742E+00 
    1.1423067278235862E+01 
    1.1437832958790171E+01 
    1.5613186085233204E+01 
    9.7937399015808992E+00 
    1.0691140294555396E+01 
    1.6825279569809936E+01 
    1.1216116807549943E+01 
    1.5105540665132578E+01 
    1.5350252995188070E+01 
    1.3596270748148275E+01 
    9.4950940182716650E+00 
    1.5323653020870790E+01 
    1.1016194203479065E+01 
    1.5281330201768194E+01 
    1.5041358663469403E+01 
    1.6144173160948316E+01 
    1.5317698179751559E+01 
    1.4390239243686212E+01 
    1.1205103853046854E+01 
    7.5064945654813657E+00 
    1.8144877989226796E+01 
    9.0229890667929791E+00 
    1.6059960342080100E+01 
    1.1202572032822264E+01 
    9.4897060643434337E+00 
    5.7764814076430619E+00 
    1.1476950398472702E+01 
    1.5307893475637401E+01 
    1.5306837076136103E+01 
    1.1115727714035129E+01 
    1.1196879210173622E+01 
    1.7035770039904186E+01 
    1.6386971819077761E+01 
    1.1441421728413181E+01 
    4.0859810731958150E+00 
    1.4281908222362862E+01 
    1.8396397841861695E+01 
    1.1208344448713648E+01 
    1.3170539652525189E+01 
    1.0730466741869598E+01 
    1.8003351982783997E+01 
    1.6471289955074138E+01 
    1.6223072498981455E+01 
    1.1463660309318135E+01 
    5.3203296545758896E+00 
    1.0690646000221570E+01 
    1.0753677212583403E+01 
    1.0794711344353825E+01 
    4.4500353960123968E+00 