# vtk DataFile Version 2.0
Pressure Field Data 
ASCII 
DATASET UNSTRUCTURED_GRID 

POINTS 2860 double 

    0.0000000000000000E+00     0.0000000000000000E+00     0.0000000000000000E+00 
    1.0000000000000000E+00     0.0000000000000000E+00     0.0000000000000000E+00 
    1.0000000000000000E+00     1.0000000000000000E+00     0.0000000000000000E+00 
    0.0000000000000000E+00     1.0000000000000000E+00     0.0000000000000000E+00 
    2.5000000000000000E-01     2.5000000000000000E-01     0.0000000000000000E+00 
    7.5000000000000000E-01     2.5000000000000000E-01     0.0000000000000000E+00 
    7.5000000000000000E-01     7.5000000000000000E-01     0.0000000000000000E+00 
    2.5000000000000000E-01     7.5000000000000000E-01     0.0000000000000000E+00 
    3.1249999999942091E-02     0.0000000000000000E+00     0.0000000000000000E+00 
    6.2499999999873469E-02     0.0000000000000000E+00     0.0000000000000000E+00 
    9.3749999999826514E-02     0.0000000000000000E+00     0.0000000000000000E+00 
    1.2499999999977961E-01     0.0000000000000000E+00     0.0000000000000000E+00 
    1.5624999999968961E-01     0.0000000000000000E+00     0.0000000000000000E+00 
    1.8749999999959971E-01     0.0000000000000000E+00     0.0000000000000000E+00 
    2.1874999999950970E-01     0.0000000000000000E+00     0.0000000000000000E+00 
    2.4999999999941969E-01     0.0000000000000000E+00     0.0000000000000000E+00 
    2.8124999999932920E-01     0.0000000000000000E+00     0.0000000000000000E+00 
    3.1249999999923850E-01     0.0000000000000000E+00     0.0000000000000000E+00 
    3.4374999999914790E-01     0.0000000000000000E+00     0.0000000000000000E+00 
    3.7499999999905720E-01     0.0000000000000000E+00     0.0000000000000000E+00 
    4.0624999999896660E-01     0.0000000000000000E+00     0.0000000000000000E+00 
    4.3749999999887590E-01     0.0000000000000000E+00     0.0000000000000000E+00 
    4.6874999999878530E-01     0.0000000000000000E+00     0.0000000000000000E+00 
    4.9999999999869471E-01     0.0000000000000000E+00     0.0000000000000000E+00 
    5.3124999999877620E-01     0.0000000000000000E+00     0.0000000000000000E+00 
    5.6249999999885780E-01     0.0000000000000000E+00     0.0000000000000000E+00 
    5.9374999999893940E-01     0.0000000000000000E+00     0.0000000000000000E+00 
    6.2499999999902101E-01     0.0000000000000000E+00     0.0000000000000000E+00 
    6.5624999999910261E-01     0.0000000000000000E+00     0.0000000000000000E+00 
    6.8749999999918421E-01     0.0000000000000000E+00     0.0000000000000000E+00 
    7.1874999999926570E-01     0.0000000000000000E+00     0.0000000000000000E+00 
    7.4999999999934730E-01     0.0000000000000000E+00     0.0000000000000000E+00 
    7.8124999999942890E-01     0.0000000000000000E+00     0.0000000000000000E+00 
    8.1249999999951039E-01     0.0000000000000000E+00     0.0000000000000000E+00 
    8.4374999999959199E-01     0.0000000000000000E+00     0.0000000000000000E+00 
    8.7499999999967359E-01     0.0000000000000000E+00     0.0000000000000000E+00 
    9.0624999999975520E-01     0.0000000000000000E+00     0.0000000000000000E+00 
    9.3749999999983680E-01     0.0000000000000000E+00     0.0000000000000000E+00 
    9.6874999999991840E-01     0.0000000000000000E+00     0.0000000000000000E+00 
    1.0000000000000000E+00     3.1249999999942091E-02     0.0000000000000000E+00 
    1.0000000000000000E+00     6.2499999999873469E-02     0.0000000000000000E+00 
    1.0000000000000000E+00     9.3749999999826514E-02     0.0000000000000000E+00 
    1.0000000000000000E+00     1.2499999999977961E-01     0.0000000000000000E+00 
    1.0000000000000000E+00     1.5624999999968961E-01     0.0000000000000000E+00 
    1.0000000000000000E+00     1.8749999999959971E-01     0.0000000000000000E+00 
    1.0000000000000000E+00     2.1874999999950970E-01     0.0000000000000000E+00 
    1.0000000000000000E+00     2.4999999999941969E-01     0.0000000000000000E+00 
    1.0000000000000000E+00     2.8124999999932920E-01     0.0000000000000000E+00 
    1.0000000000000000E+00     3.1249999999923850E-01     0.0000000000000000E+00 
    1.0000000000000000E+00     3.4374999999914790E-01     0.0000000000000000E+00 
    1.0000000000000000E+00     3.7499999999905720E-01     0.0000000000000000E+00 
    1.0000000000000000E+00     4.0624999999896660E-01     0.0000000000000000E+00 
    1.0000000000000000E+00     4.3749999999887590E-01     0.0000000000000000E+00 
    1.0000000000000000E+00     4.6874999999878530E-01     0.0000000000000000E+00 
    1.0000000000000000E+00     4.9999999999869471E-01     0.0000000000000000E+00 
    1.0000000000000000E+00     5.3124999999877620E-01     0.0000000000000000E+00 
    1.0000000000000000E+00     5.6249999999885780E-01     0.0000000000000000E+00 
    1.0000000000000000E+00     5.9374999999893940E-01     0.0000000000000000E+00 
    1.0000000000000000E+00     6.2499999999902101E-01     0.0000000000000000E+00 
    1.0000000000000000E+00     6.5624999999910261E-01     0.0000000000000000E+00 
    1.0000000000000000E+00     6.8749999999918421E-01     0.0000000000000000E+00 
    1.0000000000000000E+00     7.1874999999926570E-01     0.0000000000000000E+00 
    1.0000000000000000E+00     7.4999999999934730E-01     0.0000000000000000E+00 
    1.0000000000000000E+00     7.8124999999942890E-01     0.0000000000000000E+00 
    1.0000000000000000E+00     8.1249999999951039E-01     0.0000000000000000E+00 
    1.0000000000000000E+00     8.4374999999959199E-01     0.0000000000000000E+00 
    1.0000000000000000E+00     8.7499999999967359E-01     0.0000000000000000E+00 
    1.0000000000000000E+00     9.0624999999975520E-01     0.0000000000000000E+00 
    1.0000000000000000E+00     9.3749999999983680E-01     0.0000000000000000E+00 
    1.0000000000000000E+00     9.6874999999991840E-01     0.0000000000000000E+00 
    9.6875000000003686E-01     1.0000000000000000E+00     0.0000000000000000E+00 
    9.3750000000011691E-01     1.0000000000000000E+00     0.0000000000000000E+00 
    9.0625000000015765E-01     1.0000000000000000E+00     0.0000000000000000E+00 
    8.7500000000017863E-01     1.0000000000000000E+00     0.0000000000000000E+00 
    8.4375000000028044E-01     1.0000000000000000E+00     0.0000000000000000E+00 
    8.1250000000040856E-01     1.0000000000000000E+00     0.0000000000000000E+00 
    7.8125000000054956E-01     1.0000000000000000E+00     0.0000000000000000E+00 
    7.5000000000066480E-01     1.0000000000000000E+00     0.0000000000000000E+00 
    7.1875000000086831E-01     1.0000000000000000E+00     0.0000000000000000E+00 
    6.8750000000102829E-01     1.0000000000000000E+00     0.0000000000000000E+00 
    6.5625000000114431E-01     1.0000000000000000E+00     0.0000000000000000E+00 
    6.2500000000129829E-01     1.0000000000000000E+00     0.0000000000000000E+00 
    5.9375000000147926E-01     1.0000000000000000E+00     0.0000000000000000E+00 
    5.6250000000168354E-01     1.0000000000000000E+00     0.0000000000000000E+00 
    5.3125000000188671E-01     1.0000000000000000E+00     0.0000000000000000E+00 
    5.0000000000205835E-01     1.0000000000000000E+00     0.0000000000000000E+00 
    4.6875000000192979E-01     1.0000000000000000E+00     0.0000000000000000E+00 
    4.3750000000180111E-01     1.0000000000000000E+00     0.0000000000000000E+00 
    4.0625000000167238E-01     1.0000000000000000E+00     0.0000000000000000E+00 
    3.7500000000154382E-01     1.0000000000000000E+00     0.0000000000000000E+00 
    3.4375000000141509E-01     1.0000000000000000E+00     0.0000000000000000E+00 
    3.1250000000128642E-01     1.0000000000000000E+00     0.0000000000000000E+00 
    2.8125000000115769E-01     1.0000000000000000E+00     0.0000000000000000E+00 
    2.5000000000102918E-01     1.0000000000000000E+00     0.0000000000000000E+00 
    2.1875000000090050E-01     1.0000000000000000E+00     0.0000000000000000E+00 
    1.8750000000077180E-01     1.0000000000000000E+00     0.0000000000000000E+00 
    1.5625000000064329E-01     1.0000000000000000E+00     0.0000000000000000E+00 
    1.2500000000051459E-01     1.0000000000000000E+00     0.0000000000000000E+00 
    9.3750000000385914E-02     1.0000000000000000E+00     0.0000000000000000E+00 
    6.2500000000257239E-02     1.0000000000000000E+00     0.0000000000000000E+00 
    3.1250000000128557E-02     1.0000000000000000E+00     0.0000000000000000E+00 
    0.0000000000000000E+00     9.6875000000003686E-01     0.0000000000000000E+00 
    0.0000000000000000E+00     9.3750000000011691E-01     0.0000000000000000E+00 
    0.0000000000000000E+00     9.0625000000015765E-01     0.0000000000000000E+00 
    0.0000000000000000E+00     8.7500000000017863E-01     0.0000000000000000E+00 
    0.0000000000000000E+00     8.4375000000028044E-01     0.0000000000000000E+00 
    0.0000000000000000E+00     8.1250000000040856E-01     0.0000000000000000E+00 
    0.0000000000000000E+00     7.8125000000054956E-01     0.0000000000000000E+00 
    0.0000000000000000E+00     7.5000000000066480E-01     0.0000000000000000E+00 
    0.0000000000000000E+00     7.1875000000086831E-01     0.0000000000000000E+00 
    0.0000000000000000E+00     6.8750000000102829E-01     0.0000000000000000E+00 
    0.0000000000000000E+00     6.5625000000114431E-01     0.0000000000000000E+00 
    0.0000000000000000E+00     6.2500000000129829E-01     0.0000000000000000E+00 
    0.0000000000000000E+00     5.9375000000147926E-01     0.0000000000000000E+00 
    0.0000000000000000E+00     5.6250000000168354E-01     0.0000000000000000E+00 
    0.0000000000000000E+00     5.3125000000188671E-01     0.0000000000000000E+00 
    0.0000000000000000E+00     5.0000000000205835E-01     0.0000000000000000E+00 
    0.0000000000000000E+00     4.6875000000192979E-01     0.0000000000000000E+00 
    0.0000000000000000E+00     4.3750000000180111E-01     0.0000000000000000E+00 
    0.0000000000000000E+00     4.0625000000167238E-01     0.0000000000000000E+00 
[...]
CELL_DATA 2795 
SCALARS Pressure double 1 
LOOKUP_TABLE default 

    5.7445977314456336E+00 
    1.2756917293892348E+01 
    8.9974541758978397E+00 
    8.6370200346690229E+00 
    6.9738415526095503E+00 
    1.2634719205548489E+01 
    1.3293216845756266E+01 
    5.1574388134989482E+00 
    9.5221417583795347E+00 
    7.2391844986082745E+00 
    6.1538256688653172E+00 
    1.2407055841101391E+01 
    1.2684452059564679E+01 
    1.2607467770258125E+01 
    8.2683150065828865E+00 
    5.0711918249835906E+00 
    7.9908641137221306E+00 
    6.5581619761389378E+00 
    1.2084718130702342E+01 
    8.9880391492982206E+00 
    8.8788354266656846E+00 
    1.2548676859179995E+01 
    8.4062086777643881E+00 
    3.3515747761994913E-01 
    1.2419230684250580E+01 
    1.2646092564471962E+01 
    1.3322537708802040E+01 
    5.9106726816813966E+00 
    1.2336073328444352E+01 
    1.3312101640636572E+01 
    9.0656492488689846E+00 
    9.2230498959566205E+00 
    6.3377160851552414E+00 
    8.9577095017011565E+00 
    2.9486630857311438E+00 
    7.9920378034013870E+00 
    8.9476742601859200E+00 
    1.3348369352861717E+01 
    1.3272993515422126E+01 
    1.2418829543000971E+01 
    6.9187660889370317E+00 
    1.2388356024533337E+01 
    7.0204971772670399E-01 
    8.8633501185108958E+00 
    1.3129970991286362E+01 
    1.2960502834876261E+01 
    1.2397427501569126E+01 
    9.8366944024392957E+00 
    1.2461584712113611E+01 
    8.1655578766964449E+00 
    7.8012765631174599E+00 
    9.1907580209485342E+00 
    8.7541981858776197E+00 
    8.0380434634487923E+00 
    9.1343858966095599E+00 
    1.1898474046184923E+01 
    1.0731484652157887E+01 
    7.0095038602416730E+00 
    1.2552672317263553E+01 
    1.2485082653580662E+01 
    8.6626664939205806E+00 
    8.6390060702167464E+00 
    8.5524083227664462E+00 
    1.3223760571968221E+01 
    1.3475827952891201E+01 
    8.0021201923710663E+00 
    9.1887381709197715E+00 
    1.2321550833084725E+01 
    1.0542278643944424E+01 
    8.6726050551860663E+00 
    1.3468835410694728E+01 
    1.2513675478607965E+01 
    7.8943927563270426E+00 
    1.3044275499914670E+01 
    9.3535155999289543E+00 
    1.2279823070722195E+01 
    1.3364462238465350E+01 
    9.3262904641443996E+00 
    5.8088016631038997E+00 
    9.2061193247531463E+00 
    1.3280350322783772E+01 
    1.3490693784471127E+01 
    8.0131204426619167E+00 
    9.1159693143022515E+00 
    1.3532594798312255E+01 
    8.9513993523682238E+00 
    8.4801059936087935E+00 
    1.0910092425409720E+01 
    5.5785832477353896E+00 
    7.8241480673078438E+00 
    9.1159835029563041E+00 
    9.6498784350922051E+00 
    1.4893510560955484E+01 
    6.7869230314717557E+00 
    9.1962076004981252E+00 
    1.2378008993779892E+01 
    1.2640589224255482E+01 
    6.0175242006221410E+00 
    8.8240797477010293E+00 
    9.1463854154528832E+00 
    1.2658904690849175E+01 
    9.1532947316581019E+00 
    1.2597304213571187E+01 
    3.6644752941894976E+00 
    5.9800523195641526E+00 
    9.4005451686914050E+00 
    1.2763293509409964E+01 
    7.9615294782163994E+00 
    8.4770255994122916E+00 
    9.1393436389654230E+00 
    8.4554016641297256E+00 
    1.0391143359261862E+01 
    8.2515555896609669E+00 
    7.8998731792173409E+00 
    6.3118975101286710E+00 
    1.0672186905588292E+01 
    9.2247996854535383E+00 
    1.3146433389695330E+01 
    7.8809235634933792E+00 
    8.6245411673296051E+00 
    1.2499992527169104E+01 
    7.2828696815480738E+00 
    1.2908887089082381E+01 
    9.0326629094166471E+00 
    8.5616042344555350E+00 
    1.2642089190500363E+01 
    9.2184403268802253E+00 
    1.3370326726319558E+01 
    1.0921998491855456E+01 
    1.1763411775374269E+01 
    1.3337952361391560E+01 
    6.7994997657341658E+00 
    9.4192017163893418E+00 
    1.2635681660473640E+01 
    2.7372666406614679E+00 
    9.1136893236591430E+00 
    1.3307406033910661E+01 
    8.5897814134308526E+00 
    9.9093290099429474E+00 
    5.9613848394359312E+00 
    1.2377436531327504E+01 
    1.5355237650242209E+01 
    1.1335843252706812E+01 
    8.5856551423182719E+00 
    7.7367675948476791E+00 
    9.7336808059205566E+00 
    9.0508383573046647E+00 
    6.2166926409219245E+00 
    1.3332434276144550E+01 
    1.2720864509702350E+01 
    1.2379622988094322E+01 
    9.6550811717869056E+00 
    7.8742918139502756E+00 
    8.8775970135838449E+00 
    1.3066670849101181E+01 
    8.0733778073388187E+00 
    9.0040034592767828E+00 
    8.2080190127952424E+00 
    1.0446008211932408E+01 
    1.5344061264006820E+01 
    1.2371763532679358E+01 
    7.8402218417279403E+00 
    1.2815013045655402E+01 
    1.2726911444988659E+01 
    1.2798900752387722E+01 
    1.3714324243486651E+01 
    1.4217527742467134E+01 
    1.2953658102293881E+01 
    9.1806732180419406E+00 
    9.7993639434495030E+00 
    1.2794952136338683E+01 
    1.3157939363023379E+01 
    6.4773981030078680E+00 
    1.2396874403132962E+01 
    1.3030633328900132E+01 
    6.3186105645901103E+00 
    1.3635140989243229E+01 
    1.3621505402961279E+01 
    1.2146486680794528E+01 
    9.4778380517117409E+00 
    2.4364076619146697E+00 
    1.3306316591547153E+01 
    9.3497740982062059E+00 
    1.3423275049014331E+01 
    8.5325878466191210E+00 
    1.3156392589283625E+01 
    8.6136284238469374E-01 
    1.1777640055569128E+01 
    8.6803777331079299E+00 
    7.8402532171708010E+00 
    7.6518792216952445E+00 
    9.0013381201538820E+00 
    1.0069120879202954E+01 
    9.3488209358079306E+00 
    6.3770254273886238E+00 
    1.3151409551925763E+01 
    1.2655032047696190E+01 
    1.0653274681081808E+01 
    9.3940082525744728E+00 
    1.3892273161037214E+00 
    7.0969045692597632E+00 
    4.9780970850974153E+00 
    1.3323836133761251E+01 
    1.0203544132673045E+01 
    1.2700778342576138E+01 
    1.2716834443127498E+01 
    8.1520828683198232E+00 
    1.0720635992185606E+01 
    1.2374966928158308E+01 
    1.3607955497192096E+01 
    5.9510479844260971E+00 
    1.1176982888754084E+01 
    9.3939955877664438E+00 
    5.3172006213975553E+00 
    8.1325461052467105E+00 
    1.1192986959199942E+01 
    1.2680863394542866E+01 
    9.0588185727128803E+00 
    1.2780052795379707E+01 
    1.2569938802538433E+01 
    1.2523490249561897E+01 
    8.8844223356868017E+00 
    7.7887577181837209E+00 
    1.2387284747084838E+01 
    7.8910263158625709E+00 
    9.1559558135779682E+00 
    7.7484544935102315E+00 
    8.9478873605072469E+00 
    1.2726246194789841E+01 
    5.6400147610547631E+00 
    8.0600291843199283E+00 
    1.3246329486258817E+01 
    8.8986658422020728E+00 
    1.0103813992856516E+01 
    5.7874459724881566E+00 
    7.9393374288591705E+00 
    1.2550873468116837E+01 
    1.2830139619909508E+01 
    4.7392659539489621E+00 
    8.9015557248935000E+00 
    7.7871028838916887E+00 
    1.3999269012228558E+01 
    1.3499782642381351E+01 
    1.4241808870203785E+01 
    8.9225829381983939E+00 
    1.2699885561668129E+01 
    1.2336435962980058E+01 
    8.8006461086108043E+00 
    1.2379712632301761E+01 
    9.3958489685229374E+00 
    5.3519365710398867E+00 
    9.1531404311225728E+00 
    1.3234560618214722E+01 
    1.2376800789548632E+01 
    6.1187169620345427E+00 
    1.2403140349120489E+01 
    1.0081929242419319E+01 
    9.0972178559461874E+00 
    8.6613415883023297E+00 
    1.2257770963352497E+01 
    9.5805613039019111E+00 
    1.2391785512599132E+01 
    8.8049903173801276E+00 
    5.4831581262329028E+00 
    9.2253624350442216E+00 
    7.6583234620860736E+00 
    1.1339861493071670E+01 
    1.3415843518138209E+01 
    1.2386177649976879E+01 
    1.3300806331225346E+01 
    8.8484623018948536E+00 
    5.9688123008174934E+00 
    6.0509165159436149E+00 
    9.2689380426580019E+00 
    9.1327636006250383E+00 
    1.3366093865865651E+00 
    1.1942245373492721E+01 
    1.3744624187411066E+01 
    8.5408005049399964E+00 
    5.6087296246010281E+00 
    1.0397878376606084E+01 
    1.2401782795929204E+01 
    6.5882760843131898E+00 
    4.4937114205501469E+00 
    9.1035834049814603E+00 
    1.2485795807770865E+01 
    1.3066255970048328E+01 
    1.2963464772469596E+01 
    1.2831770039983713E+01 
    6.4445216019630767E+00 
    9.0884729767324579E+00 
    1.1977289754356647E+01 
    7.1061031720970886E+00 
    1.2672680381496015E+01 
    1.0932813665819705E+01 
    6.1355530187819376E+00 
    1.2499293446707176E+01 
    1.3328172122237307E+01 
    1.2526672797943498E+01 
    6.3600711135928512E+00 
    9.1849441718239770E+00 
    6.9532931207487740E+00 
    8.6521998160846323E+00 
    1.2394196323831169E+01 
    1.2383709419079510E+01 
    6.3954554478520915E+00 
    1.3191777114741139E+01 
    9.6822007573453082E+00 
    1.2417915353232443E+01 
    1.3172904117543839E+01 
    1.2404738783479665E+01 
    1.1554663942756415E+01 
    1.4047846038311649E+01 
    8.5124096803827083E+00 
    1.3272998998752366E+01 
    1.2444154518873349E+01 
    1.3339301230463906E+01 
    1.3185163538274775E+01 
    8.5967447597563460E+00 
    8.9899177077455033E+00 
    8.5314893122008026E+00 
    1.1114041565236553E+01 
    3.6744350263759338E+00 
    9.2098341918157356E+00 
    1.4166109768058719E+01 
    9.3966996261057183E+00 
    9.5685883676111079E+00 
    1.3314190778061604E+01 
    1.3532117036026191E+01 
    8.4776468791015791E+00 
    1.2406972605392900E+01 
    1.2380780756790873E+01 
    9.5572101713609943E+00 
    1.3143367089895998E+01 
    6.4495015802304625E+00 
    4.1450076858916987E+00 
    9.8151782640147740E+00 
    9.4098794363407503E+00 
    1.2385348207557803E+01 
    6.0033973155560538E+00 
    1.2886024468006230E+01 
    4.2260063159428860E+00 
    9.3492712045448538E+00 
    8.6576806148886511E+00 
    9.1612620808391068E+00 
    1.5393052391131759E+01 
    3.5700924475365325E+00 
    9.1309508331298428E+00 
    1.0860388463143934E+01 
    8.7567974326927249E+00 
    7.0057761341587499E+00 
    1.2992268215533363E+01 
    1.4980548528705070E+01 
    1.3129352893448154E+01 
    9.0767359590109287E+00 
    5.3007820246550938E+00 
    1.4837778739289982E+01 
    1.2648298484056868E+01 
    6.6138051028366753E+00 
    8.7118673151527872E+00 
    1.3698716199710091E+01 
    3.0272090371859108E+00 
    9.4560156445349239E+00 
    1.3112438092163632E+01 
    9.1742995649017853E+00 
    7.9595853941963695E+00 
    9.1687995912767573E+00 
    1.2186057153912900E+01 
    9.1537889206322074E+00 
    4.7388844730211650E+00 
    8.4842705129833007E-01 
    6.7711309947028129E+00 
    1.3898245718467415E+01 
    8.5296629297671309E+00 
    1.0390935673135994E+01 
    9.8767273894827898E+00 
    1.1425569528784136E+01 
    9.1875184694200485E+00 
    1.2566816426599603E+01 
    1.5406662318457856E+01 
    1.0828585120612150E+01 
    1.3247559350281264E+01 
    4.9870273261000808E-01 
    1.2385412587633047E+01 
    5.1384123440769249E+00 
    1.4324645099343551E+01 
    9.1439228283874971E+00 
    8.0738892143995571E+00 
    7.0822909154768947E+00 
    4.9401475795664096E+00 
    1.0232035240408168E+01 
    7.1756591780414833E+00 
    1.1244912529607491E+01 
    2.0691654014752667E+00 
    1.0113518347664087E+01 
    1.2324846356417932E+01 
    5.4945977914178270E+00 
    1.2841492371181848E+01 
    1.4151352416676470E+01 
    1.2703516761385966E+01 
    9.0217301636457012E+00 
    9.1557685632291133E+00 
    9.1369521401573728E+00 
    5.3786456433147434E+00 
    8.2990727039617020E+00 
    8.1694276250688365E+00 
    9.1265831093977905E+00 
    8.4754759313835493E+00 
    6.3385673470877413E-01 
    5.8853597386210863E+00 
    8.8174124159234992E+00 
    9.1037986836485718E+00 
    1.1553188659095184E+01 
    1.9813937055052506E+00 
    9.5202922297389510E+00 
    9.4145272848792896E+00 
    3.4309398678356513E+00 
    1.2576068197903860E+01 
    7.9098293674663447E+00 
    9.2839182330171415E+00 
    1.2649991973567245E+01 
    4.9911458222013687E+00 
    1.2690854586370323E+01 
    7.9980775515225995E+00 
    9.0126098976221425E-01 
    8.5846950936176150E+00 
    1.3203627263485620E+01 
    1.2385811366359635E+01 
    1.2404562720110526E+01 
    9.4659692650564971E+00 
    9.3528551194780931E+00 
    7.8881138073941948E+00 
    6.3882860336629728E+00 
    1.2755667337243823E+01 
    8.7115674885496954E+00 
    6.1466561860763580E+00 
    1.2399204510155958E+01 
    1.3034461985473385E+01 
    9.2899596259006714E+00 
    8.9456749907239814E+00 
    1.5292980173860897E+01 
    9.5580134447182505E+00 
    1.2763383852030955E+01 
    7.5229608906745398E+00 
    1.5434656591128002E+01 
    6.0152677854259506E+00 
    8.2547019776738786E+00 
    6.7280220428587816E+00 
    9.7689383435040167E+00 
    7.7314269236106066E+00 
    1.5418774411667467E+01 
    9.6018815056830356E+00 
    1.2123542893183089E+01 
    6.1847546669891695E+00 
    9.1855226502740308E+00 
    1.2615895871751061E+01 
    7.7515498182621663E+00 
    6.6637848902643277E+00 
    1.0091124872195394E+01 
    1.2818007802439586E+01 
    6.6405150448293284E+00 
    8.6745738263819696E+00 
    8.9732946579432724E+00 
    1.2363477477992500E+01 
    8.7825166747450965E+00 
    1.2796414838598782E+01 
    1.3366081673317053E+01 
    7.9109471673205398E+00 
    7.7655689028915207E+00 
    7.2165919529591518E+00 
    1.2495352463356308E+01 
    9.4321207939811842E+00 
    1.5016131752747478E+01 
    1.1773872795044372E+01 
    1.2581097356400365E+01 
    1.4718808678612595E+01 
    1.4154281909969178E+01 
    9.2306996487250181E+00 
    9.1127037524533794E+00 
    1.2173389096271084E+01 
    1.2419309532519014E+01 
    1.2917969078206960E+01 
    1.2669294344118448E+01 
    1.5311338512687549E+01 
    9.5575878775862648E+00 
    7.9972248176356535E+00 
    9.5486470033385107E+00 
    1.3286034485035630E+01 
    9.3236324343139554E+00 
    5.3881442177382368E+00 
    9.0071767441089445E+00 
    1.3671894170221313E+01 
    9.4473545769469300E+00 
    8.0005611228331066E+00 
    8.9129657447141835E+00 
    1.3771651035811335E+01 
    1.2436265418445856E+01 
    7.6325926621237086E+00 
    1.3900111895232099E+01 
    9.2605882985373995E+00 
    1.2892845127775832E+01 
    1.3785050289736503E+01 
    9.6962753492521809E+00 
    4.9867715737950800E+00 
    1.0076088520900443E+01 
    5.1569850031634168E+00 
    9.3679896488695391E+00 
    9.1736411563583626E+00 
    1.0595665598079631E+01 
    5.4440863349711597E+00 
    1.1246596114816114E+01 
    9.1972401256669816E+00 
    1.2658968244772852E+01 
    9.6480226639261542E+00 
    7.4490752743674484E+00 
    8.7942119127572536E+00 
    9.6115120154370430E+00 
    9.6529886487484919E+00 
    1.3417213629554290E+01 
    7.6684171652107711E+00 
    7.5428660343330129E+00 
    5.7110884801328972E+00 
    1.2936275172362850E+01 
    8.8330203433079504E+00 
    1.2253084400218137E+01 
    9.1446118283147477E+00 
    6.2185232965357056E+00 
    1.2467059622459532E+01 
    9.1168760604587966E+00 
    6.7513378585711958E+00 
    7.1308570352465388E+00 
    7.3689158216237693E+00 
    1.2690207850269411E+01 
    9.1284271231968592E+00 
    1.3257541254308599E+01 
    9.0712430797793289E+00 
    9.0066424105036322E+00 
    8.5998169434812706E+00 
    1.2541876693539066E+01 
    8.9228654063170509E+00 
    7.4049060237970847E+00 
    1.4141235246276093E+01 
    1.2616554768029822E+01 
    6.2998919379012834E+00 
    2.5075572578151215E+00 
    9.1183231108890368E+00 
    8.5449001528373891E+00 
    7.7637093603567324E+00 
    8.4261692112340416E+00 
    1.2567864244890528E+01 
    8.8545751764144036E+00 
    8.0489963226606775E+00 
    1.2439287262371961E+01 
    6.2445081537777725E+00 
    1.2137693266220877E+01 
    8.2541857943094126E+00 
    7.3560521209295606E+00 
    7.8306608910900497E+00 
    1.2970104321285383E+01 
    9.1644506358670661E+00 
    9.1729033049801512E+00 
    5.5259138129302565E+00 
    5.9470693857176871E+00 
    1.1558197805804481E+01 
    9.1828508650881151E+00 
    9.1560785305375934E+00 
    1.3884178497448969E+01 
    7.5400017852506709E+00 
    9.1948889611632314E+00 
    6.4623497645009138E+00 
    6.6725361149216749E+00 
    1.2539693064197776E+01 
    8.8147731553710145E+00 
    6.5209251051966524E+00 
    9.6602050560796915E+00 
    9.0532315635888452E+00 
    1.2541047550989710E+01 
    1.3971444331346099E+01 
    9.6481222573028547E-01 
    9.1228579125444504E+00 
    9.4083136028673966E+00 
    1.2596516223091838E+01 
    8.6490284064808840E+00 
    9.1373247742530488E+00 
    1.3471628212166513E+01 
    7.8575745656203537E+00 
    6.5751373924384575E+00 
    1.1087657832425885E+01 
    1.2398254003818874E+01 
    1.3339602748566618E+01 
    1.3582817997062829E+01 
    8.9777665608938957E+00 
    9.1153870771209373E+00 
    1.0291830687643406E+01 
    5.9877712330426576E+00 
    1.2512275227235714E+01 
    7.0579659151083289E+00 
    6.2347168206267378E+00 
    1.1485460176102801E+01 
    1.0790871079769060E+01 
    6.1141026972797441E+00 
    1.2431653153102900E+01 
    1.3325781175755363E+01 
    9.5720142787731337E+00 
    1.4066091663653175E+01 
    1.2460785259796204E+01 
    8.7242160978312349E+00 
    1.3081571012630576E+01 
    6.6731894183954328E+00 
    1.2414318313488403E+01 
    9.1220556417927305E+00 
    9.0844287605581791E+00 
    1.4042684912667161E+01 
    8.8638475929830793E+00 
    1.1213645276711755E+01 
    7.8137459481328229E+00 
    1.3433976593714972E+01 
    1.2330469608232823E+01 
    8.1323044324716527E+00 
    1.2377005042356952E+01 
    8.2493364591400002E+00 
    9.1487306701047313E+00 
    1.3288329541761021E+01 
    1.2669103191454262E+01 
    1.3328956484190366E+01 
    1.2600298748317476E+01 
    8.3075884296477991E+00 
    8.5117223470168266E+00 
    1.3334853014378172E+01 
    8.6206163933239797E+00 
    1.2268797577417940E+01 
    8.8546082373218535E+00 
    3.7074323500296567E+00 
    6.2981300612003981E+00 
    5.8376955921176075E+00 
    1.3291280186902670E+01 
    1.3976650129709681E+01 
    1.2393514864084301E+01 
    1.0596388781813115E+01 
    1.2654395875490966E+01 
    1.2436583191415385E+01 
    1.2969029322314260E+01 
    5.3418498862823087E+00 
    3.4513113407829077E+00 
    1.0403536001182188E+01 
    8.7963197081458802E+00 
    1.2569442871489114E+01 
    1.2567290439052337E+01 
    9.4261205626816729E+00 
    1.2600728108545646E+01 
    9.1102135146926067E+00 
    9.0185128605820086E+00 
    4.8229173818474100E+00 
    3.4369489099161910E+00 
    1.3767895852387282E+01 
    7.0922903601598231E+00 
    8.0729649287447298E+00 
    9.3303635333744097E+00 
    1.5293624393104659E+01 
    9.4171090624719387E+00 
    9.4093192288386938E+00 
    3.8897248126758361E+00 
    9.4182126806549356E+00 
    9.4309317929268079E+00 
    1.2866295960698567E+01 
    7.8379394660770592E+00 
    8.7316486227390655E+00 
    1.3925288126792170E+01 
    9.1305404120796609E+00 
    1.2408098418924070E+01 
    1.2653460496675034E+01 
    1.1296011204135484E+01 
    7.7184504345650407E+00 
    1.2600809411291173E+01 
    8.9330756779863094E+00 
    1.2591647543325573E+01 
    1.2351122275028306E+01 
    1.3309180534979932E+01 
    1.2595649321009844E+01 
    1.1818010160453804E+01 
    9.1203476606287150E+00 
    6.0666771275925235E+00 
    1.5172264963368775E+01 
    7.1972823226752345E+00 
    1.3238979294247844E+01 
    9.1178935862256125E+00 
    7.5888887034413406E+00 
    4.5174389086449427E+00 
    9.4628499622753015E+00 
    1.2587493578782727E+01 
    1.2586264556672869E+01 
    9.1288145204610807E+00 
    9.1123618987140240E+00 
    1.4120832069120556E+01 
    1.3530023261043183E+01 
    9.4341978045232562E+00 
    3.2108728782491838E+00 
    1.1795034174474129E+01 
    1.5417229559081782E+01 
    9.1234983133427381E+00 
    1.0938281327158924E+01 
    8.6457143349679253E+00 
    1.5037342336210870E+01 
    1.3604632840782639E+01 
    1.3376348729724706E+01 
    9.4540729075050134E+00 
    4.2363816565733856E+00 
    8.6080238098197963E+00 
    8.6692148943907483E+00 
    8.7133697435103521E+00 
    3.4914352408887428E+00 