# vtk DataFile Version 2.0
Pressure Field Data 
ASCII 
DATASET UNSTRUCTURED_GRID 

POINTS 2860 double 

    0.0000000000000000E+00     0.0000000000000000E+00     0.0000000000000000E+00 
    1.0000000000000000E+00     0.0000000000000000E+00     0.0000000000000000E+00 
    1.0000000000000000E+00     1.0000000000000000E+00     0.0000000000000000E+00 
    0.0000000000000000E+00     1.0000000000000000E+00     0.0000000000000000E+00 
    2.5000000000000000E-01     2.5000000000000000E-01     0.0000000000000000E+00 
    7.5000000000000000E-01     2.5000000000000000E-01     0.0000000000000000E+00 
    7.5000000000000000E-01     7.5000000000000000E-01     0.0000000000000000E+00 
    2.5000000000000000E-01     7.5000000000000000E-01     0.0000000000000000E+00 
    3.1249999999942091E-02     0.0000000000000000E+00     0.0000000000000000E+00 
    6.2499999999873469E-02     0.0000000000000000E+00     0.0000000000000000E+00 
    9.3749999999826514E-02     0.0000000000000000E+00     0.0000000000000000E+00 
    1.2499999999977961E-01     0.0000000000000000E+00     0.0000000000000000E+00 
    1.5624999999968961E-01     0.0000000000000000E+00     0.0000000000000000E+00 
    1.8749999999959971E-01     0.0000000000000000E+00     0.0000000000000000E+00 
    2.1874999999950970E-01     0.0000000000000000E+00     0.0000000000000000E+00 
    2.4999999999941969E-01     0.0000000000000000E+00     0.0000000000000000E+00 
    2.8124999999932920E-01     0.0000000000000000E+00     0.0000000000000000E+00 
    3.1249999999923850E-01     0.0000000000000000E+00     0.0000000000000000E+00 
    3.4374999999914790E-01     0.0000000000000000E+00     0.0000000000000000E+00 
    3.7499999999905720E-01     0.0000000000000000E+00     0.0000000000000000E+00 
    4.0624999999896660E-01     0.0000000000000000E+00     0.0000000000000000E+00 
    4.3749999999887590E-01     0.0000000000000000E+00     0.0000000000000000E+00 
    4.6874999999878530E-01     0.0000000000000000E+00     0.0000000000000000E+00 
    4.9999999999869471E-01     0.0000000000000000E+00     0.0000000000000000E+00 
    5.3124999999877620E-01     0.0000000000000000E+00     0.0000000000000000E+00 
    5.6249999999885780E-01     0.0000000000000000E+00     0.0000000000000000E+00 
    5.9374999999893940E-01     0.0000000000000000E+00     0.0000000000000000E+00 
    6.2499999999902101E-01     0.0000000000000000E+00     0.0000000000000000E+00 
    6.5624999999910261E-01     0.0000000000000000E+00     0.0000000000000000E+00 
    6.8749999999918421E-01     0.0000000000000000E+00     0.0000000000000000E+00 
    7.1874999999926570E-01     0.0000000000000000E+00     0.0000000000000000E+00 
    7.4999999999934730E-01     0.0000000000000000E+00     0.0000000000000000E+00 
    7.8124999999942890E-01     0.0000000000000000E+00     0.0000000000000000E+00 
    8.1249999999951039E-01     0.0000000000000000E+00     0.0000000000000000E+00 
    8.4374999999959199E-01     0.0000000000000000E+00     0.0000000000000000E+00 
    8.7499999999967359E-01     0.0000000000000000E+00     0.0000000000000000E+00 
    9.0624999999975520E-01     0.0000000000000000E+00     0.0000000000000000E+00 
    9.3749999999983680E-01     0.0000000000000000E+00     0.0000000000000000E+00 
    9.6874999999991840E-01     0.0000000000000000E+00     0.0000000000000000E+00 
    1.0000000000000000E+00     3.1249999999942091E-02     0.0000000000000000E+00 
    1.0000000000000000E+00     6.2499999999873469E-02     0.0000000000000000E+00 
    1.0000000000000000E+00     9.3749999999826514E-02     0.0000000000000000E+00 
    1.0000000000000000E+00     1.2499999999977961E-01     0.0000000000000000E+00 
    1.0000000000000000E+00     1.5624999999968961E-01     0.0000000000000000E+00 
    1.0000000000000000E+00     1.8749999999959971E-01     0.0000000000000000E+00 
    1.0000000000000000E+00     2.1874999999950970E-01     0.0000000000000000E+00 
    1.0000000000000000E+00     2.4999999999941969E-01     0.0000000000000000E+00 
    1.0000000000000000E+00     2.8124999999932920E-01     0.0000000000000000E+00 
    1.0000000000000000E+00     3.1249999999923850E-01     0.0000000000000000E+00 
    1.0000000000000000E+00     3.4374999999914790E-01     0.0000000000000000E+00 
    1.0000000000000000E+00     3.7499999999905720E-01     0.0000000000000000E+00 
    1.0000000000000000E+00     4.0624999999896660E-01     0.0000000000000000E+00 
    1.0000000000000000E+00     4.3749999999887590E-01     0.0000000000000000E+00 
    1.0000000000000000E+00     4.6874999999878530E-01     0.0000000000000000E+00 
    1.0000000000000000E+00     4.9999999999869471E-01     0.0000000000000000E+00 
    1.0000000000000000E+00     5.3124999999877620E-01     0.0000000000000000E+00 
    1.0000000000000000E+00     5.6249999999885780E-01     0.0000000000000000E+00 
    1.0000000000000000E+00     5.9374999999893940E-01     0.0000000000000000E+00 
    1.0000000000000000E+00     6.2499999999902101E-01     0.0000000000000000E+00 
    1.0000000000000000E+00     6.5624999999910261E-01     0.0000000000000000E+00 
    1.0000000000000000E+00     6.8749999999918421E-01     0.0000000000000000E+00 
    1.0000000000000000E+00     7.1874999999926570E-01     0.0000000000000000E+00 
    1.0000000000000000E+00     7.4999999999934730E-01     0.0000000000000000E+00 
    1.0000000000000000E+00     7.8124999999942890E-01     0.0000000000000000E+00 
    1.0000000000000000E+00     8.1249999999951039E-01     0.0000000000000000E+00 
    1.0000000000000000E+00     8.4374999999959199E-01     0.0000000000000000E+00 
    1.0000000000000000E+00     8.7499999999967359E-01     0.0000000000000000E+00 
    1.0000000000000000E+00     9.0624999999975520E-01     0.0000000000000000E+00 
    1.0000000000000000E+00     9.3749999999983680E-01     0.0000000000000000E+00 
    1.0000000000000000E+00     9.6874999999991840E-01     0.0000000000000000E+00 
    9.6875000000003686E-01     1.0000000000000000E+00     0.0000000000000000E+00 
    9.3750000000011691E-01     1.0000000000000000E+00     0.0000000000000000E+00 
    9.0625000000015765E-01     1.0000000000000000E+00     0.0000000000000000E+00 
    8.7500000000017863E-01     1.0000000000000000E+00     0.0000000000000000E+00 
    8.4375000000028044E-01     1.0000000000000000E+00     0.0000000000000000E+00 
    8.1250000000040856E-01     1.0000000000000000E+00     0.0000000000000000E+00 
    7.8125000000054956E-01     1.0000000000000000E+00     0.0000000000000000E+00 
    7.5000000000066480E-01     1.0000000000000000E+00     0.0000000000000000E+00 
    7.1875000000086831E-01     1.0000000000000000E+00     0.0000000000000000E+00 
    6.8750000000102829E-01     1.0000000000000000E+00     0.0000000000000000E+00 
    6.5625000000114431E-01     1.0000000000000000E+00     0.0000000000000000E+00 
    6.2500000000129829E-01     1.0000000000000000E+00     0.0000000000000000E+00 
    5.9375000000147926E-01     1.0000000000000000E+00     0.0000000000000000E+00 
    5.6250000000168354E-01     1.0000000000000000E+00     0.0000000000000000E+00 
    5.3125000000188671E-01     1.0000000000000000E+00     0.0000000000000000E+00 
    5.0000000000205835E-01     1.0000000000000000E+00     0.0000000000000000E+00 
    4.6875000000192979E-01     1.0000000000000000E+00     0.0000000000000000E+00 
    4.3750000000180111E-01     1.0000000000000000E+00     0.0000000000000000E+00 
    4.0625000000167238E-01     1.0000000000000000E+00     0.0000000000000000E+00 
    3.7500000000154382E-01     1.0000000000000000E+00     0.0000000000000000E+00 
    3.4375000000141509E-01     1.0000000000000000E+00     0.0000000000000000E+00 
    3.1250000000128642E-01     1.0000000000000000E+00     0.0000000000000000E+00 
    2.8125000000115769E-01     1.0000000000000000E+00     0.0000000000000000E+00 
    2.5000000000102918E-01     1.0000000000000000E+00     0.0000000000000000E+00 
    2.1875000000090050E-01     1.0000000000000000E+00     0.0000000000000000E+00 
    1.8750000000077180E-01     1.0000000000000000E+00     0.0000000000000000E+00 
    1.5625000000064329E-01     1.0000000000000000E+00     0.0000000000000000E+00 
    1.2500000000051459E-01     1.0000000000000000E+00     0.0000000000000000E+00 
    9.3750000000385914E-02     1.0000000000000000E+00     0.0000000000000000E+00 
    6.2500000000257239E-02     1.0000000000000000E+00     0.0000000000000000E+00 
    3.1250000000128557E-02     1.0000000000000000E+00     0.0000000000000000E+00 
    0.0000000000000000E+00     9.6875000000003686E-01     0.0000000000000000E+00 
    0.0000000000000000E+00     9.3750000000011691E-01     0.0000000000000000E+00 
    0.0000000000000000E+00     9.0625000000015765E-01     0.0000000000000000E+00 
    0.0000000000000000E+00     8.7500000000017863E-01     0.0000000000000000E+00 
    0.0000000000000000E+00     8.4375000000028044E-01     0.0000000000000000E+00 
    0.0000000000000000E+00     8.1250000000040856E-01     0.0000000000000000E+00 
    0.0000000000000000E+00     7.8125000000054956E-01     0.0000000000000000E+00 
    0.0000000000000000E+00     7.5000000000066480E-01     0.0000000000000000E+00 
    0.0000000000000000E+00     7.1875000000086831E-01     0.0000000000000000E+00 
    0.0000000000000000E+00     6.8750000000102829E-01     0.0000000000000000E+00 
    0.0000000000000000E+00     6.5625000000114431E-01     0.0000000000000000E+00 
    0.0000000000000000E+00     6.2500000000129829E-01     0.0000000000000000E+00 
    0.0000000000000000E+00     5.9375000000147926E-01     0.0000000000000000E+00 
    0.0000000000000000E+00     5.6250000000168354E-01     0.0000000000000000E+00 
    0.0000000000000000E+00     5.3125000000188671E-01     0.0000000000000000E+00 
    0.0000000000000000E+00     5.0000000000205835E-01     0.0000000000000000E+00 
    0.0000000000000000E+00     4.6875000000192979E-01     0.0000000000000000E+00 
    0.0000000000000000E+00     4.3750000000180111E-01     0.0000000000000000E+00 
    0.0000000000000000E+00     4.0625000000167238E-01     0.0000000000000000E+00 
[...]
CELL_DATA 2795 
SCALARS Pressure double 1 
LOOKUP_TABLE default 

    5.6134459984022627E+00 
    1.2502652836749597E+01 
    8.8211117500031406E+00 
    8.4534901206325372E+00 
    6.8183960414261486E+00 
    1.2384008662702675E+01 
    1.3031510588457074E+01 
    5.0375329854509827E+00 
    9.3357768216614065E+00 
    7.1010633787059430E+00 
    6.0357091410628092E+00 
    1.2160605939951338E+01 
    1.2429961417928190E+01 
    1.2357190739209567E+01 
    8.1046994789271363E+00 
    4.9532091328770038E+00 
    7.8158954960848819E+00 
    6.4326323084890111E+00 
    1.1844561277874213E+01 
    8.8147578970540277E+00 
    8.7022397771499751E+00 
    1.2299514424971745E+01 
    8.2255500429432615E+00 
    3.2815834143443284E-01 
    1.2169520270332896E+01 
    1.2393552390651141E+01 
    1.3060510088145215E+01 
    5.8010821061062279E+00 
    1.2090893358955489E+01 
    1.3050448741811397E+01 
    8.8850249435069770E+00 
    9.0533424924310442E+00 
    6.2281913093006303E+00 
    8.7810176535129418E+00 
    2.8862437678638755E+00 
    7.8170718816914153E+00 
    8.7709918158012616E+00 
    1.3086317817532835E+01 
    1.3011715197451549E+01 
    1.2172184609023232E+01 
    6.7620242766311662E+00 
    1.2140057326067929E+01 
    6.8769801128549646E-01 
    8.6772925678662265E+00 
    1.2868063450025383E+01 
    1.2700544185835371E+01 
    1.2151126544695579E+01 
    9.6491373208151536E+00 
    1.2214098185637186E+01 
    7.9877467153167032E+00 
    7.6290913861279677E+00 
    9.0196955342359963E+00 
    8.5685546222953342E+00 
    7.8619869683451675E+00 
    8.9543130742492831E+00 
    1.1661935521524217E+01 
    1.0529169495568233E+01 
    6.8532321753024696E+00 
    1.2303419549001044E+01 
    1.2237122784167299E+01 
    8.4839208415202734E+00 
    8.4683172721130902E+00 
    8.3698782906214220E+00 
    1.2963260933056894E+01 
    1.3209426413517907E+01 
    7.8268279574580397E+00 
    9.0177124062980099E+00 
    1.2076430052776939E+01 
    1.0337392968710931E+01 
    8.5005220627166871E+00 
    1.3205137299776052E+01 
    1.2262927498249251E+01 
    7.7204107807854667E+00 
    1.2783634253541972E+01 
    9.1738821889712305E+00 
    1.2033124432217194E+01 
    1.3101863105628714E+01 
    9.1310317270135180E+00 
    5.6703836803523933E+00 
    9.0346286759222174E+00 
    1.3018848871034326E+01 
    1.3226940886168270E+01 
    7.8383096634648144E+00 
    8.9450382568183020E+00 
    1.3268025642484067E+01 
    8.7757929243097514E+00 
    8.2982764738824084E+00 
    1.0696848461539286E+01 
    5.4476282442489206E+00 
    7.6514515594791863E+00 
    8.9468782644749698E+00 
    9.4603250220175603E+00 
    1.4618594006869875E+01 
    6.6352392881161784E+00 
    9.0250001306129537E+00 
    1.2132029484090628E+01 
    1.2387017804065598E+01 
    5.8803603409421790E+00 
    8.6486243538764960E+00 
    8.9746277420156844E+00 
    1.2404987624408268E+01 
    8.9837661650098202E+00 
    1.2344621118120820E+01 
    3.5815979869290078E+00 
    5.8652158114975403E+00 
    9.2244285967299540E+00 
    1.2508994790403975E+01 
    7.7867950268849970E+00 
    8.3008423638597613E+00 
    8.9693154338916461E+00 
    8.2735583320653223E+00 
    1.0199316555695766E+01 
    8.0774287587481943E+00 
    7.7260966155850506E+00 
    6.1645136391974393E+00 
    1.0454243506810061E+01 
    9.0550346266466004E+00 
    1.2886901353306678E+01 
    7.7317833270365064E+00 
    8.4416456612613970E+00 
    1.2249723696101229E+01 
    7.1199788090438405E+00 
    1.2651545388447385E+01 
    8.8607691962540507E+00 
    8.3790045514965730E+00 
    1.2388576392975915E+01 
    9.0465730456853173E+00 
    1.3107684454783769E+01 
    1.0707969298825564E+01 
    1.1530321400241219E+01 
    1.3075719538815020E+01 
    6.6475791939883013E+00 
    9.2417969087898406E+00 
    1.2383158543440045E+01 
    2.6762286728160198E+00 
    8.9335142811850083E+00 
    1.3045618705988291E+01 
    8.4072901147647308E+00 
    9.7041088020304720E+00 
    5.8211545581492556E+00 
    1.2131715184633290E+01 
    1.5078583357784918E+01 
    1.1112984912589898E+01 
    8.4027174641482105E+00 
    7.5657980699133924E+00 
    9.5594688162300923E+00 
    8.8776552713909069E+00 
    6.0991014996843216E+00 
    1.3070231350725185E+01 
    1.2469910322100828E+01 
    1.2133625122447862E+01 
    9.4698003730912905E+00 
    7.7009056515725645E+00 
    8.7011575593844341E+00 
    1.2806257392614416E+01 
    7.8971131239112218E+00 
    8.8144827555552627E+00 
    8.0299252928120755E+00 
    1.0232550524407232E+01 
    1.5067459754530228E+01 
    1.2125893472310008E+01 
    7.6630876986697523E+00 
    1.2558642934694838E+01 
    1.2473130499013889E+01 
    1.2544066688215937E+01 
    1.3447789287785959E+01 
    1.3946742365467681E+01 
    1.2693797941126601E+01 
    9.0099307025569129E+00 
    9.5961594995630097E+00 
    1.2537942660753249E+01 
    1.2898027469951014E+01 
    6.3561308517413107E+00 
    1.2150561288151295E+01 
    1.2770868293679106E+01 
    6.1988409801868025E+00 
    1.3368061194211293E+01 
    1.3356119745740623E+01 
    1.1905268828414346E+01 
    9.2988796641240103E+00 
    2.3866421159907980E+00 
    1.3044431748695468E+01 
    9.1739060963174630E+00 
    1.3159542030902530E+01 
    8.3508716887991365E+00 
    1.2895313266164495E+01 
    8.4276413264122574E-01 
    1.1545015789621212E+01 
    8.5092803377407407E+00 
    7.6673355263761929E+00 
    7.4823659921469572E+00 
    8.8310632914935461E+00 
    9.8860112124491071E+00 
    9.1533509824823760E+00 
    6.2255249031963524E+00 
    1.2891833874714500E+01 
    1.2402283860858677E+01 
    1.0446632598406289E+01 
    9.2174745471552360E+00 
    1.3593639774197790E+00 
    6.9388492598460463E+00 
    4.8599789805200047E+00 
    1.3062073648010593E+01 
    1.0031808218061336E+01 
    1.2446384769600007E+01 
    1.2463059923973708E+01 
    7.9760254017506815E+00 
    1.0515518646240482E+01 
    1.2129073511637062E+01 
    1.3342466247085804E+01 
    5.8129382732786956E+00 
    1.0949845538828832E+01 
    9.1998006451822079E+00 
    5.1921132671402122E+00 
    7.9553380427999389E+00 
    1.0963313290963903E+01 
    1.2427689527436767E+01 
    8.8926217181663727E+00 
    1.2525416080058374E+01 
    1.2318517271152208E+01 
    1.2272860098845541E+01 
    8.7081186658402761E+00 
    7.6202290038915361E+00 
    1.2141252795603691E+01 
    7.7175121091149457E+00 
    8.9859433712052521E+00 
    7.5770833627181524E+00 
    8.7589036577752744E+00 
    1.2472234809428690E+01 
    5.5314859770176401E+00 
    7.8842715081682284E+00 
    1.2985341701489238E+01 
    8.7228877938874021E+00 
    9.9291796828275629E+00 
    5.6761205602249580E+00 
    7.7648132563703367E+00 
    1.2299756010509908E+01 
    1.2574775460861655E+01 
    4.6475429785057472E+00 
    8.7248947670134012E+00 
    7.6148708972032200E+00 
    1.3730016355319254E+01 
    1.3235753632319458E+01 
    1.3970703933033068E+01 
    8.7458708443604003E+00 
    1.2446405130712986E+01 
    1.2091403167327229E+01 
    8.6258009240773159E+00 
    1.2133702782769117E+01 
    9.2186329353659904E+00 
    5.2241892335126821E+00 
    8.9696828817476586E+00 
    1.2973804942865369E+01 
    1.2130840423407967E+01 
    6.0034425626423502E+00 
    1.2156723137997428E+01 
    9.8956369986610593E+00 
    8.9172483081713043E+00 
    8.4791940125495273E+00 
    1.2014088767742859E+01 
    9.4057431063619301E+00 
    1.2145643014001900E+01 
    8.6208399938300531E+00 
    5.3500976393755115E+00 
    9.0532387915472263E+00 
    7.4888086755822068E+00 
    1.1116166491988180E+01 
    1.3152610633594193E+01 
    1.2140292643522731E+01 
    1.3039051698134340E+01 
    8.6732965045902706E+00 
    5.8538171702694131E+00 
    5.9347026700649517E+00 
    9.0890471831591420E+00 
    8.9634143226821266E+00 
    1.3074056097858491E+00 
    1.1705590459377445E+01 
    1.3476408781981439E+01 
    8.3585287362469245E+00 
    5.4779823691404816E+00 
    1.0183999358729190E+01 
    1.2155382754271436E+01 
    6.4399235542531104E+00 
    4.3908523996934239E+00 
    8.9362023587089148E+00 
    1.2242743203709932E+01 
    1.2807741292075761E+01 
    1.2705022186257599E+01 
    1.2576497913359919E+01 
    6.2964592302611031E+00 
    8.9081245415098635E+00 
    1.1736324732495689E+01 
    6.9707176945042866E+00 
    1.2418422651359958E+01 
    1.0713256197634195E+01 
    6.0177978004722341E+00 
    1.2250968755375689E+01 
    1.3064569306792601E+01 
    1.2275096635061971E+01 
    6.2169130475112580E+00 
    9.0140422182188544E+00 
    6.7981938359881182E+00 
    8.4900587978126243E+00 
    1.2147933951486484E+01 
    1.2137630923741520E+01 
    6.2516189893316536E+00 
    1.2930638908143964E+01 
    9.5019927395014552E+00 
    1.2172702640645021E+01 
    1.2912136610124110E+01 
    1.2159156765029044E+01 
    1.1327716162988951E+01 
    1.3777924931359944E+01 
    8.3318839955686244E+00 
    1.3011724859901756E+01 
    1.2199959137130120E+01 
    1.3077016306870998E+01 
    1.2924273788029689E+01 
    8.4152143302350186E+00 
    8.8141107229901170E+00 
    8.3491384532664181E+00 
    1.0896915406040504E+01 
    3.5912810827229267E+00 
    9.0299464434864305E+00 
    1.3895401442678994E+01 
    9.2207155400769256E+00 
    9.3900448838720649E+00 
    1.3052206366357559E+01 
    1.3267791269095436E+01 
    8.3016796487744227E+00 
    1.2160477413283299E+01 
    1.2134778975810619E+01 
    9.3788339384669204E+00 
    1.2883208768127611E+01 
    6.3266476139541927E+00 
    4.0644125402820865E+00 
    9.6330164133797940E+00 
    9.2334771344254118E+00 
    1.2139272853283325E+01 
    5.8668825618686418E+00 
    1.2629429506374739E+01 
    4.1431211376797528E+00 
    9.1743756206371518E+00 
    8.4803702339957869E+00 
    8.9913776798269485E+00 
    1.5116431169652266E+01 
    3.4894796225437528E+00 
    8.9508819238476995E+00 
    1.0639688827490344E+01 
    8.5828275035418464E+00 
    6.8438804749449274E+00 
    1.2735517929609337E+01 
    1.4705079236274864E+01 
    1.2868721262121131E+01 
    8.8968807546898052E+00 
    5.1770539074701700E+00 
    1.4563466264336828E+01 
    1.2395544393955555E+01 
    6.4522913858393833E+00 
    8.5268861998794598E+00 
    1.3432457122430826E+01 
    2.9595850881740851E+00 
    9.2791117325712076E+00 
    1.2851861082884128E+01 
    9.0037759589618727E+00 
    7.8092762560144351E+00 
    8.9887993671329074E+00 
    1.1940287251809909E+01 
    8.9842672481614816E+00 
    4.6290463336222709E+00 
    8.2944792597864414E-01 
    6.6405816743134309E+00 
    1.3629627803232816E+01 
    8.3473106184400550E+00 
    1.0213798392966734E+01 
    9.7087711244782557E+00 
    1.1190457413572808E+01 
    9.0169582993635355E+00 
    1.2315386242495192E+01 
    1.5130005146307333E+01 
    1.0616218187656251E+01 
    1.2986685512212752E+01 
    4.8823493978896737E-01 
    1.2139303613436601E+01 
    5.0122672188747757E+00 
    1.4052998374828244E+01 
    8.9638791870444994E+00 
    7.9160167507783274E+00 
    6.9245394825867015E+00 
    4.8247721425681265E+00 
    1.0035063149248479E+01 
    7.0366276021009924E+00 
    1.1022879825790929E+01 
    2.0270270032709612E+00 
    9.9269747434959008E+00 
    1.2079987203921913E+01 
    5.3888687429964692E+00 
    1.2583583597837420E+01 
    1.3881368554844517E+01 
    1.2456463957136899E+01 
    8.8421674381800184E+00 
    8.9858843731649660E+00 
    8.9568895692339350E+00 
    5.2544450641019633E+00 
    8.1199585073675227E+00 
    7.9919693852648752E+00 
    8.9465100121145245E+00 
    8.2939508344864628E+00 
    6.2009967169643698E-01 
    5.7432057199003825E+00 
    8.6305967974871223E+00 
    8.9238083614486641E+00 
    1.1324986414076227E+01 
    1.9379810825455306E+00 
    9.3424537779665844E+00 
    9.2382321668771841E+00 
    3.3537072936041685E+00 
    1.2332730536324586E+01 
    7.7370567439952618E+00 
    9.1105891971017829E+00 
    1.2396915308999056E+01 
    4.8750888601284474E+00 
    1.2439024961274303E+01 
    7.8227331630786585E+00 
    8.8223134262902436E-01 
    8.4019151725167394E+00 
    1.2942835421492958E+01 
    1.2139716209083831E+01 
    1.2158667881506521E+01 
    9.2867630985759035E+00 
    9.1777493835152022E+00 
    7.7145915495358608E+00 
    6.2348273917240959E+00 
    1.2500033041397119E+01 
    8.5267243406976707E+00 
    5.9969212391558022E+00 
    1.2153079781771206E+01 
    1.2774062299319064E+01 
    9.1103532547579533E+00 
    8.7704645051637069E+00 
    1.5016802994537732E+01 
    9.3796245443687241E+00 
    1.2508608981088125E+01 
    7.3558676109692147E+00 
    1.5158008405382658E+01 
    5.8997694411497212E+00 
    8.0807814074242810E+00 
    6.6004450383891111E+00 
    9.5874503592218421E+00 
    7.5803173584599834E+00 
    1.5142157830871364E+01 
    9.4228492868160121E+00 
    1.1879108993523394E+01 
    6.0665933156972143E+00 
    9.0145815846116388E+00 
    1.2363724858763597E+01 
    7.5992883487999476E+00 
    6.5073072811006796E+00 
    9.8836150408305201E+00 
    1.2564028036471404E+01 
    6.5135926791584762E+00 
    8.4969194247635738E+00 
    8.7973397572566476E+00 
    1.2117749779464718E+01 
    8.6085636911105148E+00 
    1.2541663064333394E+01 
    1.3103463448885712E+01 
    7.7371066163522633E+00 
    7.5940913353037898E+00 
    7.0793493338616686E+00 
    1.2246449505135471E+01 
    9.2512894303693667E+00 
    1.4740622566674643E+01 
    1.1549119113988134E+01 
    1.2329435996479303E+01 
    1.4445151149888646E+01 
    1.3884418147745288E+01 
    9.0604585303080896E+00 
    8.9326666146562221E+00 
    1.1932005688745413E+01 
    1.2172587076811881E+01 
    1.2659508891297184E+01 
    1.2416079243911943E+01 
    1.5034833176905289E+01 
    9.3792054179802982E+00 
    7.8220825041561621E+00 
    9.3623729984115887E+00 
    1.3024510790051897E+01 
    9.1489212903370571E+00 
    5.2813582666756513E+00 
    8.8276754613246649E+00 
    1.3405374602783052E+01 
    9.2705791364502588E+00 
    7.8249631819777345E+00 
    8.7360109521744267E+00 
    1.3504362420692152E+01 
    1.2187158825998367E+01 
    7.4623050667120552E+00 
    1.3631699047522661E+01 
    9.0888418553791599E+00 
    1.2636542011198015E+01 
    1.3517735120131142E+01 
    9.5016520301330480E+00 
    4.8701055318686128E+00 
    9.8685436187776023E+00 
    5.0365818716251791E+00 
    9.1922281728250557E+00 
    9.0030151520206125E+00 
    1.0377737358485527E+01 
    5.3177438814359554E+00 
    1.1016826550527325E+01 
    9.0266112639059894E+00 
    1.2406001291980761E+01 
    9.4482665862875237E+00 
    7.2757448037093901E+00 
    8.6193967316128219E+00 
    9.4340237739539745E+00 
    9.4732201350224337E+00 
    1.3152818303129331E+01 
    7.4984534951468467E+00 
    7.3753830027755169E+00 
    5.5791351195714380E+00 
    1.2677943668571141E+01 
    8.6574665469798351E+00 
    1.2007063098223856E+01 
    8.9755650981185084E+00 
    6.0761075480028470E+00 
    1.2217299308015072E+01 
    8.9497514489934975E+00 
    6.5987064248794747E+00 
    6.9712940551367861E+00 
    7.2049270457598684E+00 
    1.2436462842034315E+01 
    8.9483522058544640E+00 
    1.2996400269767273E+01 
    8.9040932026604338E+00 
    8.8344081392485325E+00 
    8.4222892313671345E+00 
    1.2290835575020525E+01 
    8.7484246943051485E+00 
    7.2402771549274076E+00 
    1.3871367953151566E+01 
    1.2364181010239978E+01 
    6.1796379241349131E+00 
    2.4518920484371791E+00 
    8.9382144438320825E+00 
    8.3756911812184960E+00 
    7.5921389849273435E+00 
    8.2499941120510183E+00 
    1.2318334278074012E+01 
    8.6755641906768908E+00 
    7.8750371569873288E+00 
    1.2192204390605147E+01 
    6.1246989287227667E+00 
    1.1896906292761972E+01 
    8.0931085323133480E+00 
    7.1892603667795951E+00 
    7.6580136208503440E+00 
    1.2712698819033921E+01 
    8.9943924836933515E+00 
    9.0024083428521866E+00 
    5.3989059125151480E+00 
    5.8119206585448344E+00 
    1.1322106110766679E+01 
    9.0120323927476029E+00 
    8.9760196405731367E+00 
    1.3615775147440505E+01 
    7.3727290749003718E+00 
    9.0236443023417632E+00 
    6.3383070563259345E+00 
    6.5441046166984522E+00 
    1.2288218056195275E+01 
    8.6413958321213649E+00 
    6.3744297490347943E+00 
    9.4734434905701974E+00 
    8.8792479944221316E+00 
    1.2289751578666522E+01 
    1.3702368697121198E+01 
    9.4540284277077558E-01 
    8.9427464362597764E+00 
    9.2319925056845769E+00 
    1.2344571172582977E+01 
    8.4659356024096546E+00 
    8.9673378673399018E+00 
    1.3205039794117383E+01 
    7.6843730148481981E+00 
    6.4273386074058081E+00 
    1.0884669602406211E+01 
    1.2151973761101047E+01 
    1.3077417378543908E+01 
    1.3317954847591707E+01 
    8.7978601089871180E+00 
    8.9353273694422466E+00 
    1.0094585775492332E+01 
    5.8730372760760989E+00 
    1.2263799860628898E+01 
    6.9008021948253058E+00 
    6.1154739587033120E+00 
    1.1263546722625868E+01 
    1.0581895512295393E+01 
    5.9972388389138294E+00 
    1.2184792941330432E+01 
    1.3063724647903937E+01 
    9.3934204152038117E+00 
    1.3796225544863045E+01 
    1.2213158511038277E+01 
    8.5431721781712575E+00 
    1.2822625666848268E+01 
    6.5453177426629967E+00 
    1.2167685262126184E+01 
    8.9419653168111406E+00 
    8.9041171060353435E+00 
    1.3772853042405050E+01 
    8.6874990944813621E+00 
    1.0995579473114617E+01 
    7.6414986800558982E+00 
    1.3170528518258612E+01 
    1.2085441426004767E+01 
    7.9552283304362321E+00 
    1.2131206021711071E+01 
    8.0859597225093403E+00 
    8.9785978279679988E+00 
    1.3026820811325306E+01 
    1.2414990116387187E+01 
    1.3066879083986848E+01 
    1.2348260804734045E+01 
    8.1277470847732882E+00 
    8.3323637492883851E+00 
    1.3072646257618276E+01 
    8.4402868563651321E+00 
    1.2025350277081735E+01 
    8.6788222411652196E+00 
    3.6225979292055990E+00 
    6.1773960078288193E+00 
    5.7255821188101175E+00 
    1.3029697926657848E+01 
    1.3707489018131517E+01 
    1.2147543973331395E+01 
    1.0405762697141915E+01 
    1.2402504225318868E+01 
    1.2189534865780614E+01 
    1.2712693694579379E+01 
    5.2181731706820829E+00 
    3.3733778703203119E+00 
    1.0216217107345960E+01 
    8.6127155732562830E+00 
    1.2319896915784605E+01 
    1.2317781796740483E+01 
    9.2488646361841269E+00 
    1.2350607200220306E+01 
    8.9301673958227283E+00 
    8.8387052361534302E+00 
    4.7112925232337792E+00 
    3.3596306258115991E+00 
    1.3500813326888009E+01 
    6.9550771611314959E+00 
    7.8966470070301682E+00 
    9.1558436980243645E+00 
    1.5017337777959828E+01 
    9.2406964188055749E+00 
    9.2313316161670809E+00 
    3.8013872619738076E+00 
    9.2415682502321932E+00 
    9.2539158890677431E+00 
    1.2607836797020955E+01 
    7.6654990078723646E+00 
    8.5618121769998705E+00 
    1.3656632040442107E+01 
    8.9504251336721801E+00 
    1.2161981263267400E+01 
    1.2399270266676472E+01 
    1.1097336372342392E+01 
    7.5663712288384630E+00 
    1.2348712391929187E+01 
    8.7518838018179270E+00 
    1.2345140711615096E+01 
    1.2105624751127873E+01 
    1.3047342047761166E+01 
    1.2343764256315733E+01 
    1.1585264501728723E+01 
    8.9402665842167739E+00 
    5.9502182615632115E+00 
    1.4896373263299166E+01 
    7.0371116002060967E+00 
    1.2978348148011047E+01 
    8.9378054223462762E+00 
    7.4216479304661540E+00 
    4.4211934849268060E+00 
    9.2850574952425244E+00 
    1.2335689182336790E+01 
    1.2334282460060731E+01 
    8.9585099089573301E+00 
    8.9322559002754680E+00 
    1.3850621597998765E+01 
    1.3265721613573561E+01 
    9.2575795649032369E+00 
    3.1387053953007440E+00 
    1.1564349594562112E+01 
    1.5140693881062253E+01 
    8.9434275835578472E+00 
    1.0745760173185461E+01 
    8.4623357406698432E+00 
    1.4762110489177827E+01 
    1.3339343148240824E+01 
    1.3111435350966717E+01 
    9.2770279151084569E+00 
    4.1476897281065384E+00 
    8.4248795789573059E+00 
    8.4859973541177478E+00 
    8.5309256082473599E+00 
    3.4132461571943336E+00 