# vtk DataFile Version 2.0
Pressure Field Data 
ASCII 
DATASET UNSTRUCTURED_GRID 

POINTS 2860 double 

    0.0000000000000000E+00     0.0000000000000000E+00     0.0000000000000000E+00 
    1.0000000000000000E+00     0.0000000000000000E+00     0.0000000000000000E+00 
    1.0000000000000000E+00     1.0000000000000000E+00     0.0000000000000000E+00 
    0.0000000000000000E+00     1.0000000000000000E+00     0.0000000000000000E+00 
    2.5000000000000000E-01     2.5000000000000000E-01     0.0000000000000000E+00 
    7.5000000000000000E-01     2.5000000000000000E-01     0.0000000000000000E+00 
    7.5000000000000000E-01     7.5000000000000000E-01     0.0000000000000000E+00 
    2.5000000000000000E-01     7.5000000000000000E-01     0.0000000000000000E+00 
    3.1249999999942091E-02     0.0000000000000000E+00     0.0000000000000000E+00 
    6.2499999999873469E-02     0.0000000000000000E+00     0.0000000000000000E+00 
    9.3749999999826514E-02     0.0000000000000000E+00     0.0000000000000000E+00 
    1.2499999999977961E-01     0.0000000000000000E+00     0.0000000000000000E+00 
    1.5624999999968961E-01     0.0000000000000000E+00     0.0000000000000000E+00 
    1.8749999999959971E-01     0.0000000000000000E+00     0.0000000000000000E+00 
    2.1874999999950970E-01     0.0000000000000000E+00     0.0000000000000000E+00 
    2.4999999999941969E-01     0.0000000000000000E+00     0.0000000000000000E+00 
    2.8124999999932920E-01     0.0000000000000000E+00     0.0000000000000000E+00 
    3.1249999999923850E-01     0.0000000000000000E+00     0.0000000000000000E+00 
    3.4374999999914790E-01     0.0000000000000000E+00     0.0000000000000000E+00 
    3.7499999999905720E-01     0.0000000000000000E+00     0.0000000000000000E+00 
    4.0624999999896660E-01     0.0000000000000000E+00     0.0000000000000000E+00 
    4.3749999999887590E-01     0.0000000000000000E+00     0.0000000000000000E+00 
    4.6874999999878530E-01     0.0000000000000000E+00     0.0000000000000000E+00 
    4.9999999999869471E-01     0.0000000000000000E+00     0.0000000000000000E+00 
    5.3124999999877620E-01     0.0000000000000000E+00     0.0000000000000000E+00 
    5.6249999999885780E-01     0.0000000000000000E+00     0.0000000000000000E+00 
    5.9374999999893940E-01     0.0000000000000000E+00     0.0000000000000000E+00 
    6.2499999999902101E-01     0.0000000000000000E+00     0.0000000000000000E+00 
    6.5624999999910261E-01     0.0000000000000000E+00     0.0000000000000000E+00 
    6.8749999999918421E-01     0.0000000000000000E+00     0.0000000000000000E+00 
    7.1874999999926570E-01     0.0000000000000000E+00     0.0000000000000000E+00 
    7.4999999999934730E-01     0.0000000000000000E+00     0.0000000000000000E+00 
    7.8124999999942890E-01     0.0000000000000000E+00     0.0000000000000000E+00 
    8.1249999999951039E-01     0.0000000000000000E+00     0.0000000000000000E+00 
    8.4374999999959199E-01     0.0000000000000000E+00     0.0000000000000000E+00 
    8.7499999999967359E-01     0.0000000000000000E+00     0.0000000000000000E+00 
    9.0624999999975520E-01     0.0000000000000000E+00     0.0000000000000000E+00 
    9.3749999999983680E-01     0.0000000000000000E+00     0.0000000000000000E+00 
    9.6874999999991840E-01     0.0000000000000000E+00     0.0000000000000000E+00 
    1.0000000000000000E+00     3.1249999999942091E-02     0.0000000000000000E+00 
    1.0000000000000000E+00     6.2499999999873469E-02     0.0000000000000000E+00 
    1.0000000000000000E+00     9.3749999999826514E-02     0.0000000000000000E+00 
    1.0000000000000000E+00     1.2499999999977961E-01     0.0000000000000000E+00 
    1.0000000000000000E+00     1.5624999999968961E-01     0.0000000000000000E+00 
    1.0000000000000000E+00     1.8749999999959971E-01     0.0000000000000000E+00 
    1.0000000000000000E+00     2.1874999999950970E-01     0.0000000000000000E+00 
    1.0000000000000000E+00     2.4999999999941969E-01     0.0000000000000000E+00 
    1.0000000000000000E+00     2.8124999999932920E-01     0.0000000000000000E+00 
    1.0000000000000000E+00     3.1249999999923850E-01     0.0000000000000000E+00 
    1.0000000000000000E+00     3.4374999999914790E-01     0.0000000000000000E+00 
    1.0000000000000000E+00     3.7499999999905720E-01     0.0000000000000000E+00 
    1.0000000000000000E+00     4.0624999999896660E-01     0.0000000000000000E+00 
    1.0000000000000000E+00     4.3749999999887590E-01     0.0000000000000000E+00 
    1.0000000000000000E+00     4.6874999999878530E-01     0.0000000000000000E+00 
    1.0000000000000000E+00     4.9999999999869471E-01     0.0000000000000000E+00 
    1.0000000000000000E+00     5.3124999999877620E-01     0.0000000000000000E+00 
    1.0000000000000000E+00     5.6249999999885780E-01     0.0000000000000000E+00 
    1.0000000000000000E+00     5.9374999999893940E-01     0.0000000000000000E+00 
    1.0000000000000000E+00     6.2499999999902101E-01     0.0000000000000000E+00 
    1.0000000000000000E+00     6.5624999999910261E-01     0.0000000000000000E+00 
    1.0000000000000000E+00     6.8749999999918421E-01     0.0000000000000000E+00 
    1.0000000000000000E+00     7.1874999999926570E-01     0.0000000000000000E+00 
    1.0000000000000000E+00     7.4999999999934730E-01     0.0000000000000000E+00 
    1.0000000000000000E+00     7.8124999999942890E-01     0.0000000000000000E+00 
    1.0000000000000000E+00     8.1249999999951039E-01     0.0000000000000000E+00 
    1.0000000000000000E+00     8.4374999999959199E-01     0.0000000000000000E+00 
    1.0000000000000000E+00     8.7499999999967359E-01     0.0000000000000000E+00 
    1.0000000000000000E+00     9.0624999999975520E-01     0.0000000000000000E+00 
    1.0000000000000000E+00     9.3749999999983680E-01     0.0000000000000000E+00 
    1.0000000000000000E+00     9.6874999999991840E-01     0.0000000000000000E+00 
    9.6875000000003686E-01     1.0000000000000000E+00     0.0000000000000000E+00 
    9.3750000000011691E-01     1.0000000000000000E+00     0.0000000000000000E+00 
    9.0625000000015765E-01     1.0000000000000000E+00     0.0000000000000000E+00 
    8.7500000000017863E-01     1.0000000000000000E+00     0.0000000000000000E+00 
    8.4375000000028044E-01     1.0000000000000000E+00     0.0000000000000000E+00 
    8.1250000000040856E-01     1.0000000000000000E+00     0.0000000000000000E+00 
    7.8125000000054956E-01     1.0000000000000000E+00     0.0000000000000000E+00 
    7.5000000000066480E-01     1.0000000000000000E+00     0.0000000000000000E+00 
    7.1875000000086831E-01     1.0000000000000000E+00     0.0000000000000000E+00 
    6.8750000000102829E-01     1.0000000000000000E+00     0.0000000000000000E+00 
    6.5625000000114431E-01     1.0000000000000000E+00     0.0000000000000000E+00 
    6.2500000000129829E-01     1.0000000000000000E+00     0.0000000000000000E+00 
    5.9375000000147926E-01     1.0000000000000000E+00     0.0000000000000000E+00 
    5.6250000000168354E-01     1.0000000000000000E+00     0.0000000000000000E+00 
    5.3125000000188671E-01     1.0000000000000000E+00     0.0000000000000000E+00 
    5.0000000000205835E-01     1.0000000000000000E+00     0.0000000000000000E+00 
    4.6875000000192979E-01     1.0000000000000000E+00     0.0000000000000000E+00 
    4.3750000000180111E-01     1.0000000000000000E+00     0.0000000000000000E+00 
    4.0625000000167238E-01     1.0000000000000000E+00     0.0000000000000000E+00 
    3.7500000000154382E-01     1.0000000000000000E+00     0.0000000000000000E+00 
    3.4375000000141509E-01     1.0000000000000000E+00     0.0000000000000000E+00 
    3.1250000000128642E-01     1.0000000000000000E+00     0.0000000000000000E+00 
    2.8125000000115769E-01     1.0000000000000000E+00     0.0000000000000000E+00 
    2.5000000000102918E-01     1.0000000000000000E+00     0.0000000000000000E+00 
    2.1875000000090050E-01     1.0000000000000000E+00     0.0000000000000000E+00 
    1.8750000000077180E-01     1.0000000000000000E+00     0.0000000000000000E+00 
    1.5625000000064329E-01     1.0000000000000000E+00     0.0000000000000000E+00 
    1.2500000000051459E-01     1.0000000000000000E+00     0.0000000000000000E+00 
    9.3750000000385914E-02     1.0000000000000000E+00     0.0000000000000000E+00 
    6.2500000000257239E-02     1.0000000000000000E+00     0.0000000000000000E+00 
    3.1250000000128557E-02     1.0000000000000000E+00     0.0000000000000000E+00 
    0.0000000000000000E+00     9.6875000000003686E-01     0.0000000000000000E+00 
    0.0000000000000000E+00     9.3750000000011691E-01     0.0000000000000000E+00 
    0.0000000000000000E+00     9.0625000000015765E-01     0.0000000000000000E+00 
    0.0000000000000000E+00     8.7500000000017863E-01     0.0000000000000000E+00 
    0.0000000000000000E+00     8.4375000000028044E-01     0.0000000000000000E+00 
    0.0000000000000000E+00     8.1250000000040856E-01     0.0000000000000000E+00 
    0.0000000000000000E+00     7.8125000000054956E-01     0.0000000000000000E+00 
    0.0000000000000000E+00     7.5000000000066480E-01     0.0000000000000000E+00 
    0.0000000000000000E+00     7.1875000000086831E-01     0.0000000000000000E+00 
    0.0000000000000000E+00     6.8750000000102829E-01     0.0000000000000000E+00 
    0.0000000000000000E+00     6.5625000000114431E-01     0.0000000000000000E+00 
    0.0000000000000000E+00     6.2500000000129829E-01     0.0000000000000000E+00 
    0.0000000000000000E+00     5.9375000000147926E-01     0.0000000000000000E+00 
    0.0000000000000000E+00     5.6250000000168354E-01     0.0000000000000000E+00 
    0.0000000000000000E+00     5.3125000000188671E-01     0.0000000000000000E+00 
    0.0000000000000000E+00     5.0000000000205835E-01     0.0000000000000000E+00 
    0.0000000000000000E+00     4.6875000000192979E-01     0.0000000000000000E+00 
    0.0000000000000000E+00     4.3750000000180111E-01     0.0000000000000000E+00 
    0.0000000000000000E+00     4.0625000000167238E-01     0.0000000000000000E+00 
[...]
CELL_DATA 2795 
SCALARS Pressure double 1 
LOOKUP_TABLE default 

    5.8325882342837474E+00 
    1.2945796676238487E+01 
    9.1233291795071558E+00 
    8.7675854301394125E+00 
    7.0804688712552952E+00 
    1.2821210720576046E+01 
    1.3488396674683923E+01 
    5.2364719959788744E+00 
    9.6566760111084093E+00 
    7.3373203079934282E+00 
    6.2381220879630179E+00 
    1.2590220327665600E+01 
    1.2873272717326904E+01 
    1.2793599454006966E+01 
    8.3830161181076210E+00 
    5.1486335185255827E+00 
    8.1141200330954355E+00 
    6.6476440173523352E+00 
    1.2262847967697242E+01 
    9.1137317858602547E+00 
    9.0044322500895220E+00 
    1.2733946782674874E+01 
    8.5342832129673933E+00 
    3.3942050112982103E-01 
    1.2604023404798903E+01 
    1.2833488497787704E+01 
    1.3517988331674891E+01 
    5.9874083619625642E+00 
    1.2518234275728224E+01 
    1.3507189514652589E+01 
    9.1947003470409268E+00 
    9.3438363394475914E+00 
    6.4119377278145571E+00 
    9.0837292433838606E+00 
    2.9913335214049410E+00 
    8.1153390415678768E+00 
    9.0735623844965190E+00 
    1.3543779922300205E+01 
    1.3467857099133139E+01 
    1.2602118312539162E+01 
    7.0270912251050808E+00 
    1.2571966337959655E+01 
    7.1124987189391875E-01 
    8.9952220816736439E+00 
    1.3325036532538679E+01 
    1.3152505428818341E+01 
    1.2580483965262481E+01 
    9.9721138289219518E+00 
    1.2645498423485792E+01 
    8.2912849898784096E+00 
    7.9218164187923339E+00 
    9.3118822758199133E+00 
    8.8864296709534774E+00 
    8.1621634159156962E+00 
    9.2631947560478043E+00 
    1.2073683620044831E+01 
    1.0877262480540109E+01 
    7.1167411910949294E+00 
    1.2737995752327480E+01 
    1.2669416448018572E+01 
    8.7896744378065499E+00 
    8.7603088795076314E+00 
    8.6821115454993869E+00 
    1.3417909124882872E+01 
    1.3674613344926815E+01 
    8.1256329709443538E+00 
    9.3097113548182993E+00 
    1.2503353191905713E+01 
    1.0691994015276521E+01 
    8.7947662504267612E+00 
    1.3665653169007223E+01 
    1.2699392263280753E+01 
    8.0168049108622412E+00 
    1.3237851280056086E+01 
    9.4821777238769069E+00 
    1.2462684680186989E+01 
    1.3560312738353460E+01 
    9.4667816840304724E+00 
    5.9045169800721036E+00 
    9.3275738403425184E+00 
    1.3475370041627134E+01 
    1.3687488218178379E+01 
    8.1361968582600728E+00 
    9.2389924911252148E+00 
    1.3730072132661201E+01 
    9.0771593271747992E+00 
    8.6090550598605944E+00 
    1.1066595243657323E+01 
    5.6673661471568586E+00 
    7.9451484428127488E+00 
    9.2388135084806304E+00 
    9.7869182384108626E+00 
    1.5099455453599104E+01 
    6.8907322058481260E+00 
    9.3173767878461540E+00 
    1.2560823011418469E+01 
    1.2828609107240544E+01 
    6.1101642676996919E+00 
    8.9487547027334120E+00 
    9.2695302022706496E+00 
    1.2847201760532057E+01 
    9.2730018515558470E+00 
    1.2784609501123766E+01 
    3.7184887186197226E+00 
    6.0619485603560932E+00 
    9.5263443527008818E+00 
    1.2952235533027926E+01 
    8.0846765655586292E+00 
    8.6017518745009767E+00 
    9.2595829337436175E+00 
    8.5842336349807979E+00 
    1.0528475677082072E+01 
    8.3743211179065042E+00 
    8.0220229760855144E+00 
    6.4130724745896055E+00 
    1.0831101741777186E+01 
    9.3451859510811186E+00 
    1.3339770041671775E+01 
    7.9866095862228610E+00 
    8.7546224559074854E+00 
    1.2685336162722338E+01 
    7.3959652329377370E+00 
    1.3100218509949299E+01 
    9.1576332627550130E+00 
    8.6913667036843858E+00 
    1.2830066480222250E+01 
    9.3401837989319567E+00 
    1.3566246641754068E+01 
    1.1079132181876179E+01 
    1.1935872751818527E+01 
    1.3533567772397063E+01 
    6.9035024685209549E+00 
    9.5461341765451735E+00 
    1.2822979003054044E+01 
    2.7765316745371638E+00 
    9.2425300196010145E+00 
    1.3502669022318084E+01 
    8.7195123435741344E+00 
    1.0057928100295280E+01 
    6.0571507388704742E+00 
    1.2560075432004423E+01 
    1.5562603112916625E+01 
    1.1500078277236277E+01 
    8.7156998129503211E+00 
    7.8562370194248832E+00 
    9.8620179526729057E+00 
    9.1753662291009395E+00 
    6.3005026347930171E+00 
    1.3528009535374949E+01 
    1.2904434304434464E+01 
    1.2562455590693268E+01 
    9.7885615219608528E+00 
    7.9959992378167080E+00 
    9.0030618294329887E+00 
    1.3260274680128738E+01 
    8.1980572852922862E+00 
    9.1398085029516469E+00 
    8.3343341580490815E+00 
    1.0601165128562766E+01 
    1.5551383842622943E+01 
    1.2554476131244334E+01 
    7.9644704227374969E+00 
    1.3005397337423521E+01 
    1.2915392954155951E+01 
    1.2988291560157728E+01 
    1.3913389374807576E+01 
    1.4420074881714479E+01 
    1.3146272914056572E+01 
    9.3013756185316208E+00 
    9.9460969072503111E+00 
    1.2985350314648825E+01 
    1.3351612843317778E+01 
    6.5632951983570873E+00 
    1.2579934426594686E+01 
    1.3223805194707849E+01 
    6.4041571143885276E+00 
    1.3834541216108843E+01 
    1.3819634641159722E+01 
    1.2325472454380240E+01 
    9.6060498540799237E+00 
    2.4710962217307593E+00 
    1.3501630539469248E+01 
    9.4742926266954282E+00 
    1.3620030585722569E+01 
    8.6616804360886110E+00 
    1.3350855953846546E+01 
    8.7368474950495434E-01 
    1.1949716673798775E+01 
    8.8019855456732010E+00 
    7.9615292786696905E+00 
    7.7699778889831821E+00 
    9.1268129823035977E+00 
    1.0201980126891709E+01 
    9.4893713939897228E+00 
    6.4818663261824989E+00 
    1.3344805890516863E+01 
    1.2842572135578530E+01 
    1.0804397485385497E+01 
    9.5202225298623340E+00 
    1.4080779259728631E+00 
    7.2054565787306153E+00 
    5.0584706704421132E+00 
    1.3519008221748971E+01 
    1.0318104409931696E+01 
    1.2889702863146001E+01 
    1.2905219926546312E+01 
    8.2763525099121704E+00 
    1.0853490999144400E+01 
    1.2557694601598826E+01 
    1.3806165151165603E+01 
    6.0446969548865512E+00 
    1.1343239220783351E+01 
    9.5343738559601032E+00 
    5.4016492793024877E+00 
    8.2582741115718807E+00 
    1.1358345308459031E+01 
    1.2868762066232110E+01 
    9.1836185335942275E+00 
    1.2969237296917424E+01 
    1.2756311463851079E+01 
    1.2709178333859352E+01 
    9.0097676702734848E+00 
    7.9064088970981681E+00 
    1.2570162885087877E+01 
    8.0128960637084319E+00 
    9.2770715132164998E+00 
    7.8681461487044180E+00 
    9.0829420080789145E+00 
    1.2914801279080999E+01 
    5.7171941398483996E+00 
    8.1846220857286625E+00 
    1.3440890348455271E+01 
    9.0237210848392717E+00 
    1.0218292845777333E+01 
    5.8665158347719553E+00 
    8.0625220340785528E+00 
    1.2736980636597043E+01 
    1.3019950752022513E+01 
    4.8042735398733853E+00 
    9.0271490800408074E+00 
    7.9077355308351134E+00 
    1.4200559901770612E+01 
    1.3696807711334390E+01 
    1.4444610838715603E+01 
    9.0482063764168306E+00 
    1.2888039440157840E+01 
    1.2518476640367743E+01 
    8.9249015929481690E+00 
    1.2562541634925186E+01 
    9.5224996302068927E+00 
    5.4404203470565218E+00 
    9.2833981078979377E+00 
    1.3428900469225370E+01 
    1.2559587400701114E+01 
    6.2004750658270922E+00 
    1.2586284765057224E+01 
    1.0215742189157398E+01 
    9.2258810244986567E+00 
    8.7909145942165239E+00 
    1.2438731522408387E+01 
    9.7097606990210146E+00 
    1.2574724933258167E+01 
    8.9355848654136398E+00 
    5.5786775541907954E+00 
    9.3465538574303544E+00 
    7.7765866764352802E+00 
    1.1504772431627986E+01 
    1.3612250129046657E+01 
    1.2568957109452359E+01 
    1.3496036769033701E+01 
    8.9730160397240386E+00 
    6.0505018514294102E+00 
    6.1337662582709278E+00 
    9.3980846744625453E+00 
    9.2532779411363943E+00 
    1.3563916995464620E+00 
    1.2117566580998446E+01 
    1.3945032506363507E+01 
    8.6703089975311141E+00 
    5.6967499895363982E+00 
    1.0553262233327025E+01 
    1.2584908514285168E+01 
    6.6896377971922911E+00 
    4.5600109729732488E+00 
    9.2265730986784735E+00 
    1.2666903423627264E+01 
    1.3258743011690937E+01 
    1.3155600947060829E+01 
    1.3021546733398306E+01 
    6.5459861994504722E+00 
    9.2173907665167061E+00 
    1.2154918504001840E+01 
    7.2023538860576046E+00 
    1.2861279982818891E+01 
    1.1078577958857199E+01 
    6.2195721256255938E+00 
    1.2683861785090096E+01 
    1.3524606605951803E+01 
    1.2713053230293227E+01 
    6.4573784666170990E+00 
    9.3057942192079004E+00 
    7.0596565826934823E+00 
    8.7668831186294618E+00 
    1.2577219757509935E+01 
    1.2566590669905203E+01 
    6.4933097749818760E+00 
    1.3386280377955371E+01 
    9.8112661618022496E+00 
    1.2600281293886752E+01 
    1.3367199076716428E+01 
    1.2587404402200832E+01 
    1.1722170983183911E+01 
    1.4249661090760251E+01 
    8.6405662222480100E+00 
    1.3467857450513318E+01 
    1.2626431368784431E+01 
    1.3534957267083902E+01 
    1.3379482158821668E+01 
    8.7257656606382010E+00 
    9.1155087657835310E+00 
    8.6610352932704711E+00 
    1.1273613128011345E+01 
    3.7278422791416319E+00 
    9.3384622360412362E+00 
    1.4368583094720773E+01 
    9.5223974883708191E+00 
    9.6963100702852980E+00 
    1.3509595008195626E+01 
    1.3729431532726490E+01 
    8.6022047637667338E+00 
    1.2590175553258135E+01 
    1.2563625648292568E+01 
    9.6847961565960361E+00 
    1.3337102788936388E+01 
    6.5373799901472802E+00 
    4.2020130179274400E+00 
    9.9458152786947061E+00 
    9.5358281387294550E+00 
    1.2568218517552832E+01 
    6.0955723571347802E+00 
    1.3076952101082856E+01 
    4.2843731425370981E+00 
    9.4740546427848766E+00 
    8.7835708653647213E+00 
    9.2813156201578781E+00 
    1.5600391284131657E+01 
    3.6226071528474009E+00 
    9.2597413713619847E+00 
    1.1021465412978200E+01 
    8.8803854557239372E+00 
    7.1182278680422115E+00 
    1.3183524234097845E+01 
    1.5186941555899795E+01 
    1.3323540679646177E+01 
    9.2052772671153331E+00 
    5.3834195270333858E+00 
    1.5043219161935527E+01 
    1.2835784410264173E+01 
    6.7292577387226338E+00 
    8.8435120095316559E+00 
    1.3897559435003052E+01 
    3.0706859234011850E+00 
    9.5824265670726092E+00 
    1.3306497874075152E+01 
    9.2949394600165398E+00 
    8.0660940313168581E+00 
    9.2975841880125607E+00 
    1.2367638590539432E+01 
    9.2741230854527625E+00 
    4.8102047432208037E+00 
    8.6126724636168150E-01 
    6.8645964186547319E+00 
    1.4098982813381804E+01 
    8.6591386128376104E+00 
    1.0508718704141200E+01 
    1.0002149768859951E+01 
    1.1595153996258784E+01 
    9.3084907840277946E+00 
    1.2753179422504617E+01 
    1.5614030741326067E+01 
    1.0984345011570710E+01 
    1.3442102854367473E+01 
    5.0518559206454983E-01 
    1.2568314932192310E+01 
    5.2286685433841855E+00 
    1.4527891523203779E+01 
    9.2726980617435704E+00 
    8.1860972178278253E+00 
    7.1906263549655947E+00 
    5.0162139389150342E+00 
    1.0375284943929014E+01 
    7.2747749050426567E+00 
    1.1408468386002621E+01 
    2.0983942470106736E+00 
    1.0247724655423713E+01 
    1.2506748159138704E+01 
    5.5698634877786430E+00 
    1.3031741093795201E+01 
    1.4353269455641517E+01 
    1.2885074991631376E+01 
    9.1499554506232563E+00 
    9.2761612351268337E+00 
    9.2657486660855586E+00 
    5.4610460812893393E+00 
    8.4260618554840594E+00 
    8.2952010321077196E+00 
    9.2553727345959871E+00 
    8.6044130680494160E+00 
    6.4281178113628401E-01 
    5.9855378629513902E+00 
    8.9505955297173081E+00 
    9.2324886855921449E+00 
    1.1721725710683698E+01 
    2.0093134897166371E+00 
    9.6474485345687189E+00 
    9.5404586581650275E+00 
    3.4805679622383394E+00 
    1.2756040408477979E+01 
    8.0310377062065470E+00 
    9.4072350024877167E+00 
    1.2837623385483454E+01 
    5.0671316262991617E+00 
    1.2874803997847401E+01 
    8.1219224023811272E+00 
    9.1340756337134033E-01 
    8.7146264847673987E+00 
    1.3398006196159779E+01 
    1.2568703072899970E+01 
    1.2587456735859508E+01 
    9.5938044286112998E+00 
    9.4780407865576493E+00 
    8.0101798206672026E+00 
    6.4953333443967933E+00 
    1.2945470043879148E+01 
    8.8430946533490662E+00 
    6.2555500441843508E+00 
    1.2582156201460331E+01 
    1.3228037830787363E+01 
    9.4188345127753657E+00 
    9.0709829420810095E+00 
    1.5499954204183259E+01 
    9.6856108888262629E+00 
    1.2952552897813854E+01 
    7.6392816119085154E+00 
    1.5642017676061014E+01 
    6.0976097140511607E+00 
    8.3773091363724799E+00 
    6.8182563273455337E+00 
    9.8990398590865762E+00 
    7.8383845049719820E+00 
    1.5626109544665804E+01 
    9.7299980418962928E+00 
    1.2304427836783368E+01 
    6.2691990409293403E+00 
    9.3064613862263972E+00 
    1.2802909561110951E+01 
    7.8560197561880214E+00 
    6.7721776691769442E+00 
    1.0241632978022899E+01 
    1.3007081286557117E+01 
    6.7309291385530887E+00 
    8.8007583526622977E+00 
    9.0990185375608448E+00 
    1.2546075403350933E+01 
    8.9061736266392284E+00 
    1.2985756067419345E+01 
    1.3562001423446960E+01 
    8.0331506117993392E+00 
    7.8855661155394072E+00 
    7.3141125610168061E+00 
    1.2679962252904906E+01 
    9.5601029271467386E+00 
    1.5222560953672163E+01 
    1.1937854048411308E+01 
    1.2767656549974914E+01 
    1.4923711179905228E+01 
    1.4356111086918091E+01 
    9.3519577532230755E+00 
    9.2414445331487904E+00 
    1.2352502902252192E+01 
    1.2602678319805721E+01 
    1.3110123016872659E+01 
    1.2857132065648774E+01 
    1.5518582617164448E+01 
    9.6851798700244167E+00 
    8.1208811989091156E+00 
    9.6821567646360531E+00 
    1.3481084105478111E+01 
    9.4478297060737138E+00 
    5.4628885287380671E+00 
    9.1353306389414666E+00 
    1.3870922869870451E+01 
    9.5736595323006011E+00 
    8.1247425513331066E+00 
    9.0387329601021769E+00 
    1.3971322607945664E+01 
    1.2620599620592353E+01 
    7.7516727672989747E+00 
    1.4100714785464508E+01 
    9.3822754389751744E+00 
    1.3083458982299671E+01 
    1.3984757099761103E+01 
    9.8338055612959714E+00 
    5.0638268972848444E+00 
    1.0224327159764909E+01 
    5.2367927811079316E+00 
    9.4935115808583479E+00 
    9.2950640773450388E+00 
    1.0753245982423179E+01 
    5.5283372216754039E+00 
    1.1413870616038617E+01 
    9.3182840004738434E+00 
    1.2846621316275634E+01 
    9.7919262052929703E+00 
    7.5701839662762218E+00 
    8.9183585873620679E+00 
    9.7419263768801923E+00 
    9.7816997736194846E+00 
    1.3614456798134045E+01 
    7.7866846251101203E+00 
    7.6590887394783831E+00 
    5.7996540089574751E+00 
    1.3128380416877128E+01 
    8.9578089119392992E+00 
    1.2434995923602873E+01 
    9.2644262502122885E+00 
    6.3153272723361749E+00 
    1.2651960710383229E+01 
    9.2378815680153696E+00 
    6.8562738356284241E+00 
    7.2411617616011394E+00 
    7.4825896591769920E+00 
    1.2878453754538150E+01 
    9.2572219377550997E+00 
    1.3452277260164024E+01 
    9.1947843638456703E+00 
    9.1309814414626942E+00 
    8.7257841792056201E+00 
    1.2727894580859468E+01 
    9.0470547085149704E+00 
    7.5188612932822627E+00 
    1.4343064692076513E+01 
    1.2803669194693409E+01 
    6.3859059515856114E+00 
    2.5432436170503352E+00 
    9.2471276648060350E+00 
    8.6653616278445735E+00 
    7.8835975588812621E+00 
    8.5508119695447053E+00 
    1.2753422435183593E+01 
    8.9820997744053308E+00 
    8.1713713250179989E+00 
    1.2622921344253109E+01 
    6.3301015683829611E+00 
    1.2316326361030873E+01 
    8.3685909375565046E+00 
    7.4723390996208536E+00 
    7.9517382858376964E+00 
    1.3161652448279066E+01 
    9.2846491641762281E+00 
    9.2932887756037204E+00 
    5.6105653709526919E+00 
    6.0381759542712699E+00 
    1.1731179348290913E+01 
    9.3036358749828416E+00 
    9.2849419996925882E+00 
    1.4084799861783273E+01 
    7.6562837532359493E+00 
    9.3160586442904609E+00 
    6.5510227609054832E+00 
    6.7640990926107909E+00 
    1.2726006853432610E+01 
    8.9380413845050288E+00 
    6.6208197228474290E+00 
    9.7949752735343072E+00 
    9.1779956765211921E+00 
    1.2727227118823929E+01 
    1.4172589922599336E+01 
    9.7718482149332297E-01 
    9.2516730673261378E+00 
    9.5342215986537457E+00 
    1.2783302349191924E+01 
    8.7792744266145810E+00 
    9.2578742038876989E+00 
    1.3670503499207971E+01 
    7.9791126312169274E+00 
    6.6760362391192061E+00 
    1.1235271277330952E+01 
    1.2581294542063803E+01 
    1.3535186240930766E+01 
    1.3780520759277342E+01 
    9.1061784384974320E+00 
    9.2441497706132303E+00 
    1.0435398649397413E+01 
    6.0690395644098878E+00 
    1.2697009225198899E+01 
    7.1658641302831168E+00 
    6.3200076405233254E+00 
    1.1649671300375037E+01 
    1.0943851303988197E+01 
    6.1973729538137361E+00 
    1.2615057194926132E+01 
    1.3521256160079774E+01 
    9.6997767649230457E+00 
    1.4267880518505072E+01 
    1.2644770364686064E+01 
    8.8530628203384918E+00 
    1.3274417444508629E+01 
    6.7646783645680717E+00 
    1.2597624158869671E+01 
    9.2508536870888101E+00 
    9.2133186997396539E+00 
    1.4244429425299749E+01 
    8.9892325238649580E+00 
    1.1374076985625088E+01 
    7.9344269051931517E+00 
    1.3630560866587341E+01 
    1.2512507983466778E+01 
    8.2574498464564154E+00 
    1.2559701916155175E+01 
    8.3624591402321364E+00 
    9.2690164794034651E+00 
    1.3483371390304676E+01 
    1.2857568773362495E+01 
    1.3524451039692025E+01 
    1.2787160244120239E+01 
    8.4350299321398605E+00 
    8.6389789868646343E+00 
    1.3530447108668797E+01 
    8.7487667708447052E+00 
    1.2449583243143385E+01 
    8.9795829398471518E+00 
    3.7628033230122697E+00 
    6.3842574723510763E+00 
    5.9175953784386266E+00 
    1.3486378965481530E+01 
    1.4177862299355171E+01 
    1.2576377511775158E+01 
    1.0732745568549589E+01 
    1.2841841894926340E+01 
    1.2620198285125719E+01 
    1.3159962650816070E+01 
    5.4238228230349286E+00 
    3.5020196482725594E+00 
    1.0538460863621463E+01 
    8.9270360371015158E+00 
    1.2755015345744194E+01 
    1.2752828269735662E+01 
    9.5529106006948759E+00 
    1.2786755970082291E+01 
    9.2389570861639623E+00 
    9.1461277495272313E+00 
    4.8958497110477994E+00 
    3.4871451494674948E+00 
    1.3967409455770644E+01 
    7.1909255119283380E+00 
    8.1978071022696977E+00 
    9.4549079270860013E+00 
    1.5500688421752251E+01 
    9.5430356189910359E+00 
    9.5338533694107817E+00 
    3.9495694100783316E+00 
    9.5441983923638123E+00 
    9.5572613292915563E+00 
    1.3057658841158466E+01 
    7.9587692057593982E+00 
    8.8521592190156770E+00 
    1.4126090909306185E+01 
    9.2593728716309247E+00 
    1.2591090051748191E+01 
    1.2839304405557716E+01 
    1.1443638962241305E+01 
    7.8274798380694728E+00 
    1.2787724329413207E+01 
    9.0623568210325036E+00 
    1.2772627651747694E+01 
    1.2533536422548648E+01 
    1.3504482122259132E+01 
    1.2782398486027976E+01 
    1.1990197820299935E+01 
    9.2491353205129325E+00 
    6.1497537915289779E+00 
    1.5379004827884632E+01 
    7.3074441858909260E+00 
    1.3433231544593209E+01 
    9.2466823312657667E+00 
    7.7051248793557949E+00 
    4.5876963918507334E+00 
    9.5902286637291763E+00 
    1.2774165368256195E+01 
    1.2773078082288187E+01 
    9.2492358503450784E+00 
    9.2411537826385697E+00 
    1.4322908027323184E+01 
    1.3727269634156233E+01 
    9.5602925560352165E+00 
    3.2577200416928687E+00 
    1.1965969072490539E+01 
    1.5624498279400715E+01 
    9.2522820207405054E+00 
    1.1079363230699256E+01 
    8.7761568517129138E+00 
    1.5243539707327962E+01 
    1.3802687744328521E+01 
    1.3573774791481300E+01 
    9.5804130951504245E+00 
    4.2965981469902479E+00 
    8.7382888144981958E+00 
    8.7995510487354789E+00 
    8.8432265895120974E+00 
    3.5428111805908631E+00 