# vtk DataFile Version 2.0
Pressure Field Data 
ASCII 
DATASET UNSTRUCTURED_GRID 

POINTS 2860 double 

    0.0000000000000000E+00     0.0000000000000000E+00     0.0000000000000000E+00 
    1.0000000000000000E+00     0.0000000000000000E+00     0.0000000000000000E+00 
    1.0000000000000000E+00     1.0000000000000000E+00     0.0000000000000000E+00 
    0.0000000000000000E+00     1.0000000000000000E+00     0.0000000000000000E+00 
    2.5000000000000000E-01     2.5000000000000000E-01     0.0000000000000000E+00 
    7.5000000000000000E-01     2.5000000000000000E-01     0.0000000000000000E+00 
    7.5000000000000000E-01     7.5000000000000000E-01     0.0000000000000000E+00 
    2.5000000000000000E-01     7.5000000000000000E-01     0.0000000000000000E+00 
    3.1249999999942091E-02     0.0000000000000000E+00     0.0000000000000000E+00 
    6.2499999999873469E-02     0.0000000000000000E+00     0.0000000000000000E+00 
    9.3749999999826514E-02     0.0000000000000000E+00     0.0000000000000000E+00 
    1.2499999999977961E-01     0.0000000000000000E+00     0.0000000000000000E+00 
    1.5624999999968961E-01     0.0000000000000000E+00     0.0000000000000000E+00 
    1.8749999999959971E-01     0.0000000000000000E+00     0.0000000000000000E+00 
    2.1874999999950970E-01     0.0000000000000000E+00     0.0000000000000000E+00 
    2.4999999999941969E-01     0.0000000000000000E+00     0.0000000000000000E+00 
    2.8124999999932920E-01     0.0000000000000000E+00     0.0000000000000000E+00 
    3.1249999999923850E-01     0.0000000000000000E+00     0.0000000000000000E+00 
    3.4374999999914790E-01     0.0000000000000000E+00     0.0000000000000000E+00 
    3.7499999999905720E-01     0.0000000000000000E+00     0.0000000000000000E+00 
    4.0624999999896660E-01     0.0000000000000000E+00     0.0000000000000000E+00 
    4.3749999999887590E-01     0.0000000000000000E+00     0.0000000000000000E+00 
    4.6874999999878530E-01     0.0000000000000000E+00     0.0000000000000000E+00 
    4.9999999999869471E-01     0.0000000000000000E+00     0.0000000000000000E+00 
    5.3124999999877620E-01     0.0000000000000000E+00     0.0000000000000000E+00 
    5.6249999999885780E-01     0.0000000000000000E+00     0.0000000000000000E+00 
    5.9374999999893940E-01     0.0000000000000000E+00     0.0000000000000000E+00 
    6.2499999999902101E-01     0.0000000000000000E+00     0.0000000000000000E+00 
    6.5624999999910261E-01     0.0000000000000000E+00     0.0000000000000000E+00 
    6.8749999999918421E-01     0.0000000000000000E+00     0.0000000000000000E+00 
    7.1874999999926570E-01     0.0000000000000000E+00     0.0000000000000000E+00 
    7.4999999999934730E-01     0.0000000000000000E+00     0.0000000000000000E+00 
    7.8124999999942890E-01     0.0000000000000000E+00     0.0000000000000000E+00 
    8.1249999999951039E-01     0.0000000000000000E+00     0.0000000000000000E+00 
    8.4374999999959199E-01     0.0000000000000000E+00     0.0000000000000000E+00 
    8.7499999999967359E-01     0.0000000000000000E+00     0.0000000000000000E+00 
    9.0624999999975520E-01     0.0000000000000000E+00     0.0000000000000000E+00 
    9.3749999999983680E-01     0.0000000000000000E+00     0.0000000000000000E+00 
    9.6874999999991840E-01     0.0000000000000000E+00     0.0000000000000000E+00 
    1.0000000000000000E+00     3.1249999999942091E-02     0.0000000000000000E+00 
    1.0000000000000000E+00     6.2499999999873469E-02     0.0000000000000000E+00 
    1.0000000000000000E+00     9.3749999999826514E-02     0.0000000000000000E+00 
    1.0000000000000000E+00     1.2499999999977961E-01     0.0000000000000000E+00 
    1.0000000000000000E+00     1.5624999999968961E-01     0.0000000000000000E+00 
    1.0000000000000000E+00     1.8749999999959971E-01     0.0000000000000000E+00 
    1.0000000000000000E+00     2.1874999999950970E-01     0.0000000000000000E+00 
    1.0000000000000000E+00     2.4999999999941969E-01     0.0000000000000000E+00 
    1.0000000000000000E+00     2.8124999999932920E-01     0.0000000000000000E+00 
    1.0000000000000000E+00     3.1249999999923850E-01     0.0000000000000000E+00 
    1.0000000000000000E+00     3.4374999999914790E-01     0.0000000000000000E+00 
    1.0000000000000000E+00     3.7499999999905720E-01     0.0000000000000000E+00 
    1.0000000000000000E+00     4.0624999999896660E-01     0.0000000000000000E+00 
    1.0000000000000000E+00     4.3749999999887590E-01     0.0000000000000000E+00 
    1.0000000000000000E+00     4.6874999999878530E-01     0.0000000000000000E+00 
    1.0000000000000000E+00     4.9999999999869471E-01     0.0000000000000000E+00 
    1.0000000000000000E+00     5.3124999999877620E-01     0.0000000000000000E+00 
    1.0000000000000000E+00     5.6249999999885780E-01     0.0000000000000000E+00 
    1.0000000000000000E+00     5.9374999999893940E-01     0.0000000000000000E+00 
    1.0000000000000000E+00     6.2499999999902101E-01     0.0000000000000000E+00 
    1.0000000000000000E+00     6.5624999999910261E-01     0.0000000000000000E+00 
    1.0000000000000000E+00     6.8749999999918421E-01     0.0000000000000000E+00 
    1.0000000000000000E+00     7.1874999999926570E-01     0.0000000000000000E+00 
    1.0000000000000000E+00     7.4999999999934730E-01     0.0000000000000000E+00 
    1.0000000000000000E+00     7.8124999999942890E-01     0.0000000000000000E+00 
    1.0000000000000000E+00     8.1249999999951039E-01     0.0000000000000000E+00 
    1.0000000000000000E+00     8.4374999999959199E-01     0.0000000000000000E+00 
    1.0000000000000000E+00     8.7499999999967359E-01     0.0000000000000000E+00 
    1.0000000000000000E+00     9.0624999999975520E-01     0.0000000000000000E+00 
    1.0000000000000000E+00     9.3749999999983680E-01     0.0000000000000000E+00 
    1.0000000000000000E+00     9.6874999999991840E-01     0.0000000000000000E+00 
    9.6875000000003686E-01     1.0000000000000000E+00     0.0000000000000000E+00 
    9.3750000000011691E-01     1.0000000000000000E+00     0.0000000000000000E+00 
    9.0625000000015765E-01     1.0000000000000000E+00     0.0000000000000000E+00 
    8.7500000000017863E-01     1.0000000000000000E+00     0.0000000000000000E+00 
    8.4375000000028044E-01     1.0000000000000000E+00     0.0000000000000000E+00 
    8.1250000000040856E-01     1.0000000000000000E+00     0.0000000000000000E+00 
    7.8125000000054956E-01     1.0000000000000000E+00     0.0000000000000000E+00 
    7.5000000000066480E-01     1.0000000000000000E+00     0.0000000000000000E+00 
    7.1875000000086831E-01     1.0000000000000000E+00     0.0000000000000000E+00 
    6.8750000000102829E-01     1.0000000000000000E+00     0.0000000000000000E+00 
    6.5625000000114431E-01     1.0000000000000000E+00     0.0000000000000000E+00 
    6.2500000000129829E-01     1.0000000000000000E+00     0.0000000000000000E+00 
    5.9375000000147926E-01     1.0000000000000000E+00     0.0000000000000000E+00 
    5.6250000000168354E-01     1.0000000000000000E+00     0.0000000000000000E+00 
    5.3125000000188671E-01     1.0000000000000000E+00     0.0000000000000000E+00 
    5.0000000000205835E-01     1.0000000000000000E+00     0.0000000000000000E+00 
    4.6875000000192979E-01     1.0000000000000000E+00     0.0000000000000000E+00 
    4.3750000000180111E-01     1.0000000000000000E+00     0.0000000000000000E+00 
    4.0625000000167238E-01     1.0000000000000000E+00     0.0000000000000000E+00 
    3.7500000000154382E-01     1.0000000000000000E+00     0.0000000000000000E+00 
    3.4375000000141509E-01     1.0000000000000000E+00     0.0000000000000000E+00 
    3.1250000000128642E-01     1.0000000000000000E+00     0.0000000000000000E+00 
    2.8125000000115769E-01     1.0000000000000000E+00     0.0000000000000000E+00 
    2.5000000000102918E-01     1.0000000000000000E+00     0.0000000000000000E+00 
    2.1875000000090050E-01     1.0000000000000000E+00     0.0000000000000000E+00 
    1.8750000000077180E-01     1.0000000000000000E+00     0.0000000000000000E+00 
    1.5625000000064329E-01     1.0000000000000000E+00     0.0000000000000000E+00 
    1.2500000000051459E-01     1.0000000000000000E+00     0.0000000000000000E+00 
    9.3750000000385914E-02     1.0000000000000000E+00     0.0000000000000000E+00 
    6.2500000000257239E-02     1.0000000000000000E+00     0.0000000000000000E+00 
    3.1250000000128557E-02     1.0000000000000000E+00     0.0000000000000000E+00 
    0.0000000000000000E+00     9.6875000000003686E-01     0.0000000000000000E+00 
    0.0000000000000000E+00     9.3750000000011691E-01     0.0000000000000000E+00 
    0.0000000000000000E+00     9.0625000000015765E-01     0.0000000000000000E+00 
    0.0000000000000000E+00     8.7500000000017863E-01     0.0000000000000000E+00 
    0.0000000000000000E+00     8.4375000000028044E-01     0.0000000000000000E+00 
    0.0000000000000000E+00     8.1250000000040856E-01     0.0000000000000000E+00 
    0.0000000000000000E+00     7.8125000000054956E-01     0.0000000000000000E+00 
    0.0000000000000000E+00     7.5000000000066480E-01     0.0000000000000000E+00 
    0.0000000000000000E+00     7.1875000000086831E-01     0.0000000000000000E+00 
    0.0000000000000000E+00     6.8750000000102829E-01     0.0000000000000000E+00 
    0.0000000000000000E+00     6.5625000000114431E-01     0.0000000000000000E+00 
    0.0000000000000000E+00     6.2500000000129829E-01     0.0000000000000000E+00 
    0.0000000000000000E+00     5.9375000000147926E-01     0.0000000000000000E+00 
    0.0000000000000000E+00     5.6250000000168354E-01     0.0000000000000000E+00 
    0.0000000000000000E+00     5.3125000000188671E-01     0.0000000000000000E+00 
    0.0000000000000000E+00     5.0000000000205835E-01     0.0000000000000000E+00 
    0.0000000000000000E+00     4.6875000000192979E-01     0.0000000000000000E+00 
    0.0000000000000000E+00     4.3750000000180111E-01     0.0000000000000000E+00 
    0.0000000000000000E+00     4.0625000000167238E-01     0.0000000000000000E+00 
[...]
CELL_DATA 2795 
SCALARS Pressure double 1 
LOOKUP_TABLE default 

    6.1324805366091129E+00 
    1.3511066312115217E+01 
    9.5252046552815592E+00 
    9.1820784198713685E+00 
    7.4306410061601502E+00 
    1.3381538209080176E+01 
    1.4070834744251384E+01 
    5.5132018597210646E+00 
    1.0084164046207244E+01 
    7.6620068777779959E+00 
    6.5208906973354512E+00 
    1.3142073200370092E+01 
    1.3437545738864351E+01 
    1.3352999252147319E+01 
    8.7564381821744881E+00 
    5.4228061902029383E+00 
    8.5064698942213699E+00 
    6.9462378626298715E+00 
    1.2802450198442525E+01 
    9.5143713249350057E+00 
    9.4061346620260853E+00 
    1.3291125932673920E+01 
    8.9438376890702855E+00 
    3.5946154764537125E-01 
    1.3157135226069009E+01 
    1.3394750326917995E+01 
    1.4101142074384185E+01 
    6.2649831950299699E+00 
    1.3067489525044406E+01 
    1.4089197805793683E+01 
    9.6072070451906662E+00 
    9.7390374310641139E+00 
    6.7104337119856581E+00 
    9.4864190130665396E+00 
    3.1523650117891227E+00 
    8.5075414581404445E+00 
    9.4755181636803840E+00 
    1.4126634672796875E+01 
    1.4049512740336572E+01 
    1.3154418390764322E+01 
    7.3802833084391182E+00 
    1.3123166774169452E+01 
    7.5262351570610697E-01 
    9.4104816230324406E+00 
    1.3906354124129441E+01 
    1.3720217073276586E+01 
    1.3131973604225283E+01 
    1.0405672269320474E+01 
    1.3198961004427966E+01 
    8.6910339275462647E+00 
    8.3068194402628777E+00 
    9.7043463387177145E+00 
    9.3052200648329784E+00 
    8.5572290602012782E+00 
    9.6753469651019408E+00 
    1.2606131685436024E+01 
    1.1335499719960442E+01 
    7.4684391247133650E+00 
    1.3295327207561153E+01 
    1.3224214794197632E+01 
    9.1954162449541244E+00 
    9.1501678599053946E+00 
    9.0948277325123765E+00 
    1.3997442502093850E+01 
    1.4265827037990237E+01 
    8.5189133935874484E+00 
    9.7032072939221266E+00 
    1.3050008848780354E+01 
    1.1162587824198351E+01 
    9.1868348961199615E+00 
    1.4252304340571792E+01 
    1.3255960644616648E+01 
    8.4052320541704031E+00 
    1.3814442803285086E+01 
    9.8954071775805819E+00 
    1.3011381932710478E+01 
    1.4144329507083446E+01 
    9.9064873805126599E+00 
    6.2356399004610381E+00 
    9.7220461985266606E+00 
    1.4057410445720787E+01 
    1.4274001937417639E+01 
    8.5281274162858782E+00 
    9.6362431878685531E+00 
    1.4318415508538751E+01 
    9.4782895986106279E+00 
    9.0204647198012484E+00 
    1.1554864873851303E+01 
    5.9757776332286952E+00 
    8.3309682372812119E+00 
    9.6358236619015027E+00 
    1.0223845970773922E+01 
    1.5710142656440937E+01 
    7.2333062831854065E+00 
    9.7114145008403714E+00 
    1.3111535681590430E+01 
    1.3390686687321503E+01 
    6.4228436545458250E+00 
    9.3482104007945264E+00 
    9.6667017207275823E+00 
    1.3410008897411078E+01 
    9.6678175139041702E+00 
    1.3344812555790879E+01 
    3.9336437794026033E+00 
    6.3367857944158974E+00 
    9.9347614683435328E+00 
    1.3517781053369644E+01 
    8.4759407640481896E+00 
    9.0010808891942506E+00 
    9.6526451531742072E+00 
    8.9947371832566922E+00 
    1.0966726492478363E+01 
    8.7678817596020959E+00 
    8.4109066936674992E+00 
    6.7504269892017499E+00 
    1.1319337821969086E+01 
    9.7399800741304396E+00 
    1.3917117717322341E+01 
    8.3345466966592490E+00 
    9.1679923391582125E+00 
    1.3240769154579160E+01 
    7.7617799459486800E+00 
    1.3671683926151834E+01 
    9.5572974038233998E+00 
    9.1041389765402023E+00 
    1.3392102722747980E+01 
    9.7350022479967659E+00 
    1.4150528402924220E+01 
    1.1568395241184749E+01 
    1.2462140143242877E+01 
    1.4117139220996366E+01 
    7.2465896867082851E+00 
    9.9578084999653562E+00 
    1.3383689880586179E+01 
    2.9393446401087040E+00 
    9.6546903001817590E+00 
    1.4085342266610629E+01 
    9.1319727253928082E+00 
    1.0518968793741507E+01 
    6.3830430472738620E+00 
    1.3110333719893763E+01 
    1.6177073467018914E+01 
    1.2007233869129642E+01 
    9.1290111890245544E+00 
    8.2388233926105077E+00 
    1.0277088950672379E+01 
    9.5746532256765402E+00 
    6.5837284556604301E+00 
    1.4111416978463307E+01 
    1.3450772586287984E+01 
    1.3113202125152210E+01 
    1.0217455177428953E+01 
    8.3844509498561735E+00 
    9.4043338263258853E+00 
    1.3837815205313499E+01 
    8.5936499618323072E+00 
    9.5665686799316365E+00 
    8.7361026075420796E+00 
    1.1079277244446242E+01 
    1.6165742517304885E+01 
    1.3105023998156133E+01 
    8.3588438547295318E+00 
    1.3573908439899053E+01 
    1.3479617545009978E+01 
    1.3555040714478306E+01 
    1.4505886943481997E+01 
    1.5021779351769609E+01 
    1.3718775057738537E+01 
    9.6947208163283403E+00 
    1.0402953075431885E+01 
    1.3555894969864573E+01 
    1.3929894600097203E+01 
    6.8546215065156231E+00 
    1.3131443939530410E+01 
    1.3801196766733375E+01 
    6.6918359036338346E+00 
    1.4426952060576438E+01 
    1.4409670234074826E+01 
    1.2867250200342180E+01 
    1.0021223444685749E+01 
    2.5885565027489736E+00 
    1.4084356514227544E+01 
    9.8779672916248789E+00 
    1.4206408851881227E+01 
    9.0723877046651058E+00 
    1.3931247931161620E+01 
    9.2620730074180191E-01 
    1.2475189781197619E+01 
    9.1927224316551737E+00 
    8.3477105077038232E+00 
    8.1492143634366236E+00 
    9.5264551415064442E+00 
    1.0630095240290373E+01 
    9.9294274457687894E+00 
    6.8313006747628933E+00 
    1.3922347658076287E+01 
    1.3404108717396602E+01 
    1.1280242893819299E+01 
    9.9299122844287915E+00 
    1.4924040260337725E+00 
    7.5607184472549518E+00 
    5.3531568028176455E+00 
    1.4101252143138849E+01 
    1.0721352913186573E+01 
    1.3456913866413727E+01 
    1.3468917502793166E+01 
    8.6723476449159200E+00 
    1.1249723210426541E+01 
    1.3108372448263713E+01 
    1.4396408631195673E+01 
    6.3615001775271631E+00 
    1.1851157281377475E+01 
    9.9714179543060801E+00 
    5.7005174910983714E+00 
    8.6564143467208758E+00 
    1.1821396084727290E+01 
    1.3431230960879212E+01 
    9.5823557164327013E+00 
    1.3535304155917261E+01 
    1.3314507544782431E+01 
    1.3265498650144055E+01 
    9.4106121491397303E+00 
    8.2857372936053775E+00 
    1.3121070190415555E+01 
    8.4016017783605204E+00 
    9.6723792850151131E+00 
    8.2510970056514044E+00 
    9.5086600773546621E+00 
    1.3478854108332721E+01 
    5.9776451558861892E+00 
    8.5794813348518808E+00 
    1.4021553163153280E+01 
    9.4236920846592405E+00 
    1.0624544403019923E+01 
    6.1339961827431111E+00 
    8.4526064717821381E+00 
    1.3294396810927383E+01 
    1.3587747508722856E+01 
    5.0235142000200002E+00 
    9.4285716255969518E+00 
    8.2935367113639895E+00 
    1.4798935937168327E+01 
    1.4283945146136945E+01 
    1.5046974554391374E+01 
    9.4494701924819253E+00 
    1.3451166177441694E+01 
    1.3067459754944306E+01 
    9.3230514942339191E+00 
    1.3113351096940326E+01 
    9.9320243092183738E+00 
    5.7568180489499792E+00 
    9.6971289291975484E+00 
    1.4008910339229883E+01 
    1.3110304535252622E+01 
    6.4800459030746929E+00 
    1.3138013887513178E+01 
    1.0645063192642732E+01 
    9.6375253407302814E+00 
    9.2031290095921943E+00 
    1.2985082058159653E+01 
    1.0123682973613223E+01 
    1.3125872021405394E+01 
    9.3485248574478650E+00 
    5.9180272534495009E+00 
    9.7433425789524275E+00 
    8.1562595830371265E+00 
    1.2012990235568283E+01 
    1.4197842192684144E+01 
    1.3119592682510877E+01 
    1.4078618273645011E+01 
    9.3717504024046683E+00 
    6.3269641944687267E+00 
    6.4124450524725249E+00 
    9.8109498491058513E+00 
    9.6486211502742485E+00 
    1.4333128471903165E+00 
    1.2650712454802864E+01 
    1.4540925534625826E+01 
    9.0822810513798320E+00 
    6.0002939585422954E+00 
    1.1032941997856380E+01 
    1.3136610215874359E+01 
    7.0248320919621952E+00 
    4.8119882659109949E+00 
    9.6241168799050847E+00 
    1.3216174138026576E+01 
    1.3833834519978339E+01 
    1.3731136514526982E+01 
    1.3589385597614742E+01 
    6.8820157692975252E+00 
    9.6296379267612391E+00 
    1.2691500612758423E+01 
    7.5215072617148344E+00 
    1.3424892583177950E+01 
    1.1487875659836549E+01 
    6.5013087131614888E+00 
    1.3239061159595606E+01 
    1.4108137326428224E+01 
    1.3270524913172583E+01 
    6.7824238431834187E+00 
    9.6993253667841071E+00 
    7.4090897195292174E+00 
    9.1426341043023882E+00 
    1.3128612291590379E+01 
    1.3117571101172478E+01 
    6.8198899869982048E+00 
    1.3966708580011392E+01 
    1.0228390950364016E+01 
    1.3150556411505727E+01 
    1.3946983762549165E+01 
    1.3138107191166743E+01 
    1.2236633715436852E+01 
    1.4849472217273098E+01 
    9.0486733612946999E+00 
    1.4049497448876345E+01 
    1.3177189803670847E+01 
    1.4118606808364977E+01 
    1.3959604471086015E+01 
    9.1363920533992626E+00 
    9.5170032564951725E+00 
    9.0732036089163319E+00 
    1.1770182265960521E+01 
    3.9428075806869143E+00 
    9.7510072882064165E+00 
    1.4970063697455972E+01 
    9.9304422835862383E+00 
    1.0109942391722621E+01 
    1.4092596995072649E+01 
    1.4317415670721488E+01 
    9.0011357772575078E+00 
    1.3142064783076705E+01 
    1.3114364820915442E+01 
    1.0098078900826371E+01 
    1.3916029129264627E+01 
    6.8317941277774521E+00 
    4.3916493907815459E+00 
    1.0367006024844958E+01 
    9.9448884020035049E+00 
    1.3119275621247086E+01 
    6.4071369658902917E+00 
    1.3649837546032225E+01 
    4.4848996223634172E+00 
    9.8790338263589543E+00 
    9.1865369540610775E+00 
    9.6754537293757359E+00 
    1.6214797597974545E+01 
    3.8323039314198541E+00 
    9.6718606327740773E+00 
    1.1514782934240094E+01 
    9.2767680381653346E+00 
    7.4834543425496838E+00 
    1.3756024708950928E+01 
    1.5798800867840567E+01 
    1.3902821533084506E+01 
    9.6165354234893723E+00 
    5.6741983725412446E+00 
    1.5652591317040260E+01 
    1.3396927307954464E+01 
    7.1105304113067413E+00 
    9.2607829359590514E+00 
    1.4489470867102368E+01 
    3.2514222280671028E+00 
    9.9925492893688777E+00 
    1.3885414192740962E+01 
    9.6888559741683391E+00 
    8.4166581691618791E+00 
    9.7099095970014986E+00 
    1.2911655157648543E+01 
    9.6694339368396633E+00 
    5.0726013028302388E+00 
    9.1409672618481552E-01 
    7.1731884890522180E+00 
    1.4696151782099749E+01 
    9.0712955043021442E+00 
    1.0901007179941770E+01 
    1.0418417838821512E+01 
    1.2088115881320011E+01 
    9.7025451579592978E+00 
    1.3311288910130999E+01 
    1.6228515425251814E+01 
    1.1469735881593390E+01 
    1.4022935636711919E+01 
    5.3547970198984307E-01 
    1.3119380276659800E+01 
    5.5531329133886631E+00 
    1.5131430966749084E+01 
    9.6848916502044222E+00 
    8.5504011750828042E+00 
    7.5453872388976313E+00 
    5.2862202035742607E+00 
    1.0829784185693910E+01 
    7.6013544434483205E+00 
    1.1913136163646985E+01 
    2.1907978294627539E+00 
    1.0678236660952313E+01 
    1.3055435234517365E+01 
    5.8223582051794196E+00 
    1.3595396799833825E+01 
    1.4953316934824288E+01 
    1.3432001407838152E+01 
    9.5602036198327198E+00 
    9.6703067791669408E+00 
    9.6779076596159310E+00 
    5.7468640116761973E+00 
    8.8313073825898627E+00 
    8.6948426429502579E+00 
    9.6674604236708639E+00 
    9.0146346086627105E+00 
    6.8358022812271624E-01 
    6.3314273817627695E+00 
    9.3712752781358226E+00 
    9.6442275568793097E+00 
    1.2238855048026235E+01 
    2.1294397640239104E+00 
    1.0059583954969359E+01 
    9.9492267243428323E+00 
    3.6832668427664887E+00 
    1.3301214429339645E+01 
    8.4184001830563755E+00 
    9.8074672242819325E+00 
    1.3398868545764133E+01 
    5.3374199218995537E+00 
    1.3421206844219393E+01 
    8.5146475499208272E+00 
    9.6875584314055330E-01 
    9.1276344407255063E+00 
    1.3978150448122657E+01 
    1.3119684086629077E+01 
    1.3138573813377796E+01 
    1.0007721887314107E+01 
    9.8836983615319571E+00 
    8.3982964931147865E+00 
    6.8525955322588104E+00 
    1.3512164605586166E+01 
    9.2595564141413913E+00 
    6.6267325037288289E+00 
    1.3133451460083824E+01 
    1.3802177499778670E+01 
    9.8320157170360876E+00 
    9.4711691254464938E+00 
    1.6113396063913996E+01 
    1.0098916356799295E+01 
    1.3518143068791202E+01 
    8.0139319727837020E+00 
    1.6256483945066947E+01 
    6.3744412396194692E+00 
    8.7705286552934894E+00 
    7.1232393714438000E+00 
    1.0318860285481415E+01 
    8.1888911386726022E+00 
    1.6240507112339252E+01 
    1.0144657617800638E+01 
    1.2847013994770631E+01 
    6.5530311975380888E+00 
    9.6989745001670578E+00 
    1.3362909987661004E+01 
    8.2058396617724423E+00 
    7.1281551665282423E+00 
    1.0707915109839950E+01 
    1.3574154131998561E+01 
    7.0323451115928197E+00 
    9.2045155467483717E+00 
    9.5006656910422382E+00 
    1.3096311437634325E+01 
    9.3024733157877790E+00 
    1.3552438776312187E+01 
    1.4146353444057944E+01 
    8.4224386826388979E+00 
    8.2696831770171748E+00 
    7.6371806253358816E+00 
    1.3234952056782559E+01 
    9.9673314057362070E+00 
    1.5834534359175128E+01 
    1.2428194966975388E+01 
    1.3326319302548338E+01 
    1.5531654762033511E+01 
    1.4955941293001136E+01 
    9.7475503891102413E+00 
    9.6533459006088158E+00 
    1.2894303365060434E+01 
    1.3155042680531917E+01 
    1.3683516747619199E+01 
    1.3419064685230628E+01 
    1.6132734290028914E+01 
    1.0098472862079161E+01 
    8.5133719438031630E+00 
    1.0105284747261527E+01 
    1.4063209018549243E+01 
    9.8515892248667285E+00 
    5.7221543846537575E+00 
    9.5453416316796513E+00 
    1.4463264538729813E+01 
    9.9835428822130456E+00 
    8.5174836806721803E+00 
    9.4405779659750522E+00 
    1.4565397112081270E+01 
    1.3173353663913488E+01 
    8.1334138976971921E+00 
    1.4697262345164733E+01 
    9.7791104445279569E+00 
    1.3653451150565129E+01 
    1.4578942601747560E+01 
    1.0260193884588478E+01 
    5.3428748159431958E+00 
    1.0681936311129894E+01 
    5.5203930286984235E+00 
    9.9015706305089086E+00 
    9.6902394811067172E+00 
    1.1237802035844783E+01 
    5.8207849176858169E+00 
    1.1923331662210900E+01 
    9.7115457230452229E+00 
    1.3408139671117160E+01 
    1.0240935619494737E+01 
    7.9561797787291617E+00 
    9.3164997944149626E+00 
    1.0155769175027833E+01 
    1.0197919925291972E+01 
    1.4201974313105833E+01 
    8.1662085900665069E+00 
    8.0336575279597628E+00 
    6.1025142515751529E+00 
    1.3701735804968768E+01 
    9.3573522110961544E+00 
    1.2982077382118288E+01 
    9.6603192303685219E+00 
    6.6385125082888692E+00 
    1.3206450789573404E+01 
    9.6350515459103043E+00 
    7.1999474083857411E+00 
    7.5993392636769190E+00 
    7.8500766855874433E+00 
    1.3441331790153635E+01 
    9.6693285095321357E+00 
    1.4033608086384364E+01 
    9.5926316135884591E+00 
    9.5292912260140064E+00 
    9.1286808886108517E+00 
    1.3285103322881964E+01 
    9.4451401452858690E+00 
    7.8875752793614780E+00 
    1.4942862529414427E+01 
    1.3363788947556726E+01 
    6.6741915033346526E+00 
    2.6939976882871779E+00 
    9.6592074955805280E+00 
    9.0514224813330113E+00 
    8.2667195504433622E+00 
    8.9496913967755791E+00 
    1.3311338767391170E+01 
    9.3899197841178434E+00 
    8.5624975881550380E+00 
    1.3176092775878976E+01 
    6.6170324602263424E+00 
    1.2857244795532088E+01 
    8.7393130187973362E+00 
    7.8469071456384594E+00 
    8.3377125643863614E+00 
    1.3734195224207543E+01 
    9.6785496400403375E+00 
    9.6866469122177250E+00 
    5.9022068984832217E+00 
    6.3468561472316347E+00 
    1.2253215706618755E+01 
    9.6966508451611766E+00 
    9.6972403559264997E+00 
    1.4681485277390911E+01 
    8.0308437581784062E+00 
    9.7094841787208050E+00 
    6.8470861494373620E+00 
    7.0693347959944646E+00 
    1.3283752924667295E+01 
    9.3335034273558630E+00 
    6.9528085510133648E+00 
    1.0227189506635289E+01 
    9.5777618147710530E+00 
    1.3284835639298983E+01 
    1.4770590081397891E+01 
    1.0318481131450246E+00 
    9.6637964122405862E+00 
    9.9430251016693632E+00 
    1.3342568921219918E+01 
    9.1930784025082701E+00 
    9.6523146165224176E+00 
    1.4261678394481343E+01 
    8.3662974691908349E+00 
    7.0105016280019905E+00 
    1.1689800437471668E+01 
    1.3132756722589269E+01 
    1.4118684364886523E+01 
    1.4369424423864901E+01 
    9.5167111851351489E+00 
    9.6561155576429716E+00 
    1.0894958011981943E+01 
    6.3465568614927852E+00 
    1.3252852517829609E+01 
    7.5194956595636224E+00 
    6.6060887715960117E+00 
    1.2144687063405467E+01 
    1.1426356959518763E+01 
    6.4785274821366343E+00 
    1.3167465975219987E+01 
    1.4104475951498248E+01 
    1.0113514739194130E+01 
    1.4867573866589572E+01 
    1.3198670790976564E+01 
    9.2636847395338631E+00 
    1.3851300939403613E+01 
    7.0689283855155516E+00 
    1.3149802223393776E+01 
    9.6629321619633330E+00 
    9.6254729141618718E+00 
    1.4844018621846642E+01 
    9.3904311806975116E+00 
    1.1872652155895601E+01 
    8.3200960727732216E+00 
    1.4216647003980938E+01 
    1.3061513448346565E+01 
    8.6554755836187312E+00 
    1.3110036951273830E+01 
    8.7332310207842880E+00 
    9.6621457340287247E+00 
    1.4065478380586447E+01 
    1.3420726224426847E+01 
    1.4107720562106362E+01 
    1.3346598268672624E+01 
    8.8409702951073719E+00 
    9.0447272663383362E+00 
    1.4113954119900356E+01 
    9.1572355225639424E+00 
    1.2995257696397724E+01 
    9.3794955954779358E+00 
    3.9804122198464249E+00 
    6.6725790844496204E+00 
    6.1863856355701943E+00 
    1.4068629790244303E+01 
    1.4776075290043712E+01 
    1.3127348167914231E+01 
    1.1174548761480139E+01 
    1.3405087239761277E+01 
    1.3173223935106611E+01 
    1.3731629352409408E+01 
    5.7091848096374367E+00 
    3.7050928954669011E+00 
    1.0975572292783951E+01 
    9.3408960798775258E+00 
    1.3312991263869996E+01 
    1.3310708651763148E+01 
    9.9643193875277820E+00 
    1.3345894974544562E+01 
    9.6508536718128504E+00 
    9.5571920080755159E+00 
    5.1596174244322501E+00 
    3.6895819395388405E+00 
    1.4561091210085367E+01 
    7.5138257505207635E+00 
    8.5936162560029974E+00 
    9.8587545927862852E+00 
    1.6114366837347404E+01 
    9.9521075998331785E+00 
    9.9412370673131054E+00 
    4.1805995306255355E+00 
    9.9535194933486810E+00 
    9.9670357566633889E+00 
    1.3628063098879560E+01 
    8.3445110282030210E+00 
    9.2408004657030869E+00 
    1.4723181397087119E+01 
    9.6715690112433546E+00 
    1.3142631715792790E+01 
    1.3394033553428551E+01 
    1.1909155953677091E+01 
    8.1792034734232786E+00 
    1.3347293439576681E+01 
    9.4748534598034535E+00 
    1.3317382291375084E+01 
    1.3083346155157047E+01 
    1.4087252236013716E+01 
    1.3341606087595675E+01 
    1.2514831218272914E+01 
    9.6611826317049569E+00 
    6.4287255567957011E+00 
    1.5991821998149099E+01 
    7.6668239407111995E+00 
    1.4013032513446168E+01 
    9.6587214737574740E+00 
    8.0798173601425418E+00 
    4.8433438974102936E+00 
    1.0002248565323782E+01 
    1.3333102702839136E+01 
    1.3332309169923517E+01 
    9.6428286818385267E+00 
    9.6531783707309131E+00 
    1.4923333695764994E+01 
    1.4314966398543524E+01 
    9.9697927234936596E+00 
    3.4464987746005762E+00 
    1.2482943968506820E+01 
    1.6238720983136616E+01 
    9.6643382690900559E+00 
    1.1530327545545232E+01 
    9.1903859361796734E+00 
    1.5854919980816886E+01 
    1.4392520961983459E+01 
    1.4160817067844700E+01 
    9.9904681084892601E+00 
    4.5197246266347433E+00 
    9.1520942160321184E+00 
    9.2136030794833310E+00 
    9.2562972759797582E+00 
    3.7477111139865737E+00 