# vtk DataFile Version 2.0
Pressure Field Data 
ASCII 
DATASET UNSTRUCTURED_GRID 

POINTS 2860 double 

    0.0000000000000000E+00     0.0000000000000000E+00     0.0000000000000000E+00 
    1.0000000000000000E+00     0.0000000000000000E+00     0.0000000000000000E+00 
    1.0000000000000000E+00     1.0000000000000000E+00     0.0000000000000000E+00 
    0.0000000000000000E+00     1.0000000000000000E+00     0.0000000000000000E+00 
    2.5000000000000000E-01     2.5000000000000000E-01     0.0000000000000000E+00 
    7.5000000000000000E-01     2.5000000000000000E-01     0.0000000000000000E+00 
    7.5000000000000000E-01     7.5000000000000000E-01     0.0000000000000000E+00 
    2.5000000000000000E-01     7.5000000000000000E-01     0.0000000000000000E+00 
    3.1249999999942091E-02     0.0000000000000000E+00     0.0000000000000000E+00 
    6.2499999999873469E-02     0.0000000000000000E+00     0.0000000000000000E+00 
    9.3749999999826514E-02     0.0000000000000000E+00     0.0000000000000000E+00 
    1.2499999999977961E-01     0.0000000000000000E+00     0.0000000000000000E+00 
    1.5624999999968961E-01     0.0000000000000000E+00     0.0000000000000000E+00 
    1.8749999999959971E-01     0.0000000000000000E+00     0.0000000000000000E+00 
    2.1874999999950970E-01     0.0000000000000000E+00     0.0000000000000000E+00 
    2.4999999999941969E-01     0.0000000000000000E+00     0.0000000000000000E+00 
    2.8124999999932920E-01     0.0000000000000000E+00     0.0000000000000000E+00 
    3.1249999999923850E-01     0.0000000000000000E+00     0.0000000000000000E+00 
    3.4374999999914790E-01     0.0000000000000000E+00     0.0000000000000000E+00 
    3.7499999999905720E-01     0.0000000000000000E+00     0.0000000000000000E+00 
    4.0624999999896660E-01     0.0000000000000000E+00     0.0000000000000000E+00 
    4.3749999999887590E-01     0.0000000000000000E+00     0.0000000000000000E+00 
    4.6874999999878530E-01     0.0000000000000000E+00     0.0000000000000000E+00 
    4.9999999999869471E-01     0.0000000000000000E+00     0.0000000000000000E+00 
    5.3124999999877620E-01     0.0000000000000000E+00     0.0000000000000000E+00 
    5.6249999999885780E-01     0.0000000000000000E+00     0.0000000000000000E+00 
    5.9374999999893940E-01     0.0000000000000000E+00     0.0000000000000000E+00 
    6.2499999999902101E-01     0.0000000000000000E+00     0.0000000000000000E+00 
    6.5624999999910261E-01     0.0000000000000000E+00     0.0000000000000000E+00 
    6.8749999999918421E-01     0.0000000000000000E+00     0.0000000000000000E+00 
    7.1874999999926570E-01     0.0000000000000000E+00     0.0000000000000000E+00 
    7.4999999999934730E-01     0.0000000000000000E+00     0.0000000000000000E+00 
    7.8124999999942890E-01     0.0000000000000000E+00     0.0000000000000000E+00 
    8.1249999999951039E-01     0.0000000000000000E+00     0.0000000000000000E+00 
    8.4374999999959199E-01     0.0000000000000000E+00     0.0000000000000000E+00 
    8.7499999999967359E-01     0.0000000000000000E+00     0.0000000000000000E+00 
    9.0624999999975520E-01     0.0000000000000000E+00     0.0000000000000000E+00 
    9.3749999999983680E-01     0.0000000000000000E+00     0.0000000000000000E+00 
    9.6874999999991840E-01     0.0000000000000000E+00     0.0000000000000000E+00 
    1.0000000000000000E+00     3.1249999999942091E-02     0.0000000000000000E+00 
    1.0000000000000000E+00     6.2499999999873469E-02     0.0000000000000000E+00 
    1.0000000000000000E+00     9.3749999999826514E-02     0.0000000000000000E+00 
    1.0000000000000000E+00     1.2499999999977961E-01     0.0000000000000000E+00 
    1.0000000000000000E+00     1.5624999999968961E-01     0.0000000000000000E+00 
    1.0000000000000000E+00     1.8749999999959971E-01     0.0000000000000000E+00 
    1.0000000000000000E+00     2.1874999999950970E-01     0.0000000000000000E+00 
    1.0000000000000000E+00     2.4999999999941969E-01     0.0000000000000000E+00 
    1.0000000000000000E+00     2.8124999999932920E-01     0.0000000000000000E+00 
    1.0000000000000000E+00     3.1249999999923850E-01     0.0000000000000000E+00 
    1.0000000000000000E+00     3.4374999999914790E-01     0.0000000000000000E+00 
    1.0000000000000000E+00     3.7499999999905720E-01     0.0000000000000000E+00 
    1.0000000000000000E+00     4.0624999999896660E-01     0.0000000000000000E+00 
    1.0000000000000000E+00     4.3749999999887590E-01     0.0000000000000000E+00 
    1.0000000000000000E+00     4.6874999999878530E-01     0.0000000000000000E+00 
    1.0000000000000000E+00     4.9999999999869471E-01     0.0000000000000000E+00 
    1.0000000000000000E+00     5.3124999999877620E-01     0.0000000000000000E+00 
    1.0000000000000000E+00     5.6249999999885780E-01     0.0000000000000000E+00 
    1.0000000000000000E+00     5.9374999999893940E-01     0.0000000000000000E+00 
    1.0000000000000000E+00     6.2499999999902101E-01     0.0000000000000000E+00 
    1.0000000000000000E+00     6.5624999999910261E-01     0.0000000000000000E+00 
    1.0000000000000000E+00     6.8749999999918421E-01     0.0000000000000000E+00 
    1.0000000000000000E+00     7.1874999999926570E-01     0.0000000000000000E+00 
    1.0000000000000000E+00     7.4999999999934730E-01     0.0000000000000000E+00 
    1.0000000000000000E+00     7.8124999999942890E-01     0.0000000000000000E+00 
    1.0000000000000000E+00     8.1249999999951039E-01     0.0000000000000000E+00 
    1.0000000000000000E+00     8.4374999999959199E-01     0.0000000000000000E+00 
    1.0000000000000000E+00     8.7499999999967359E-01     0.0000000000000000E+00 
    1.0000000000000000E+00     9.0624999999975520E-01     0.0000000000000000E+00 
    1.0000000000000000E+00     9.3749999999983680E-01     0.0000000000000000E+00 
    1.0000000000000000E+00     9.6874999999991840E-01     0.0000000000000000E+00 
    9.6875000000003686E-01     1.0000000000000000E+00     0.0000000000000000E+00 
    9.3750000000011691E-01     1.0000000000000000E+00     0.0000000000000000E+00 
    9.0625000000015765E-01     1.0000000000000000E+00     0.0000000000000000E+00 
    8.7500000000017863E-01     1.0000000000000000E+00     0.0000000000000000E+00 
    8.4375000000028044E-01     1.0000000000000000E+00     0.0000000000000000E+00 
    8.1250000000040856E-01     1.0000000000000000E+00     0.0000000000000000E+00 
    7.8125000000054956E-01     1.0000000000000000E+00     0.0000000000000000E+00 
    7.5000000000066480E-01     1.0000000000000000E+00     0.0000000000000000E+00 
    7.1875000000086831E-01     1.0000000000000000E+00     0.0000000000000000E+00 
    6.8750000000102829E-01     1.0000000000000000E+00     0.0000000000000000E+00 
    6.5625000000114431E-01     1.0000000000000000E+00     0.0000000000000000E+00 
    6.2500000000129829E-01     1.0000000000000000E+00     0.0000000000000000E+00 
    5.9375000000147926E-01     1.0000000000000000E+00     0.0000000000000000E+00 
    5.6250000000168354E-01     1.0000000000000000E+00     0.0000000000000000E+00 
    5.3125000000188671E-01     1.0000000000000000E+00     0.0000000000000000E+00 
    5.0000000000205835E-01     1.0000000000000000E+00     0.0000000000000000E+00 
    4.6875000000192979E-01     1.0000000000000000E+00     0.0000000000000000E+00 
    4.3750000000180111E-01     1.0000000000000000E+00     0.0000000000000000E+00 
    4.0625000000167238E-01     1.0000000000000000E+00     0.0000000000000000E+00 
    3.7500000000154382E-01     1.0000000000000000E+00     0.0000000000000000E+00 
    3.4375000000141509E-01     1.0000000000000000E+00     0.0000000000000000E+00 
    3.1250000000128642E-01     1.0000000000000000E+00     0.0000000000000000E+00 
    2.8125000000115769E-01     1.0000000000000000E+00     0.0000000000000000E+00 
    2.5000000000102918E-01     1.0000000000000000E+00     0.0000000000000000E+00 
    2.1875000000090050E-01     1.0000000000000000E+00     0.0000000000000000E+00 
    1.8750000000077180E-01     1.0000000000000000E+00     0.0000000000000000E+00 
    1.5625000000064329E-01     1.0000000000000000E+00     0.0000000000000000E+00 
    1.2500000000051459E-01     1.0000000000000000E+00     0.0000000000000000E+00 
    9.3750000000385914E-02     1.0000000000000000E+00     0.0000000000000000E+00 
    6.2500000000257239E-02     1.0000000000000000E+00     0.0000000000000000E+00 
    3.1250000000128557E-02     1.0000000000000000E+00     0.0000000000000000E+00 
    0.0000000000000000E+00     9.6875000000003686E-01     0.0000000000000000E+00 
    0.0000000000000000E+00     9.3750000000011691E-01     0.0000000000000000E+00 
    0.0000000000000000E+00     9.0625000000015765E-01     0.0000000000000000E+00 
    0.0000000000000000E+00     8.7500000000017863E-01     0.0000000000000000E+00 
    0.0000000000000000E+00     8.4375000000028044E-01     0.0000000000000000E+00 
    0.0000000000000000E+00     8.1250000000040856E-01     0.0000000000000000E+00 
    0.0000000000000000E+00     7.8125000000054956E-01     0.0000000000000000E+00 
    0.0000000000000000E+00     7.5000000000066480E-01     0.0000000000000000E+00 
    0.0000000000000000E+00     7.1875000000086831E-01     0.0000000000000000E+00 
    0.0000000000000000E+00     6.8750000000102829E-01     0.0000000000000000E+00 
    0.0000000000000000E+00     6.5625000000114431E-01     0.0000000000000000E+00 
    0.0000000000000000E+00     6.2500000000129829E-01     0.0000000000000000E+00 
    0.0000000000000000E+00     5.9375000000147926E-01     0.0000000000000000E+00 
    0.0000000000000000E+00     5.6250000000168354E-01     0.0000000000000000E+00 
    0.0000000000000000E+00     5.3125000000188671E-01     0.0000000000000000E+00 
    0.0000000000000000E+00     5.0000000000205835E-01     0.0000000000000000E+00 
    0.0000000000000000E+00     4.6875000000192979E-01     0.0000000000000000E+00 
    0.0000000000000000E+00     4.3750000000180111E-01     0.0000000000000000E+00 
    0.0000000000000000E+00     4.0625000000167238E-01     0.0000000000000000E+00 
[...]
CELL_DATA 2795 
SCALARS Pressure double 1 
LOOKUP_TABLE default 

    8.4409145280124349E+00 
    1.8553020772968807E+01 
    1.3095846061970994E+01 
    1.2802392564809306E+01 
    1.0336118955640700E+01 
    1.8378894516642930E+01 
    1.9320413991410440E+01 
    7.5688850371466270E+00 
    1.3638131184688257E+01 
    1.0603412851204403E+01 
    9.1023382065528811E+00 
    1.8024061721384076E+01 
    1.8408515501403372E+01 
    1.8336178486451765E+01 
    1.2135337292138308E+01 
    7.4369148006546251E+00 
    1.1883295271145178E+01 
    9.6657745880615007E+00 
    1.7469301867177258E+01 
    1.3076561547734435E+01 
    1.2975080384268189E+01 
    1.8242548548749955E+01 
    1.2487334503417935E+01 
    5.2010733300684653E-01 
    1.7916983788497262E+01 
    1.8391275673505167E+01 
    1.9360446553589682E+01 
    8.7928118888873250E+00 
    1.7907642493892975E+01 
    1.9340765889449152E+01 
    1.3296356864161158E+01 
    1.3278279355663365E+01 
    9.4897276520198250E+00 
    1.3059677059378416E+01 
    4.2997348977487615E+00 
    1.1884086349781574E+01 
    1.3044988442705593E+01 
    1.9389355961284409E+01 
    1.9292370586868319E+01 
    1.8041228527886091E+01 
    1.0184276908218582E+01 
    1.7982814979929557E+01 
    1.0753364936126624E+00 
    1.3067633367453858E+01 
    1.9036055913205189E+01 
    1.8753932101666805E+01 
    1.8009644901026572E+01 
    1.4050270280544552E+01 
    1.8049108171542777E+01 
    1.2148531153757515E+01 
    1.1604130535752624E+01 
    1.3242099428520559E+01 
    1.2959006831553458E+01 
    1.1963020108110291E+01 
    1.3375001476281449E+01 
    1.7165322653565781E+01 
    1.5225609025925680E+01 
    1.0389935460548596E+01 
    1.8253889676427175E+01 
    1.8139611714920516E+01 
    1.2768174787006327E+01 
    1.2627725614718077E+01 
    1.2691532689509662E+01 
    1.9218404103828259E+01 
    1.9560673151367332E+01 
    1.1905405555728759E+01 
    1.3240397790852855E+01 
    1.7721086429295010E+01 
    1.5047726158256033E+01 
    1.2692676378995948E+01 
    1.9551433791866376E+01 
    1.8142660742588198E+01 
    1.1742087745753084E+01 
    1.8880149903441826E+01 
    1.3642252855132375E+01 
    1.7758348855380870E+01 
    1.9417701384553780E+01 
    1.3674272406009553E+01 
    8.5162141569226915E+00 
    1.3259134763880436E+01 
    1.9302738609735556E+01 
    1.9583388290922560E+01 
    1.1901330770586624E+01 
    1.3185650603523072E+01 
    1.9645917487272801E+01 
    1.3043039438264909E+01 
    1.2590736651352112E+01 
    1.5582472223495751E+01 
    8.1779448513481334E+00 
    1.1639246760059265E+01 
    1.3182667872596420E+01 
    1.3793041583171233E+01 
    2.1315105904025927E+01 
    1.0049452733641212E+01 
    1.3248480224053591E+01 
    1.7980145667561679E+01 
    1.8326967406550178E+01 
    8.8671378856840253E+00 
    1.2903747835606683E+01 
    1.3216221347548339E+01 
    1.8367209118964254E+01 
    1.3205922618155368E+01 
    1.8243787980396270E+01 
    5.3990114347356650E+00 
    8.8427453894304637E+00 
    1.3473215203056972E+01 
    1.8566817449209399E+01 
    1.1843569549829901E+01 
    1.2499970395429518E+01 
    1.3181755339397229E+01 
    1.2554205851306726E+01 
    1.4806523450388227E+01 
    1.2189415613003598E+01 
    1.1751893624335837E+01 
    9.2375890059759058E+00 
    1.5541717606655652E+01 
    1.3282993763174305E+01 
    1.9111414696838761E+01 
    1.1474726744047505E+01 
    1.2779767125649663E+01 
    1.8148613837591778E+01 
    1.0788233460782395E+01 
    1.8757692817234556E+01 
    1.3115068207881368E+01 
    1.2701781732051854E+01 
    1.8335269818984393E+01 
    1.3271866919337103E+01 
    1.9426631078176918E+01 
    1.5611377890774182E+01 
    1.6928315061903923E+01 
    1.9381379010060442E+01 
    1.0067961430292311E+01 
    1.3493618725399697E+01 
    1.8357827430371486E+01 
    4.0304151788158897E+00 
    1.3350538582128211E+01 
    1.9339314932845102E+01 
    1.2732021899215507E+01 
    1.4471381808066893E+01 
    8.7285307673218799E+00 
    1.7978735091697409E+01 
    2.1840015241153036E+01 
    1.6225338898739704E+01 
    1.2733855686283587E+01 
    1.1506274188122955E+01 
    1.4105564234001681E+01 
    1.3131949534131802E+01 
    9.2316582816030799E+00 
    1.9375838638508121E+01 
    1.8394585955833964E+01 
    1.7982387715305389E+01 
    1.3795430178582242E+01 
    1.1716634531359370E+01 
    1.2969797427375163E+01 
    1.8914718144317462E+01 
    1.2006998022358573E+01 
    1.3247820897342264E+01 
    1.2203854945655747E+01 
    1.5317977100493920E+01 
    2.1827434470274721E+01 
    1.7970337784044542E+01 
    1.1556916763964425E+01 
    1.8614698010679398E+01 
    1.8510920901798364E+01 
    1.8618131707905651E+01 
    1.9889623467481393E+01 
    2.0521810998188148E+01 
    1.8731443403153829E+01 
    1.3231846799170038E+01 
    1.4260540329563829E+01 
    1.8519125730266698E+01 
    1.9114692028502546E+01 
    9.6495765428940743E+00 
    1.8008064855637013E+01 
    1.8862554149003881E+01 
    9.3845914097955987E+00 
    1.9828995394474862E+01 
    1.9763126871111769E+01 
    1.7558313160992235E+01 
    1.3567879199531202E+01 
    3.5560058948837030E+00 
    1.9340682513711158E+01 
    1.3409097083276214E+01 
    1.9497531301298679E+01 
    1.2650875516120411E+01 
    1.9069207261452679E+01 
    1.3342003201490302E+00 
    1.6922566381562344E+01 
    1.2676504037971442E+01 
    1.1660360744045802E+01 
    1.1382365504590645E+01 
    1.3082732622856840E+01 
    1.4356745473919762E+01 
    1.3740042543420303E+01 
    9.3386865536578938E+00 
    1.9116667426791462E+01 
    1.8396859665484300E+01 
    1.5189516711636831E+01 
    1.3463617689937195E+01 
    2.0561690262077046E+00 
    1.0525423785814741E+01 
    7.3236447722714235E+00 
    1.9356524109628815E+01 
    1.4645004652640976E+01 
    1.8416086712821112E+01 
    1.8485114478694921E+01 
    1.2093246210161123E+01 
    1.5263411878577791E+01 
    1.7969884415014068E+01 
    1.9749317038500404E+01 
    8.7254309497302867E+00 
    1.6221612777426131E+01 
    1.3709292331472987E+01 
    7.8001586852698681E+00 
    1.2093378401291920E+01 
    1.5933110042921783E+01 
    1.8433544068381483E+01 
    1.3133698148954926E+01 
    1.8586499259595357E+01 
    1.8260534988441517E+01 
    1.8195047373547887E+01 
    1.2972856189325453E+01 
    1.1532329830050546E+01 
    1.7992633355015219E+01 
    1.1737296062116039E+01 
    1.3214973435707231E+01 
    1.1527544114627869E+01 
    1.3197675079156248E+01 
    1.8496802723638940E+01 
    8.3204069422019753E+00 
    1.1984419466494835E+01 
    1.9255393131468850E+01 
    1.2980082984336319E+01 
    1.4525271945987392E+01 
    8.5438274993592742E+00 
    1.1808928270772993E+01 
    1.8229465725913968E+01 
    1.8660848538919392E+01 
    6.9875653431390008E+00 
    1.2994756403048152E+01 
    1.1582424710549200E+01 
    2.0255768196380121E+01 
    1.9600348793322809E+01 
    2.0557343796967647E+01 
    1.3014802613874727E+01 
    1.8460676801480655E+01 
    1.7884940832309262E+01 
    1.2868298050195888E+01 
    1.7982778209339720E+01 
    1.3463902927136512E+01 
    7.8656172680879042E+00 
    1.3400295236849782E+01 
    1.9234386464306365E+01 
    1.7978304315159232E+01 
    9.0899123103103072E+00 
    1.8018502841635588E+01 
    1.4389096753831813E+01 
    1.3327149126136419E+01 
    1.2814733510727887E+01 
    1.7766339433969129E+01 
    1.3919600539629345E+01 
    1.7999832946917223E+01 
    1.2998426124188711E+01 
    8.0932686181877731E+00 
    1.3292425245616391E+01 
    1.1386524930927511E+01 
    1.6253599869732351E+01 
    1.9488850164589845E+01 
    1.7990744380665141E+01 
    1.9330963176167735E+01 
    1.2918443085780211E+01 
    8.8362530189919344E+00 
    8.9516621665908858E+00 
    1.3540100933855394E+01 
    1.3185646430410769E+01 
    2.0240025062284621E+00 
    1.7200196944407278E+01 
    1.9948821463917419E+01 
    1.2669830702658212E+01 
    8.2258973842835736E+00 
    1.5100249235059303E+01 
    1.8014099697146470E+01 
    9.7413033338268598E+00 
    6.6767667436423714E+00 
    1.3171081885019399E+01 
    1.8111399322637627E+01 
    1.8998743072431196E+01 
    1.8773650367283647E+01 
    1.8667487340903726E+01 
    9.4594344676088458E+00 
    1.3321321508643281E+01 
    1.7381760628099560E+01 
    1.0416179167370299E+01 
    1.8389517760048580E+01 
    1.5534663453536297E+01 
    9.0722543243774396E+00 
    1.8113378175821897E+01 
    1.9389574064858348E+01 
    1.8090729038527808E+01 
    9.3888574568700260E+00 
    1.3236337788293884E+01 
    1.0307050954823776E+01 
    1.2521883318560654E+01 
    1.8004649946185179E+01 
    1.7988769978417601E+01 
    9.4456119010097304E+00 
    1.9127717677346940E+01 
    1.3850085200837157E+01 
    1.8030750823071806E+01 
    1.9138674930300578E+01 
    1.8014407235179782E+01 
    1.6540945815114739E+01 
    2.0331780103961158E+01 
    1.2607834413634329E+01 
    1.9292285532099289E+01 
    1.8062839361639771E+01 
    1.9384487973796432E+01 
    1.9122626215702542E+01 
    1.2726527594283940E+01 
    1.3084822518444470E+01 
    1.2659985663091161E+01 
    1.5863837853054502E+01 
    5.4246918159892141E+00 
    1.3466882472647145E+01 
    2.0469367472362229E+01 
    1.3469783022417102E+01 
    1.3697384403423850E+01 
    1.9350525575388762E+01 
    1.9629510717920475E+01 
    1.2497621555958185E+01 
    1.8024127362972266E+01 
    1.7983813114332719E+01 
    1.3682011219454116E+01 
    1.9066766092245569E+01 
    9.5657075654750479E+00 
    6.1008716611722429E+00 
    1.4028367737684182E+01 
    1.3483698557198183E+01 
    1.7982870855419304E+01 
    8.8489330648125506E+00 
    1.8682821260673204E+01 
    6.1760723114184914E+00 
    1.3416073484146469E+01 
    1.2741256556337508E+01 
    1.3212660590447431E+01 
    2.1878308958964215E+01 
    5.2620322992379567E+00 
    1.3370661145247157E+01 
    1.5840040297468585E+01 
    1.2808414846269544E+01 
    1.0269368181497464E+01 
    1.8895991561119338E+01 
    2.1416904274651770E+01 
    1.9040458691998605E+01 
    1.3299985399344829E+01 
    7.7743491740557555E+00 
    2.1253457322833253E+01 
    1.8375294534743364E+01 
    9.7630742184216341E+00 
    1.2900671912403649E+01 
    1.9865951465885573E+01 
    4.4745067861654073E+00 
    1.3546986015381076E+01 
    1.9040821798676806E+01 
    1.3228680685361917E+01 
    1.1579739036253301E+01 
    1.3416997112470675E+01 
    1.7486665081817911E+01 
    1.3210824374734637E+01 
    6.9400561476481633E+00 
    1.3170045465534139E+00 
    9.9839360691623664E+00 
    2.0161141266375644E+01 
    1.2659342905747222E+01 
    1.4863146515665678E+01 
    1.4277526486557139E+01 
    1.6263847211578639E+01 
    1.3242396335464955E+01 
    1.8246455962337816E+01 
    2.1893006762994176E+01 
    1.5479897238081959E+01 
    1.9256898470543813E+01 
    7.8157979964395896E-01 
    1.7990976704500962E+01 
    7.5915625646663747E+00 
    2.0657119708030034E+01 
    1.3386537498569782E+01 
    1.1819572758213722E+01 
    1.0504644748617944E+01 
    7.3003566353589990E+00 
    1.4596044348660927E+01 
    1.0549988758751875E+01 
    1.6114814819581582E+01 
    3.0075746368131862E+00 
    1.4435054434511791E+01 
    1.7874053223968321E+01 
    8.1173358279304697E+00 
    1.8560097527878263E+01 
    2.0409763674955570E+01 
    1.8389997785229220E+01 
    1.3227239033545517E+01 
    1.3206189666841459E+01 
    1.3378069764033574E+01 
    7.8951061722257592E+00 
    1.2333246734101932E+01 
    1.2145937009811705E+01 
    1.3365259045091486E+01 
    1.2577925819341608E+01 
    1.0016846348701793E+00 
    8.6521866167605399E+00 
    1.3025149300771281E+01 
    1.3335654401848318E+01 
    1.6577785429204738E+01 
    2.9368695458575358E+00 
    1.3632691957321246E+01 
    1.3492284164712061E+01 
    5.0648181338328717E+00 
    1.8216058328529499E+01 
    1.1743299976077546E+01 
    1.3344212814449211E+01 
    1.8366810763799730E+01 
    7.3217193733013239E+00 
    1.8350668341629547E+01 
    1.1896944874318146E+01 
    1.3422749052469780E+00 
    1.2730323870608158E+01 
    1.9173462689460461E+01 
    1.7991594143059835E+01 
    1.8015820616987575E+01 
    1.3778673044118785E+01 
    1.3419027688345126E+01 
    1.1734089465678036E+01 
    9.3653951103793265E+00 
    1.8507460918281179E+01 
    1.2894872414440441E+01 
    9.1004675295783617E+00 
    1.8010086932242576E+01 
    1.8890286394537021E+01 
    1.3566717041676515E+01 
    1.3030021211327249E+01 
    2.1765664700660722E+01 
    1.3683196618906440E+01 
    1.8549425945288000E+01 
    1.1181079309336736E+01 
    2.1921053504332832E+01 
    8.8955140537641686E+00 
    1.2190373924406318E+01 
    9.9993506328870971E+00 
    1.3967996883589858E+01 
    1.1368031321494332E+01 
    2.1904235276757525E+01 
    1.3742287277803474E+01 
    1.7472243669884065E+01 
    9.1659848710751124E+00 
    1.3236750409076437E+01 
    1.8331075478965538E+01 
    1.1442966657547965E+01 
    9.7544941217579737E+00 
    1.4765645521351939E+01 
    1.8646843279470509E+01 
    9.7751213457374266E+00 
    1.2767262795384582E+01 
    1.3068646283219818E+01 
    1.7957926272917064E+01 
    1.2830493685075071E+01 
    1.8617198053029799E+01 
    1.9420799687024818E+01 
    1.1766873948932284E+01 
    1.1550916041506680E+01 
    1.0565152073015941E+01 
    1.8146134132868049E+01 
    1.3509631044684989E+01 
    2.1456713799881236E+01 
    1.6750152633966071E+01 
    1.8269861737387391E+01 
    2.1113103803942074E+01 
    2.0413842752833943E+01 
    1.3284615414616546E+01 
    1.3347423993305458E+01 
    1.7579996877456381E+01 
    1.8043359120439856E+01 
    1.8735215979560031E+01 
    1.8403698633373125E+01 
    2.1791586091282671E+01 
    1.3682601278882697E+01 
    1.1891840144190997E+01 
    1.3648056561933117E+01 
    1.9310607434860106E+01 
    1.3382254493559509E+01 
    7.9839764003191531E+00 
    1.3208218592890336E+01 
    1.9838942759109205E+01 
    1.3534997276614153E+01 
    1.1899822663996495E+01 
    1.3009399240580477E+01 
    1.9968276240180245E+01 
    1.8070945307173545E+01 
    1.1299311310983226E+01 
    2.0129588755741636E+01 
    1.3313814986906252E+01 
    1.8751562523315442E+01 
    1.9981225257292742E+01 
    1.4047981163247588E+01 
    7.3193200366635445E+00 
    1.4570570324316227E+01 
    7.5657801370042259E+00 
    1.3433672056445417E+01 
    1.3233166075588164E+01 
    1.5311699066761195E+01 
    7.9878139209089909E+00 
    1.6254472484321660E+01 
    1.3249875596273894E+01 
    1.8390062724708368E+01 
    1.4195105566712726E+01 
    1.0931422497805469E+01 
    1.2863363038266622E+01 
    1.3958023966506294E+01 
    1.3810003935263635E+01 
    1.9482218965180330E+01 
    1.1404342294452611E+01 
    1.1216089775349545E+01 
    8.3833124555881984E+00 
    1.8780550759255281E+01 
    1.2911676260778945E+01 
    1.7761267796782565E+01 
    1.3201710735349364E+01 
    9.1415329453784615E+00 
    1.8090548771697133E+01 
    1.3178429601937225E+01 
    9.9582550453821970E+00 
    1.0566997872756149E+01 
    1.0942022899797843E+01 
    1.8431822278008692E+01 
    1.3367586925335564E+01 
    1.9271660889943035E+01 
    1.3139005029324498E+01 
    1.3077808844480177E+01 
    1.2672331120021191E+01 
    1.8206720401617339E+01 
    1.2989387672280667E+01 
    1.0999032029754868E+01 
    2.0400882776384602E+01 
    1.8313702318881962E+01 
    9.3413144720398353E+00 
    3.7027971778056505E+00 
    1.3355422855391055E+01 
    1.2502002842446657E+01 
    1.1544543512220841E+01 
    1.2436526925328485E+01 
    1.8272295028697233E+01 
    1.3011020817207523E+01 
    1.1934268881277166E+01 
    1.8073380907281514E+01 
    9.2403165212000680E+00 
    1.7529711491134744E+01 
    1.2060558375699696E+01 
    1.0821446611299347E+01 
    1.1647284708163317E+01 
    1.8861471154056300E+01 
    1.3215144528070834E+01 
    1.3223928980513147E+01 
    8.1177543317626952E+00 
    8.7598889955342436E+00 
    1.6569737605824383E+01 
    1.3234099396800156E+01 
    1.3401845860238510E+01 
    2.0116982010981804E+01 
    1.1206332678692650E+01 
    1.3246719513295886E+01 
    9.5537613410686006E+00 
    9.8449788017687379E+00 
    1.8159406101795128E+01 
    1.2855485153461828E+01 
    9.6399055332242103E+00 
    1.3797311341314952E+01 
    1.3138394529755866E+01 
    1.8178391848257451E+01 
    2.0223969251672663E+01 
    1.4251684549378196E+00 
    1.3361124626200233E+01 
    1.3482439588945843E+01 
    1.8289549394832918E+01 
    1.2811690288960749E+01 
    1.3186387866956023E+01 
    1.9567635162852365E+01 
    1.1688808079782113E+01 
    9.7234600994170037E+00 
    1.5732049200880828E+01 
    1.8010043064188494E+01 
    1.9381582187762298E+01 
    1.9708356216113959E+01 
    1.3177286996899701E+01 
    1.3351087088266713E+01 
    1.4657346366706689E+01 
    8.8837585459403154E+00 
    1.8190612515166180E+01 
    1.0466151963748855E+01 
    9.2368397000838183E+00 
    1.6339210229977258E+01 
    1.5360569688794456E+01 
    9.0646094240964850E+00 
    1.8058298558945168E+01 
    1.9364454984464984E+01 
    1.3702015132220199E+01 
    2.0343288853612012E+01 
    1.8103850833661625E+01 
    1.2877431797775095E+01 
    1.8991564980730580E+01 
    9.8681473644082107E+00 
    1.8034870518306903E+01 
    1.3359835359169082E+01 
    1.3315806739190025E+01 
    2.0323003702830139E+01 
    1.2956265783773111E+01 
    1.5984484619026427E+01 
    1.1620972943881913E+01 
    1.9512603484560568E+01 
    1.7892206277675406E+01 
    1.2094933250184049E+01 
    1.7977866576426418E+01 
    1.2146000046070705E+01 
    1.3193119945851615E+01 
    1.9313345264934707E+01 
    1.8385374690569289E+01 
    1.9368176693402297E+01 
    1.8292466545157502E+01 
    1.2348489401889033E+01 
    1.2589564516944044E+01 
    1.9377600048510576E+01 
    1.2738738848509184E+01 
    1.7740575263165951E+01 
    1.2935118580808512E+01 
    5.4684217211860888E+00 
    9.3024465990421774E+00 
    8.6301908612539915E+00 
    1.9317733666741454E+01 
    2.0234147331439587E+01 
    1.8001302834561987E+01 
    1.5070428655687000E+01 
    1.8385739547420904E+01 
    1.8070824420132098E+01 
    1.8861843637743192E+01 
    7.8409269519686413E+00 
    5.0881872180686836E+00 
    1.4797233930134157E+01 
    1.2988418154276843E+01 
    1.8280036007680813E+01 
    1.8276787219236478E+01 
    1.3502836340479522E+01 
    1.8328363827741647E+01 
    1.3344438784925424E+01 
    1.3246175786533996E+01 
    7.0907003180728472E+00 
    5.0650519855786014E+00 
    1.9959589395659847E+01 
    1.0448251418928171E+01 
    1.2006286474125323E+01 
    1.3394814052895509E+01 
    2.1768777457710467E+01 
    1.3493004839494791E+01 
    1.3695733128388007E+01 
    5.7587590207252690E+00 
    1.3492820359958317E+01 
    1.3508081056561684E+01 
    1.8606572890237789E+01 
    1.1648983233517587E+01 
    1.2710547552622783E+01 
    2.0164513826818570E+01 
    1.3370776022646323E+01 
    1.8022533759214888E+01 
    1.8313282132073084E+01 
    1.6067685998807324E+01 
    1.1316272526014906E+01 
    1.8289197132809630E+01 
    1.3138823182977305E+01 
    1.8231595446578950E+01 
    1.7937915650975032E+01 
    1.9342200665593875E+01 
    1.8294574268247114E+01 
    1.6958323581813435E+01 
    1.3357576535278710E+01 
    8.9734034343450642E+00 
    2.1634246294734403E+01 
    1.0679610492098167E+01 
    1.9238300668846069E+01 
    1.3354608041312257E+01 
    1.1264230847386079E+01 
    6.7115353974234990E+00 
    1.3547945634355099E+01 
    1.8273637725885575E+01 
    1.8257631981842746E+01 
    1.3172337138976145E+01 
    1.3347943505439087E+01 
    2.0400610123056296E+01 
    1.9637482032662671E+01 
    1.3514918432637090E+01 
    4.7304487171756859E+00 
    1.6843873073000580E+01 
    2.1900588229228564E+01 
    1.3361371760182017E+01 
    1.5547720689751097E+01 
    1.2810632222659551E+01 
    2.1479832704777344E+01 
    1.9740467695577962E+01 
    1.9439700908128113E+01 
    1.3539528525890560E+01 
    6.2573587327293962E+00 
    1.2763790152981954E+01 
    1.2837147717390211E+01 
    1.2882536540777844E+01 
    5.1601615383398993E+00 