# vtk DataFile Version 2.0
Pressure Field Data 
ASCII 
DATASET UNSTRUCTURED_GRID 

POINTS 2860 double 

    0.0000000000000000E+00     0.0000000000000000E+00     0.0000000000000000E+00 
    1.0000000000000000E+00     0.0000000000000000E+00     0.0000000000000000E+00 
    1.0000000000000000E+00     1.0000000000000000E+00     0.0000000000000000E+00 
    0.0000000000000000E+00     1.0000000000000000E+00     0.0000000000000000E+00 
    2.5000000000000000E-01     2.5000000000000000E-01     0.0000000000000000E+00 
    7.5000000000000000E-01     2.5000000000000000E-01     0.0000000000000000E+00 
    7.5000000000000000E-01     7.5000000000000000E-01     0.0000000000000000E+00 
    2.5000000000000000E-01     7.5000000000000000E-01     0.0000000000000000E+00 
    3.1249999999942091E-02     0.0000000000000000E+00     0.0000000000000000E+00 
    6.2499999999873469E-02     0.0000000000000000E+00     0.0000000000000000E+00 
    9.3749999999826514E-02     0.0000000000000000E+00     0.0000000000000000E+00 
    1.2499999999977961E-01     0.0000000000000000E+00     0.0000000000000000E+00 
    1.5624999999968961E-01     0.0000000000000000E+00     0.0000000000000000E+00 
    1.8749999999959971E-01     0.0000000000000000E+00     0.0000000000000000E+00 
    2.1874999999950970E-01     0.0000000000000000E+00     0.0000000000000000E+00 
    2.4999999999941969E-01     0.0000000000000000E+00     0.0000000000000000E+00 
    2.8124999999932920E-01     0.0000000000000000E+00     0.0000000000000000E+00 
    3.1249999999923850E-01     0.0000000000000000E+00     0.0000000000000000E+00 
    3.4374999999914790E-01     0.0000000000000000E+00     0.0000000000000000E+00 
    3.7499999999905720E-01     0.0000000000000000E+00     0.0000000000000000E+00 
    4.0624999999896660E-01     0.0000000000000000E+00     0.0000000000000000E+00 
    4.3749999999887590E-01     0.0000000000000000E+00     0.0000000000000000E+00 
    4.6874999999878530E-01     0.0000000000000000E+00     0.0000000000000000E+00 
    4.9999999999869471E-01     0.0000000000000000E+00     0.0000000000000000E+00 
    5.3124999999877620E-01     0.0000000000000000E+00     0.0000000000000000E+00 
    5.6249999999885780E-01     0.0000000000000000E+00     0.0000000000000000E+00 
    5.9374999999893940E-01     0.0000000000000000E+00     0.0000000000000000E+00 
    6.2499999999902101E-01     0.0000000000000000E+00     0.0000000000000000E+00 
    6.5624999999910261E-01     0.0000000000000000E+00     0.0000000000000000E+00 
    6.8749999999918421E-01     0.0000000000000000E+00     0.0000000000000000E+00 
    7.1874999999926570E-01     0.0000000000000000E+00     0.0000000000000000E+00 
    7.4999999999934730E-01     0.0000000000000000E+00     0.0000000000000000E+00 
    7.8124999999942890E-01     0.0000000000000000E+00     0.0000000000000000E+00 
    8.1249999999951039E-01     0.0000000000000000E+00     0.0000000000000000E+00 
    8.4374999999959199E-01     0.0000000000000000E+00     0.0000000000000000E+00 
    8.7499999999967359E-01     0.0000000000000000E+00     0.0000000000000000E+00 
    9.0624999999975520E-01     0.0000000000000000E+00     0.0000000000000000E+00 
    9.3749999999983680E-01     0.0000000000000000E+00     0.0000000000000000E+00 
    9.6874999999991840E-01     0.0000000000000000E+00     0.0000000000000000E+00 
    1.0000000000000000E+00     3.1249999999942091E-02     0.0000000000000000E+00 
    1.0000000000000000E+00     6.2499999999873469E-02     0.0000000000000000E+00 
    1.0000000000000000E+00     9.3749999999826514E-02     0.0000000000000000E+00 
    1.0000000000000000E+00     1.2499999999977961E-01     0.0000000000000000E+00 
    1.0000000000000000E+00     1.5624999999968961E-01     0.0000000000000000E+00 
    1.0000000000000000E+00     1.8749999999959971E-01     0.0000000000000000E+00 
    1.0000000000000000E+00     2.1874999999950970E-01     0.0000000000000000E+00 
    1.0000000000000000E+00     2.4999999999941969E-01     0.0000000000000000E+00 
    1.0000000000000000E+00     2.8124999999932920E-01     0.0000000000000000E+00 
    1.0000000000000000E+00     3.1249999999923850E-01     0.0000000000000000E+00 
    1.0000000000000000E+00     3.4374999999914790E-01     0.0000000000000000E+00 
    1.0000000000000000E+00     3.7499999999905720E-01     0.0000000000000000E+00 
    1.0000000000000000E+00     4.0624999999896660E-01     0.0000000000000000E+00 
    1.0000000000000000E+00     4.3749999999887590E-01     0.0000000000000000E+00 
    1.0000000000000000E+00     4.6874999999878530E-01     0.0000000000000000E+00 
    1.0000000000000000E+00     4.9999999999869471E-01     0.0000000000000000E+00 
    1.0000000000000000E+00     5.3124999999877620E-01     0.0000000000000000E+00 
    1.0000000000000000E+00     5.6249999999885780E-01     0.0000000000000000E+00 
    1.0000000000000000E+00     5.9374999999893940E-01     0.0000000000000000E+00 
    1.0000000000000000E+00     6.2499999999902101E-01     0.0000000000000000E+00 
    1.0000000000000000E+00     6.5624999999910261E-01     0.0000000000000000E+00 
    1.0000000000000000E+00     6.8749999999918421E-01     0.0000000000000000E+00 
    1.0000000000000000E+00     7.1874999999926570E-01     0.0000000000000000E+00 
    1.0000000000000000E+00     7.4999999999934730E-01     0.0000000000000000E+00 
    1.0000000000000000E+00     7.8124999999942890E-01     0.0000000000000000E+00 
    1.0000000000000000E+00     8.1249999999951039E-01     0.0000000000000000E+00 
    1.0000000000000000E+00     8.4374999999959199E-01     0.0000000000000000E+00 
    1.0000000000000000E+00     8.7499999999967359E-01     0.0000000000000000E+00 
    1.0000000000000000E+00     9.0624999999975520E-01     0.0000000000000000E+00 
    1.0000000000000000E+00     9.3749999999983680E-01     0.0000000000000000E+00 
    1.0000000000000000E+00     9.6874999999991840E-01     0.0000000000000000E+00 
    9.6875000000003686E-01     1.0000000000000000E+00     0.0000000000000000E+00 
    9.3750000000011691E-01     1.0000000000000000E+00     0.0000000000000000E+00 
    9.0625000000015765E-01     1.0000000000000000E+00     0.0000000000000000E+00 
    8.7500000000017863E-01     1.0000000000000000E+00     0.0000000000000000E+00 
    8.4375000000028044E-01     1.0000000000000000E+00     0.0000000000000000E+00 
    8.1250000000040856E-01     1.0000000000000000E+00     0.0000000000000000E+00 
    7.8125000000054956E-01     1.0000000000000000E+00     0.0000000000000000E+00 
    7.5000000000066480E-01     1.0000000000000000E+00     0.0000000000000000E+00 
    7.1875000000086831E-01     1.0000000000000000E+00     0.0000000000000000E+00 
    6.8750000000102829E-01     1.0000000000000000E+00     0.0000000000000000E+00 
    6.5625000000114431E-01     1.0000000000000000E+00     0.0000000000000000E+00 
    6.2500000000129829E-01     1.0000000000000000E+00     0.0000000000000000E+00 
    5.9375000000147926E-01     1.0000000000000000E+00     0.0000000000000000E+00 
    5.6250000000168354E-01     1.0000000000000000E+00     0.0000000000000000E+00 
    5.3125000000188671E-01     1.0000000000000000E+00     0.0000000000000000E+00 
    5.0000000000205835E-01     1.0000000000000000E+00     0.0000000000000000E+00 
    4.6875000000192979E-01     1.0000000000000000E+00     0.0000000000000000E+00 
    4.3750000000180111E-01     1.0000000000000000E+00     0.0000000000000000E+00 
    4.0625000000167238E-01     1.0000000000000000E+00     0.0000000000000000E+00 
    3.7500000000154382E-01     1.0000000000000000E+00     0.0000000000000000E+00 
    3.4375000000141509E-01     1.0000000000000000E+00     0.0000000000000000E+00 
    3.1250000000128642E-01     1.0000000000000000E+00     0.0000000000000000E+00 
    2.8125000000115769E-01     1.0000000000000000E+00     0.0000000000000000E+00 
    2.5000000000102918E-01     1.0000000000000000E+00     0.0000000000000000E+00 
    2.1875000000090050E-01     1.0000000000000000E+00     0.0000000000000000E+00 
    1.8750000000077180E-01     1.0000000000000000E+00     0.0000000000000000E+00 
    1.5625000000064329E-01     1.0000000000000000E+00     0.0000000000000000E+00 
    1.2500000000051459E-01     1.0000000000000000E+00     0.0000000000000000E+00 
    9.3750000000385914E-02     1.0000000000000000E+00     0.0000000000000000E+00 
    6.2500000000257239E-02     1.0000000000000000E+00     0.0000000000000000E+00 
    3.1250000000128557E-02     1.0000000000000000E+00     0.0000000000000000E+00 
    0.0000000000000000E+00     9.6875000000003686E-01     0.0000000000000000E+00 
    0.0000000000000000E+00     9.3750000000011691E-01     0.0000000000000000E+00 
    0.0000000000000000E+00     9.0625000000015765E-01     0.0000000000000000E+00 
    0.0000000000000000E+00     8.7500000000017863E-01     0.0000000000000000E+00 
    0.0000000000000000E+00     8.4375000000028044E-01     0.0000000000000000E+00 
    0.0000000000000000E+00     8.1250000000040856E-01     0.0000000000000000E+00 
    0.0000000000000000E+00     7.8125000000054956E-01     0.0000000000000000E+00 
    0.0000000000000000E+00     7.5000000000066480E-01     0.0000000000000000E+00 
    0.0000000000000000E+00     7.1875000000086831E-01     0.0000000000000000E+00 
    0.0000000000000000E+00     6.8750000000102829E-01     0.0000000000000000E+00 
    0.0000000000000000E+00     6.5625000000114431E-01     0.0000000000000000E+00 
    0.0000000000000000E+00     6.2500000000129829E-01     0.0000000000000000E+00 
    0.0000000000000000E+00     5.9375000000147926E-01     0.0000000000000000E+00 
    0.0000000000000000E+00     5.6250000000168354E-01     0.0000000000000000E+00 
    0.0000000000000000E+00     5.3125000000188671E-01     0.0000000000000000E+00 
    0.0000000000000000E+00     5.0000000000205835E-01     0.0000000000000000E+00 
    0.0000000000000000E+00     4.6875000000192979E-01     0.0000000000000000E+00 
    0.0000000000000000E+00     4.3750000000180111E-01     0.0000000000000000E+00 
    0.0000000000000000E+00     4.0625000000167238E-01     0.0000000000000000E+00 
[...]
CELL_DATA 2795 
SCALARS Pressure double 1 
LOOKUP_TABLE default 

    8.3310635101651282E+00 
    1.8152844355997271E+01 
    1.2824024808980338E+01 
    1.2544300152156145E+01 
    1.0171484828800295E+01 
    1.7996557570664795E+01 
    1.8894933562434570E+01 
    7.4710449460258772E+00 
    1.3355624477117278E+01 
    1.0412752911904393E+01 
    8.9605800371978521E+00 
    1.7664324421643499E+01 
    1.8025552427006271E+01 
    1.7957971773186898E+01 
    1.1885463257946100E+01 
    7.3444037409698737E+00 
    1.1658824501363199E+01 
    9.5052235932256242E+00 
    1.7154574002068752E+01 
    1.2805443974667091E+01 
    1.2705492974730825E+01 
    1.7869728339132230E+01 
    1.2239241461117409E+01 
    5.0347111740985973E-01 
    1.7545555149328660E+01 
    1.7997378242718536E+01 
    1.8933238923027307E+01 
    8.6760482052901100E+00 
    1.7562079012132418E+01 
    1.8911828557289240E+01 
    1.3029097436364820E+01 
    1.3004213104381973E+01 
    9.3906622506591919E+00 
    1.2788424182284228E+01 
    4.3495753442088700E+00 
    1.1658978252203831E+01 
    1.2774144387053299E+01 
    1.8958482203419429E+01 
    1.8867725105469205E+01 
    1.7680541385924489E+01 
    1.0054678206109255E+01 
    1.7612856423170136E+01 
    1.0416145147849694E+00 
    1.2803870929613151E+01 
    1.8634243391244443E+01 
    1.8354678589486930E+01 
    1.7650771155138663E+01 
    1.3761099873379543E+01 
    1.7690244194704650E+01 
    1.1912251524279091E+01 
    1.1389859019206000E+01 
    1.2968890551018339E+01 
    1.2696128689496858E+01 
    1.1735409950797319E+01 
    1.3106382381302634E+01 
    1.6843686641270256E+01 
    1.4913365924418764E+01 
    1.0223465713040039E+01 
    1.7880778102589169E+01 
    1.7773691448579577E+01 
    1.2516380429507089E+01 
    1.2369587410159784E+01 
    1.2436578137410496E+01 
    1.8794163199568946E+01 
    1.9136960613719431E+01 
    1.1680482018704755E+01 
    1.2967264348236133E+01 
    1.7353900865759158E+01 
    1.4739161010503693E+01 
    1.2430686800500570E+01 
    1.9118156012804313E+01 
    1.7764222883121391E+01 
    1.1522691049748786E+01 
    1.8476672698807469E+01 
    1.3367452424982508E+01 
    1.7389289243637435E+01 
    1.8987236086194642E+01 
    1.3399681044876898E+01 
    8.4024493809117011E+00 
    1.2985619348316014E+01 
    1.8877982226733412E+01 
    1.9145182176694767E+01 
    1.1676346804978460E+01 
    1.2913007815814787E+01 
    1.9206153606971291E+01 
    1.2772430884449708E+01 
    1.2339382031168041E+01 
    1.5263780204352315E+01 
    8.0713688281101401E+00 
    1.1423688801417285E+01 
    1.2910212681364804E+01 
    1.3507473871218950E+01 
    2.0833078242461585E+01 
    9.8935383357017948E+00 
    1.2975186119416625E+01 
    1.7622946657790219E+01 
    1.7950264353848258E+01 
    8.7425235152978065E+00 
    1.2636163400840768E+01 
    1.2942935354116710E+01 
    1.7986047065354118E+01 
    1.2933440785564308E+01 
    1.7869816249758038E+01 
    5.3597389697176467E+00 
    8.7085557517652656E+00 
    1.3195395508815929E+01 
    1.8165454553893881E+01 
    1.1620083450227417E+01 
    1.2257932233368976E+01 
    1.2910205868938116E+01 
    1.2304182536865873E+01 
    1.4502153311243342E+01 
    1.1957602666808192E+01 
    1.1532097951152471E+01 
    9.1054315834824333E+00 
    1.5235500956186291E+01 
    1.3008656481950853E+01 
    1.8691293896771793E+01 
    1.1256772060092139E+01 
    1.2522810962602218E+01 
    1.7770139691027005E+01 
    1.0633647858614358E+01 
    1.8349193724518294E+01 
    1.2843422917995650E+01 
    1.2446684257774416E+01 
    1.7957017843399314E+01 
    1.2998088983874304E+01 
    1.8995469478134137E+01 
    1.5291824535587644E+01 
    1.6588306232724708E+01 
    1.8953370772899124E+01 
    9.9109016568408528E+00 
    1.3215339504020811E+01 
    1.7968505748591909E+01 
    4.0030624701753457E+00 
    1.3082417295117487E+01 
    1.8912923264218524E+01 
    1.2476630486418893E+01 
    1.4182753294119648E+01 
    8.6085602750322181E+00 
    1.7617952844244151E+01 
    2.1347475150315461E+01 
    1.5894739214937136E+01 
    1.2477821548527274E+01 
    1.1296274855644119E+01 
    1.3820082926970917E+01 
    1.2860001509696161E+01 
    9.0848099520704597E+00 
    1.8946976897026403E+01 
    1.8012457067942112E+01 
    1.7624823464759810E+01 
    1.3510730546919696E+01 
    1.1500156194275482E+01 
    1.2700488341059488E+01 
    1.8509839883028445E+01 
    1.1776900453271541E+01 
    1.2980365698003535E+01 
    1.1965685515390392E+01 
    1.4999281898024936E+01 
    2.1335071708638964E+01 
    1.7614559275838861E+01 
    1.1391110890333904E+01 
    1.8223148044980409E+01 
    1.8112174639867600E+01 
    1.8214788621074860E+01 
    1.9439913766713659E+01 
    2.0054380344187120E+01 
    1.8334523994695477E+01 
    1.2958894185593314E+01 
    1.3972925428345459E+01 
    1.8133152200525128E+01 
    1.8698909866957599E+01 
    9.4921459908132011E+00 
    1.7649804466825181E+01 
    1.8459096162725960E+01 
    9.2291754139206166E+00 
    1.9379658552885275E+01 
    1.9318076403057255E+01 
    1.7244562587278043E+01 
    1.3288086445690540E+01 
    3.5716735786727378E+00 
    1.8913231147999234E+01 
    1.3132495660555927E+01 
    1.9066471205415613E+01 
    1.2398371407093219E+01 
    1.8660471550329405E+01 
    1.2948835906712737E+00 
    1.6584804161349727E+01 
    1.2417100602487052E+01 
    1.1444036456439280E+01 
    1.1177005926375445E+01 
    1.2811764250773798E+01 
    1.4061433392734418E+01 
    1.3463067092702229E+01 
    9.2038997925971326E+00 
    1.8696976491377718E+01 
    1.8004113001551591E+01 
    1.4878328740340029E+01 
    1.3185962933705579E+01 
    2.0332148210136922E+00 
    1.0354391815576861E+01 
    7.2397929518187905E+00 
    1.8927102920311246E+01 
    1.4347125010275448E+01 
    1.8036162901127220E+01 
    1.8088688519258767E+01 
    1.1861760073228028E+01 
    1.4951374965918204E+01 
    1.7615758650868852E+01 
    1.9305513273387021E+01 
    8.6067223472406695E+00 
    1.5894164312653100E+01 
    1.3431851471521286E+01 
    7.7018628980850883E+00 
    1.1859703727395187E+01 
    1.5605801500671882E+01 
    1.8039526673435983E+01 
    1.2861985479237834E+01 
    1.8184853806894282E+01 
    1.7875252692180062E+01 
    1.7811924187208330E+01 
    1.2703669494227107E+01 
    1.1323565718287927E+01 
    1.7634005660282753E+01 
    1.1518908560918174E+01 
    1.2942075046539877E+01 
    1.1315841288255262E+01 
    1.2931175640057489E+01 
    1.8099643616696795E+01 
    8.2168323280875697E+00 
    1.1755230902925224E+01 
    1.8830250544177272E+01 
    1.2711067230975823E+01 
    1.4230052814558057E+01 
    8.4334496576826794E+00 
    1.1586621699613705E+01 
    1.7845907321864754E+01 
    1.8255801275862179E+01 
    6.9093018120328873E+00 
    1.2724970620940450E+01 
    1.1385919002792470E+01 
    1.9795081301198945E+01 
    1.9161615734220280E+01 
    2.0088057831906017E+01 
    1.2744689907222373E+01 
    1.8065564811050447E+01 
    1.7540574079413620E+01 
    1.2601908099379241E+01 
    1.7625663687160657E+01 
    1.3186209894746964E+01 
    7.7683300755042781E+00 
    1.3129425671370925E+01 
    1.8810198863708646E+01 
    1.7621697066789583E+01 
    8.9517358934186362E+00 
    1.7659224630509204E+01 
    1.4093037734031720E+01 
    1.3059856882853548E+01 
    1.2557794511048030E+01 
    1.7446428125140933E+01 
    1.3638225641134497E+01 
    1.7641131056360393E+01 
    1.2736163040249187E+01 
    7.9940162415679907E+00 
    1.3017533055282495E+01 
    1.1182310588899460E+01 
    1.5921941050874628E+01 
    1.9055784661538212E+01 
    1.7631103890226044E+01 
    1.8904893425461420E+01 
    1.2651089688590309E+01 
    8.7059800849699602E+00 
    8.8179407123967231E+00 
    1.3267577760870070E+01 
    1.2913618196380684E+01 
    1.9970516372467995E+00 
    1.6873493328751586E+01 
    1.9498410949249696E+01 
    1.2416131655357118E+01 
    8.1181397621830946E+00 
    1.4795724137765879E+01 
    1.7655759922927629E+01 
    9.5912053865484008E+00 
    6.5976243219093202E+00 
    1.2898851426860036E+01 
    1.7743835277617478E+01 
    1.8582610058508173E+01 
    1.8374543972173559E+01 
    1.8261999657682075E+01 
    9.3248578302142420E+00 
    1.3053745640639089E+01 
    1.7032759127494607E+01 
    1.0231741760396456E+01 
    1.8007139425292952E+01 
    1.5216494693835475E+01 
    8.9310675232225574E+00 
    1.7751542029831068E+01 
    1.8960160460625499E+01 
    1.7726529619470515E+01 
    9.2536376320197320E+00 
    1.2963296563685375E+01 
    1.0142993539111572E+01 
    1.2271029199363591E+01 
    1.7646349303317994E+01 
    1.7631419255523138E+01 
    9.3053436330460180E+00 
    1.8720849971963741E+01 
    1.3564763066414240E+01 
    1.7666013175805549E+01 
    1.8720105281517927E+01 
    1.7652887035929584E+01 
    1.6203878059969906E+01 
    1.9866440857988032E+01 
    1.2357888650919049E+01 
    1.8867637311437193E+01 
    1.7699185661805249E+01 
    1.8955994266301303E+01 
    1.8718064016788155E+01 
    1.2472451144038370E+01 
    1.2813320439749324E+01 
    1.2406399451706063E+01 
    1.5539647104439606E+01 
    5.3775036756408534E+00 
    1.3196143599042463E+01 
    2.0001737843466977E+01 
    1.3192032594241871E+01 
    1.3415102426978068E+01 
    1.8923326622767512E+01 
    1.9194566817730365E+01 
    1.2255894015673865E+01 
    1.7664687113758429E+01 
    1.7625942876207546E+01 
    1.3400035666170513E+01 
    1.8664781289921414E+01 
    9.3996851822494651E+00 
    6.0337248063012270E+00 
    1.3739500682557797E+01 
    1.3205670315491883E+01 
    1.7628499441436478E+01 
    8.7197883136234342E+00 
    1.8290529597596144E+01 
    6.1777185281580103E+00 
    1.3139399331171809E+01 
    1.2491824514956093E+01 
    1.2940090866305018E+01 
    2.1385467356574118E+01 
    5.2273956494319398E+00 
    1.3102155668813914E+01 
    1.5531698539572538E+01 
    1.2543882767309105E+01 
    1.0108627941045615E+01 
    1.8488118817035446E+01 
    2.0933177649933668E+01 
    1.8629089888319029E+01 
    1.3033510727945758E+01 
    7.6753538518981932E+00 
    2.0770099355155928E+01 
    1.7985388400234193E+01 
    9.6233044202605988E+00 
    1.2639736941797240E+01 
    1.9417411414417039E+01 
    4.4372241775710801E+00 
    1.3267698537652835E+01 
    1.8626917723236001E+01 
    1.2955644015966124E+01 
    1.1358560099699886E+01 
    1.3147403656372935E+01 
    1.7124271693923689E+01 
    1.2938076130207955E+01 
    6.8601541802798618E+00 
    1.2818946121514849E+00 
    9.8075956947468423E+00 
    1.9698884057588469E+01 
    1.2405546052291646E+01 
    1.4560313138753433E+01 
    1.3988122199033768E+01 
    1.5929105623382398E+01 
    1.2969065785231491E+01 
    1.7863330118484175E+01 
    2.1400015701824884E+01 
    1.5162199514893729E+01 
    1.8833668699375472E+01 
    7.5465258567932869E-01 
    1.7633719698846718E+01 
    7.5056435846841003E+00 
    2.0185439347904133E+01 
    1.3117659081688769E+01 
    1.1588134169852598E+01 
    1.0333987816157769E+01 
    7.2061273948981031E+00 
    1.4296312916612777E+01 
    1.0358718349471259E+01 
    1.5784241057938274E+01 
    3.0053116915511571E+00 
    1.4138049196563918E+01 
    1.7532949543547737E+01 
    8.0023833328354232E+00 
    1.8171095325890210E+01 
    1.9953108665888500E+01 
    1.8006968955871724E+01 
    1.2962937978603010E+01 
    1.2933813877354245E+01 
    1.3109384948483173E+01 
    7.7887675931942537E+00 
    1.2090593628268152E+01 
    1.1910403779300184E+01 
    1.3096885313255529E+01 
    1.2327504608607722E+01 
    9.6659423958397672E-01 
    8.5372529234078911E+00 
    1.2761926248167031E+01 
    1.3068123535417367E+01 
    1.6240144416423355E+01 
    2.9079525412227980E+00 
    1.3351698193792551E+01 
    1.3214085545407482E+01 
    5.0234032340815578E+00 
    1.7842531693397898E+01 
    1.1524580240024811E+01 
    1.3068984518074286E+01 
    1.7979995402880718E+01 
    7.2311121869669623E+00 
    1.7971684250156500E+01 
    1.1671196847559910E+01 
    1.3229009101505778E+00 
    1.2474579285756125E+01 
    1.8758412066521132E+01 
    1.7633417266783219E+01 
    1.7655457537448591E+01 
    1.3500744854802321E+01 
    1.3142289101554127E+01 
    1.1514149141562957E+01 
    9.2310573006111039E+00 
    1.8116402253722217E+01 
    1.2634476250090032E+01 
    8.9783687825754637E+00 
    1.7650664074019645E+01 
    1.8484077646145629E+01 
    1.3293429259668866E+01 
    1.2759935477873153E+01 
    2.1274411010949759E+01 
    1.3401197189605650E+01 
    1.8149371521360219E+01 
    1.0988811905644969E+01 
    2.1428002599588130E+01 
    8.7639468724213607E+00 
    1.1958772922678657E+01 
    9.8174690278474657E+00 
    1.3680318076505058E+01 
    1.1140180488841484E+01 
    2.1411309923985108E+01 
    1.3459110196859870E+01 
    1.7109651161676073E+01 
    9.0197192262148711E+00 
    1.2963666352840887E+01 
    1.7942391804781852E+01 
    1.1212053919698258E+01 
    9.6084672158536026E+00 
    1.4473040391643918E+01 
    1.8251397856407092E+01 
    9.6112513349181796E+00 
    1.2516773541871345E+01 
    1.2797436010908580E+01 
    1.7603113554410061E+01 
    1.2565779771473787E+01 
    1.8213553628398255E+01 
    1.8990899969794363E+01 
    1.1546584530833826E+01 
    1.1340589265929037E+01 
    1.0376089353818735E+01 
    1.7780119966618727E+01 
    1.3230188283916187E+01 
    2.0972028117164168E+01 
    1.6406064426131291E+01 
    1.7885395480056115E+01 
    2.0632872225791264E+01 
    1.9956507251108995E+01 
    1.3010498544333387E+01 
    1.3079542044410546E+01 
    1.7234621609020834E+01 
    1.7682681679389329E+01 
    1.8342222806353242E+01 
    1.8012501452602820E+01 
    2.1299711108484747E+01 
    1.3400613757524940E+01 
    1.1666286316378605E+01 
    1.3365862428545086E+01 
    1.8885306216990774E+01 
    1.3106223616320547E+01 
    7.8807555650035619E+00 
    1.2944468347250044E+01 
    1.9392303048948389E+01 
    1.3255948692253842E+01 
    1.1673964590305982E+01 
    1.2739223608469196E+01 
    1.9515677040531124E+01 
    1.7692718425145962E+01 
    1.1137387544296015E+01 
    1.9672837768149197E+01 
    1.3039142363855635E+01 
    1.8342969186543179E+01 
    1.9529193154867471E+01 
    1.3762964400828537E+01 
    7.2316852603184394E+00 
    1.4274562901197578E+01 
    7.4724852173067084E+00 
    1.3156625191734941E+01 
    1.2959870477172599E+01 
    1.4999214481607440E+01 
    7.8842928373774637E+00 
    1.5920191099081308E+01 
    1.2976463586905425E+01 
    1.7999553460036754E+01 
    1.3903622619212689E+01 
    1.0752951158938862E+01 
    1.2597008393117285E+01 
    1.3675878699698751E+01 
    1.3525483735591466E+01 
    1.9055860300100832E+01 
    1.1196440106653448E+01 
    1.1015975747944017E+01 
    8.2725357744120931E+00 
    1.8374778512761079E+01 
    1.2643989335198324E+01 
    1.7396246266361572E+01 
    1.2929147369564005E+01 
    9.0135708335264084E+00 
    1.7715157956641782E+01 
    1.2906227260309825E+01 
    9.8275738041319176E+00 
    1.0405587953627029E+01 
    1.0756369331805550E+01 
    1.8038816901599617E+01 
    1.3099152410339149E+01 
    1.8848079401537817E+01 
    1.2867425001567767E+01 
    1.2807311328845714E+01 
    1.2424379579693209E+01 
    1.7825835660232794E+01 
    1.2720817381814742E+01 
    1.0809723755260020E+01 
    1.9943118795621807E+01 
    1.7930436632459106E+01 
    9.1863089034425940E+00 
    3.6737315758805287E+00 
    1.3087256490790722E+01 
    1.2245543544649561E+01 
    1.1332040355388367E+01 
    1.2196098276588023E+01 
    1.7897804681728992E+01 
    1.2752808275019452E+01 
    1.1709229979694879E+01 
    1.7710874587655510E+01 
    9.0927602936250782E+00 
    1.7195765872348289E+01 
    1.1821577496962416E+01 
    1.0659414389408413E+01 
    1.1430698538330216E+01 
    1.8449471365295874E+01 
    1.2942555288583810E+01 
    1.2951131115972318E+01 
    8.0062774682497579E+00 
    8.6340033363262840E+00 
    1.6227514938887047E+01 
    1.2961086816709210E+01 
    1.3132570130963714E+01 
    1.9659522615151239E+01 
    1.1008936903562262E+01 
    1.2973448981322720E+01 
    9.3938355621139884E+00 
    9.6755729876196988E+00 
    1.7781696817061214E+01 
    1.2590643395133545E+01 
    9.4924905862503444E+00 
    1.3512365413093141E+01 
    1.2866170466159296E+01 
    1.7799049929596045E+01 
    1.9763672605995371E+01 
    1.4009209663144075E+00 
    1.3092810561595162E+01 
    1.3204436815312858E+01 
    1.7905196380780986E+01 
    1.2553810737998894E+01 
    1.2914494293503331E+01 
    1.9141709711736635E+01 
    1.1471440559138856E+01 
    9.5723004206345728E+00 
    1.5409446221889111E+01 
    1.7650998951374600E+01 
    1.8953824164546972E+01 
    1.9265621523891721E+01 
    1.2913845016025533E+01 
    1.3083086659204083E+01 
    1.4356451662648784E+01 
    8.7530021125673780E+00 
    1.7820446891240898E+01 
    1.0297212107829703E+01 
    9.0874824476719898E+00 
    1.6004891845685361E+01 
    1.5046039658367247E+01 
    8.9238568034084462E+00 
    1.7696748291728273E+01 
    1.8937150969833695E+01 
    1.3419640806708477E+01 
    1.9879453621155747E+01 
    1.7739916015405434E+01 
    1.2620206841100911E+01 
    1.8590612929216796E+01 
    9.6883159182955154E+00 
    1.7674921539227888E+01 
    1.3091578814248146E+01 
    1.3048413532978110E+01 
    1.9858208143490039E+01 
    1.2687163664905023E+01 
    1.5657933538300810E+01 
    1.1406578386862643E+01 
    1.9079058234235909E+01 
    1.7549899269191982E+01 
    1.1861958496991402E+01 
    1.7618193692700480E+01 
    1.1895647908795226E+01 
    1.2921250510740519E+01 
    1.8887896450182911E+01 
    1.8002882169154482E+01 
    1.8940800384367492E+01 
    1.7908759099993194E+01 
    1.2104902079549014E+01 
    1.2341506869982325E+01 
    1.8949642698209438E+01 
    1.2485802246415835E+01 
    1.7395407918363901E+01 
    1.2666962322189773E+01 
    5.4366221778580934E+00 
    9.1537824333569269E+00 
    8.5048390994185574E+00 
    1.8892137912361559E+01 
    1.9773054245641418E+01 
    1.7641817973355863E+01 
    1.4760884114606695E+01 
    1.8007157004286935E+01 
    1.7708323900757183E+01 
    1.8455973566219168E+01 
    7.7360369389151469E+00 
    5.0566080833939075E+00 
    1.4493216527891468E+01 
    1.2726499655339417E+01 
    1.7903843635348462E+01 
    1.7901297095615554E+01 
    1.3224395482198256E+01 
    1.7948822825309062E+01 
    1.3076621826793319E+01 
    1.2978766355526101E+01 
    7.0045937170160446E+00 
    5.0298410457805591E+00 
    1.9507669829419171E+01 
    1.0252998473915271E+01 
    1.1776022755367705E+01 
    1.3118563892916809E+01 
    2.1277322850052531E+01 
    1.3214792689081834E+01 
    1.3418566949785031E+01 
    5.7462828201051384E+00 
    1.3214611358904628E+01 
    1.3229571001296009E+01 
    1.8215652398146936E+01 
    1.1433252801634165E+01 
    1.2451237235305015E+01 
    1.9706122991726986E+01 
    1.3102211806067398E+01 
    1.7662409340544876E+01 
    1.7937647342500441E+01 
    1.5737611914864710E+01 
    1.1100330664406277E+01 
    1.7906292786583560E+01 
    1.2874915074227886E+01 
    1.7858980035691541E+01 
    1.7585564237236643E+01 
    1.8915683421378574E+01 
    1.7908597516347989E+01 
    1.6613925983804130E+01 
    1.3089387680919815E+01 
    8.8364404493370809E+00 
    2.1144806682072513E+01 
    1.0501569825628298E+01 
    1.8813096479712065E+01 
    1.3086485980443477E+01 
    1.1063582426455538E+01 
    6.6875784516661403E+00 
    1.3268651000136437E+01 
    1.7890245529682367E+01 
    1.7876588311644358E+01 
    1.2900952822109769E+01 
    1.3079969286665632E+01 
    1.9937468302350748E+01 
    1.9197483868434254E+01 
    1.3236272699897775E+01 
    4.7062594612774138E+00 
    1.6499299433861612E+01 
    2.1407896763537597E+01 
    1.3093098950028251E+01 
    1.5228527376979340E+01 
    1.2552526899738465E+01 
    2.0992958400970405E+01 
    1.9296829399029626E+01 
    1.9015775867831369E+01 
    1.3260397721735762E+01 
    6.2300887829118556E+00 
    1.2506862905444489E+01 
    1.2578589713122499E+01 
    1.2623637573366906E+01 
    5.1459043120230126E+00 