# vtk DataFile Version 2.0
Pressure Field Data 
ASCII 
DATASET UNSTRUCTURED_GRID 

POINTS 2860 double 

    0.0000000000000000E+00     0.0000000000000000E+00     0.0000000000000000E+00 
    1.0000000000000000E+00     0.0000000000000000E+00     0.0000000000000000E+00 
    1.0000000000000000E+00     1.0000000000000000E+00     0.0000000000000000E+00 
    0.0000000000000000E+00     1.0000000000000000E+00     0.0000000000000000E+00 
    2.5000000000000000E-01     2.5000000000000000E-01     0.0000000000000000E+00 
    7.5000000000000000E-01     2.5000000000000000E-01     0.0000000000000000E+00 
    7.5000000000000000E-01     7.5000000000000000E-01     0.0000000000000000E+00 
    2.5000000000000000E-01     7.5000000000000000E-01     0.0000000000000000E+00 
    3.1249999999942091E-02     0.0000000000000000E+00     0.0000000000000000E+00 
    6.2499999999873469E-02     0.0000000000000000E+00     0.0000000000000000E+00 
    9.3749999999826514E-02     0.0000000000000000E+00     0.0000000000000000E+00 
    1.2499999999977961E-01     0.0000000000000000E+00     0.0000000000000000E+00 
    1.5624999999968961E-01     0.0000000000000000E+00     0.0000000000000000E+00 
    1.8749999999959971E-01     0.0000000000000000E+00     0.0000000000000000E+00 
    2.1874999999950970E-01     0.0000000000000000E+00     0.0000000000000000E+00 
    2.4999999999941969E-01     0.0000000000000000E+00     0.0000000000000000E+00 
    2.8124999999932920E-01     0.0000000000000000E+00     0.0000000000000000E+00 
    3.1249999999923850E-01     0.0000000000000000E+00     0.0000000000000000E+00 
    3.4374999999914790E-01     0.0000000000000000E+00     0.0000000000000000E+00 
    3.7499999999905720E-01     0.0000000000000000E+00     0.0000000000000000E+00 
    4.0624999999896660E-01     0.0000000000000000E+00     0.0000000000000000E+00 
    4.3749999999887590E-01     0.0000000000000000E+00     0.0000000000000000E+00 
    4.6874999999878530E-01     0.0000000000000000E+00     0.0000000000000000E+00 
    4.9999999999869471E-01     0.0000000000000000E+00     0.0000000000000000E+00 
    5.3124999999877620E-01     0.0000000000000000E+00     0.0000000000000000E+00 
    5.6249999999885780E-01     0.0000000000000000E+00     0.0000000000000000E+00 
    5.9374999999893940E-01     0.0000000000000000E+00     0.0000000000000000E+00 
    6.2499999999902101E-01     0.0000000000000000E+00     0.0000000000000000E+00 
    6.5624999999910261E-01     0.0000000000000000E+00     0.0000000000000000E+00 
    6.8749999999918421E-01     0.0000000000000000E+00     0.0000000000000000E+00 
    7.1874999999926570E-01     0.0000000000000000E+00     0.0000000000000000E+00 
    7.4999999999934730E-01     0.0000000000000000E+00     0.0000000000000000E+00 
    7.8124999999942890E-01     0.0000000000000000E+00     0.0000000000000000E+00 
    8.1249999999951039E-01     0.0000000000000000E+00     0.0000000000000000E+00 
    8.4374999999959199E-01     0.0000000000000000E+00     0.0000000000000000E+00 
    8.7499999999967359E-01     0.0000000000000000E+00     0.0000000000000000E+00 
    9.0624999999975520E-01     0.0000000000000000E+00     0.0000000000000000E+00 
    9.3749999999983680E-01     0.0000000000000000E+00     0.0000000000000000E+00 
    9.6874999999991840E-01     0.0000000000000000E+00     0.0000000000000000E+00 
    1.0000000000000000E+00     3.1249999999942091E-02     0.0000000000000000E+00 
    1.0000000000000000E+00     6.2499999999873469E-02     0.0000000000000000E+00 
    1.0000000000000000E+00     9.3749999999826514E-02     0.0000000000000000E+00 
    1.0000000000000000E+00     1.2499999999977961E-01     0.0000000000000000E+00 
    1.0000000000000000E+00     1.5624999999968961E-01     0.0000000000000000E+00 
    1.0000000000000000E+00     1.8749999999959971E-01     0.0000000000000000E+00 
    1.0000000000000000E+00     2.1874999999950970E-01     0.0000000000000000E+00 
    1.0000000000000000E+00     2.4999999999941969E-01     0.0000000000000000E+00 
    1.0000000000000000E+00     2.8124999999932920E-01     0.0000000000000000E+00 
    1.0000000000000000E+00     3.1249999999923850E-01     0.0000000000000000E+00 
    1.0000000000000000E+00     3.4374999999914790E-01     0.0000000000000000E+00 
    1.0000000000000000E+00     3.7499999999905720E-01     0.0000000000000000E+00 
    1.0000000000000000E+00     4.0624999999896660E-01     0.0000000000000000E+00 
    1.0000000000000000E+00     4.3749999999887590E-01     0.0000000000000000E+00 
    1.0000000000000000E+00     4.6874999999878530E-01     0.0000000000000000E+00 
    1.0000000000000000E+00     4.9999999999869471E-01     0.0000000000000000E+00 
    1.0000000000000000E+00     5.3124999999877620E-01     0.0000000000000000E+00 
    1.0000000000000000E+00     5.6249999999885780E-01     0.0000000000000000E+00 
    1.0000000000000000E+00     5.9374999999893940E-01     0.0000000000000000E+00 
    1.0000000000000000E+00     6.2499999999902101E-01     0.0000000000000000E+00 
    1.0000000000000000E+00     6.5624999999910261E-01     0.0000000000000000E+00 
    1.0000000000000000E+00     6.8749999999918421E-01     0.0000000000000000E+00 
    1.0000000000000000E+00     7.1874999999926570E-01     0.0000000000000000E+00 
    1.0000000000000000E+00     7.4999999999934730E-01     0.0000000000000000E+00 
    1.0000000000000000E+00     7.8124999999942890E-01     0.0000000000000000E+00 
    1.0000000000000000E+00     8.1249999999951039E-01     0.0000000000000000E+00 
    1.0000000000000000E+00     8.4374999999959199E-01     0.0000000000000000E+00 
    1.0000000000000000E+00     8.7499999999967359E-01     0.0000000000000000E+00 
    1.0000000000000000E+00     9.0624999999975520E-01     0.0000000000000000E+00 
    1.0000000000000000E+00     9.3749999999983680E-01     0.0000000000000000E+00 
    1.0000000000000000E+00     9.6874999999991840E-01     0.0000000000000000E+00 
    9.6875000000003686E-01     1.0000000000000000E+00     0.0000000000000000E+00 
    9.3750000000011691E-01     1.0000000000000000E+00     0.0000000000000000E+00 
    9.0625000000015765E-01     1.0000000000000000E+00     0.0000000000000000E+00 
    8.7500000000017863E-01     1.0000000000000000E+00     0.0000000000000000E+00 
    8.4375000000028044E-01     1.0000000000000000E+00     0.0000000000000000E+00 
    8.1250000000040856E-01     1.0000000000000000E+00     0.0000000000000000E+00 
    7.8125000000054956E-01     1.0000000000000000E+00     0.0000000000000000E+00 
    7.5000000000066480E-01     1.0000000000000000E+00     0.0000000000000000E+00 
    7.1875000000086831E-01     1.0000000000000000E+00     0.0000000000000000E+00 
    6.8750000000102829E-01     1.0000000000000000E+00     0.0000000000000000E+00 
    6.5625000000114431E-01     1.0000000000000000E+00     0.0000000000000000E+00 
    6.2500000000129829E-01     1.0000000000000000E+00     0.0000000000000000E+00 
    5.9375000000147926E-01     1.0000000000000000E+00     0.0000000000000000E+00 
    5.6250000000168354E-01     1.0000000000000000E+00     0.0000000000000000E+00 
    5.3125000000188671E-01     1.0000000000000000E+00     0.0000000000000000E+00 
    5.0000000000205835E-01     1.0000000000000000E+00     0.0000000000000000E+00 
    4.6875000000192979E-01     1.0000000000000000E+00     0.0000000000000000E+00 
    4.3750000000180111E-01     1.0000000000000000E+00     0.0000000000000000E+00 
    4.0625000000167238E-01     1.0000000000000000E+00     0.0000000000000000E+00 
    3.7500000000154382E-01     1.0000000000000000E+00     0.0000000000000000E+00 
    3.4375000000141509E-01     1.0000000000000000E+00     0.0000000000000000E+00 
    3.1250000000128642E-01     1.0000000000000000E+00     0.0000000000000000E+00 
    2.8125000000115769E-01     1.0000000000000000E+00     0.0000000000000000E+00 
    2.5000000000102918E-01     1.0000000000000000E+00     0.0000000000000000E+00 
    2.1875000000090050E-01     1.0000000000000000E+00     0.0000000000000000E+00 
    1.8750000000077180E-01     1.0000000000000000E+00     0.0000000000000000E+00 
    1.5625000000064329E-01     1.0000000000000000E+00     0.0000000000000000E+00 
    1.2500000000051459E-01     1.0000000000000000E+00     0.0000000000000000E+00 
    9.3750000000385914E-02     1.0000000000000000E+00     0.0000000000000000E+00 
    6.2500000000257239E-02     1.0000000000000000E+00     0.0000000000000000E+00 
    3.1250000000128557E-02     1.0000000000000000E+00     0.0000000000000000E+00 
    0.0000000000000000E+00     9.6875000000003686E-01     0.0000000000000000E+00 
    0.0000000000000000E+00     9.3750000000011691E-01     0.0000000000000000E+00 
    0.0000000000000000E+00     9.0625000000015765E-01     0.0000000000000000E+00 
    0.0000000000000000E+00     8.7500000000017863E-01     0.0000000000000000E+00 
    0.0000000000000000E+00     8.4375000000028044E-01     0.0000000000000000E+00 
    0.0000000000000000E+00     8.1250000000040856E-01     0.0000000000000000E+00 
    0.0000000000000000E+00     7.8125000000054956E-01     0.0000000000000000E+00 
    0.0000000000000000E+00     7.5000000000066480E-01     0.0000000000000000E+00 
    0.0000000000000000E+00     7.1875000000086831E-01     0.0000000000000000E+00 
    0.0000000000000000E+00     6.8750000000102829E-01     0.0000000000000000E+00 
    0.0000000000000000E+00     6.5625000000114431E-01     0.0000000000000000E+00 
    0.0000000000000000E+00     6.2500000000129829E-01     0.0000000000000000E+00 
    0.0000000000000000E+00     5.9375000000147926E-01     0.0000000000000000E+00 
    0.0000000000000000E+00     5.6250000000168354E-01     0.0000000000000000E+00 
    0.0000000000000000E+00     5.3125000000188671E-01     0.0000000000000000E+00 
    0.0000000000000000E+00     5.0000000000205835E-01     0.0000000000000000E+00 
    0.0000000000000000E+00     4.6875000000192979E-01     0.0000000000000000E+00 
    0.0000000000000000E+00     4.3750000000180111E-01     0.0000000000000000E+00 
    0.0000000000000000E+00     4.0625000000167238E-01     0.0000000000000000E+00 
[...]
CELL_DATA 2795 
SCALARS Pressure double 1 
LOOKUP_TABLE default 

    8.4975066477814138E+00 
    1.8708118571318487E+01 
    1.3203966021499696E+01 
    1.2907306803021690E+01 
    1.0411590624853980E+01 
    1.8526383969292937E+01 
    1.9485343544935780E+01 
    7.6172269336201364E+00 
    1.3749717898905130E+01 
    1.0672754676043020E+01 
    9.1494574838425571E+00 
    1.8163062077648650E+01 
    1.8556492322801432E+01 
    1.8481919118527504E+01 
    1.2235750472795413E+01 
    7.4835343154517577E+00 
    1.1975860264486936E+01 
    9.7210223313567710E+00 
    1.7604804902867141E+01 
    1.3184295489866024E+01 
    1.3082356988623772E+01 
    1.8386337379592558E+01 
    1.2588817279117563E+01 
    5.2519129238439821E-01 
    1.8062358694166949E+01 
    1.8544074674402435E+01 
    1.9526008827512758E+01 
    8.8219661481224563E+00 
    1.8041196686424716E+01 
    1.9506473020804989E+01 
    1.3404705834737705E+01 
    1.3386735793921126E+01 
    9.5387323234260784E+00 
    1.3167632039476276E+01 
    4.3406215410583533E+00 
    1.1976935971424053E+01 
    1.3152734687982237E+01 
    1.9555755579371752E+01 
    1.9457021396787347E+01 
    1.8180605730584464E+01 
    1.0262386164337732E+01 
    1.8128362288029638E+01 
    1.0848298102599039E+00 
    1.3174795290261315E+01 
    1.9192287790592154E+01 
    1.8908160806990661E+01 
    1.8148306215439007E+01 
    1.4164254809394292E+01 
    1.8187246891608869E+01 
    1.2243601625151346E+01 
    1.1692804477313356E+01 
    1.3350219024321555E+01 
    1.3065679659332966E+01 
    1.2055293539401234E+01 
    1.3483855011588910E+01 
    1.7300872782080049E+01 
    1.5347794941261544E+01 
    1.0466271763449891E+01 
    1.8397856303841472E+01 
    1.8280455870004225E+01 
    1.2871069106230935E+01 
    1.2729645560055484E+01 
    1.2795450461659089E+01 
    1.9382400663670023E+01 
    1.9723153500115448E+01 
    1.1997765829276847E+01 
    1.3348478176823569E+01 
    1.7861830911123839E+01 
    1.5168982672003519E+01 
    1.2796874088787833E+01 
    1.9719217119287439E+01 
    1.8289903051830180E+01 
    1.1832682339112999E+01 
    1.9035973135684198E+01 
    1.3753319994597369E+01 
    1.7902681115939696E+01 
    1.9583523992520671E+01 
    1.3786158906379592E+01 
    8.5719173732461993E+00 
    1.3367355675934265E+01 
    1.9467448176924453E+01 
    1.9752375011028825E+01 
    1.1994391499855714E+01 
    1.3293738004949059E+01 
    1.9815810380354495E+01 
    1.3150628934906349E+01 
    1.2693471315752276E+01 
    1.5707706110476758E+01 
    8.2312843815622188E+00 
    1.1728354851075133E+01 
    1.3290648829164040E+01 
    1.3905663780306954E+01 
    2.1500790759025584E+01 
    1.0121192049637266E+01 
    1.3356618547945889E+01 
    1.8118184538806780E+01 
    1.8473271412522369E+01 
    8.9308021680904766E+00 
    1.3010161127907514E+01 
    1.3324538447805727E+01 
    1.8514043066075107E+01 
    1.3313778623755741E+01 
    1.8391459690450219E+01 
    5.4323178721349734E+00 
    8.8883299557787563E+00 
    1.3583004555516586E+01 
    1.8722344801316286E+01 
    1.1935757032217927E+01 
    1.2599567459502650E+01 
    1.3289140554080214E+01 
    1.2656383998351473E+01 
    1.4925751634252103E+01 
    1.2285510772398537E+01 
    1.1842679621149406E+01 
    9.3019864980401294E+00 
    1.5671254603278404E+01 
    1.3391584337265849E+01 
    1.9273781310654758E+01 
    1.1556961973039005E+01 
    1.2884300503089523E+01 
    1.8295602946738377E+01 
    1.0858642150014688E+01 
    1.8916662284815402E+01 
    1.3222925023858370E+01 
    1.2805682859149082E+01 
    1.8481998515319045E+01 
    1.3380185201279188E+01 
    1.9593382286697306E+01 
    1.5736697446533510E+01 
    1.7062399073196758E+01 
    1.9547222239212015E+01 
    1.0140501697370908E+01 
    1.3603574862388479E+01 
    1.8508863387702231E+01 
    4.0555133292648282E+00 
    1.3459210774404752E+01 
    1.9504603741391470E+01 
    1.2836007090540010E+01 
    1.4589968652636538E+01 
    8.7873197307365611E+00 
    1.8118163444212694E+01 
    2.2029684472938978E+01 
    1.6355532446302863E+01 
    1.2838052438212138E+01 
    1.1594141293959799E+01 
    1.4220454747023609E+01 
    1.3239908275484060E+01 
    9.2783558145600988E+00 
    1.9541832414159131E+01 
    1.8542004449029555E+01 
    1.8120562656611245E+01 
    1.3907696611592963E+01 
    1.1806590002208932E+01 
    1.3076933758783611E+01 
    1.9070341325133313E+01 
    1.2101796901627379E+01 
    1.3356602311021593E+01 
    1.2301604001725085E+01 
    1.5448158050512419E+01 
    2.2017037023928786E+01 
    1.8107792008417949E+01 
    1.1641069282432467E+01 
    1.8765274386773331E+01 
    1.8665488711110957E+01 
    1.8774379785998310E+01 
    2.0063021483364011E+01 
    2.0701969200901058E+01 
    1.8884348298265753E+01 
    1.3339858816962400E+01 
    1.4376819514935098E+01 
    1.8667819296119781E+01 
    1.9276073119415010E+01 
    9.7020780685652497E+00 
    1.8146485325023857E+01 
    1.9016978541970413E+01 
    9.4352944019790730E+00 
    2.0001172068933560E+01 
    1.9934675953924675E+01 
    1.7693891080569351E+01 
    1.3678382445628067E+01 
    3.5851644019771265E+00 
    1.9506021125774264E+01 
    1.3518448097092985E+01 
    1.9663596692704395E+01 
    1.2753847664628294E+01 
    1.9228415077743261E+01 
    1.3469377047910389E+00 
    1.7058316311312161E+01 
    1.2778919078525822E+01 
    1.1749802793948781E+01 
    1.1468900866963933E+01 
    1.3190323385411096E+01 
    1.4472792576709848E+01 
    1.3853950621952494E+01 
    9.4029655323970633E+00 
    1.9279060668662819E+01 
    1.8549187276099353E+01 
    1.5311778400367901E+01 
    1.3573347934833313E+01 
    2.0690383937070664E+00 
    1.0603132755005955E+01 
    7.3688209792700885E+00 
    1.9522098750940163E+01 
    1.4764328497472855E+01 
    1.8562769647337987E+01 
    1.8638906012947878E+01 
    1.2188699156014994E+01 
    1.5387784690854483E+01 
    1.8106245104380843E+01 
    1.9920154202721729E+01 
    8.7850504701245988E+00 
    1.6355533094537808E+01 
    1.3821632731157496E+01 
    7.8497455041750950E+00 
    1.2189637402483406E+01 
    1.6062906759944529E+01 
    1.8586353500612162E+01 
    1.3241480580154084E+01 
    1.8742152552681091E+01 
    1.8410067720121372E+01 
    1.8343989845554216E+01 
    1.3079904727179468E+01 
    1.1620830591609048E+01 
    1.8131258037305923E+01 
    1.1827987707457396E+01 
    1.3323049610079174E+01 
    1.1615110180824404E+01 
    1.3306242563526181E+01 
    1.8650949943846808E+01 
    8.3604285440100377E+00 
    1.2079049167355292E+01 
    1.9419515070674894E+01 
    1.3086983682897280E+01 
    1.4643666952460185E+01 
    8.5784136056640214E+00 
    1.1900886784541262E+01 
    1.8378261179708350E+01 
    1.8817782290288388E+01 
    7.0258504755146989E+00 
    1.3102073226087738E+01 
    1.1659475874619234E+01 
    2.0433377895511203E+01 
    1.9769265469483852E+01 
    2.0738209915105344E+01 
    1.3122223335492057E+01 
    1.8613922792882331E+01 
    1.8020118587535723E+01 
    1.2974153456801410E+01 
    1.8120778886345217E+01 
    1.3573647500022890E+01 
    7.9149588808461910E+00 
    1.3510053253450572E+01 
    1.9398163024127594E+01 
    1.8116105998638389E+01 
    9.1302699119549100E+00 
    1.8157299149202430E+01 
    1.4505372730840262E+01 
    1.3435535481616464E+01 
    1.2919296542242218E+01 
    1.7898978797450841E+01 
    1.4033045374672374E+01 
    1.8138439509977047E+01 
    1.3104957117982124E+01 
    8.1427430898110789E+00 
    1.3401302049218751E+01 
    1.1473079614215500E+01 
    1.6383516732367625E+01 
    1.9656400048735353E+01 
    1.8129742007738908E+01 
    1.9496128417764361E+01 
    1.3024618089239048E+01 
    8.8773624416456176E+00 
    8.9951337291254365E+00 
    1.3650357959954558E+01 
    1.3293323670187476E+01 
    2.0479223433133638E+00 
    1.7338964954840158E+01 
    2.0121949717792223E+01 
    1.2773228265198050E+01 
    8.2799669389130290E+00 
    1.5223404343910250E+01 
    1.8152489729475381E+01 
    9.8108933056700014E+00 
    6.7205080527094401E+00 
    1.3278983535946573E+01 
    1.8253347666495156E+01 
    1.9159762794854142E+01 
    1.8926902525043396E+01 
    1.8824534451662014E+01 
    9.5278286563670100E+00 
    1.3429791964244751E+01 
    1.7523535371477575E+01 
    1.0482657860473649E+01 
    1.8537161021762945E+01 
    1.5661197137150763E+01 
    9.1195764032551931E+00 
    1.8252564798502984E+01 
    1.9553887159266079E+01 
    1.8237696653216819E+01 
    9.4523193916483894E+00 
    1.3344381541429733E+01 
    1.0381972992227222E+01 
    1.2619568879375459E+01 
    1.8143094198189598E+01 
    1.8126856093848879E+01 
    9.5116223533076667E+00 
    1.9286175037086249E+01 
    1.3962545028376997E+01 
    1.8171666545047291E+01 
    1.9301077742341619E+01 
    1.8154105209216940E+01 
    1.6672959513979947E+01 
    2.0511138079813254E+01 
    1.2709930862882361E+01 
    1.9456937842355757E+01 
    1.8203324404239687E+01 
    1.9550462781251856E+01 
    1.9279256347423090E+01 
    1.2830081790657323E+01 
    1.3192782980450346E+01 
    1.2763368242183432E+01 
    1.5991028335862866E+01 
    5.4595643168570893E+00 
    1.3576494711306175E+01 
    2.0649608166188475E+01 
    1.3579546364352733E+01 
    1.3808762732403251E+01 
    1.9515959082975677E+01 
    1.9797930769497679E+01 
    1.2597135918823815E+01 
    1.8162973669351640E+01 
    1.8122127168227667E+01 
    1.3793280692436467E+01 
    1.9221292686859751E+01 
    9.6234176244954419E+00 
    6.1349539167686329E+00 
    1.4142090007173611E+01 
    1.3593564037277321E+01 
    1.8119722211265969E+01 
    8.9119521677296003E+00 
    1.8834849044506775E+01 
    6.2255084590091156E+00 
    1.3525445928955962E+01 
    1.2843430466128520E+01 
    1.3320534356391981E+01 
    2.2068100148795121E+01 
    5.2940133433848562E+00 
    1.3479474225983461E+01 
    1.5973513108861434E+01 
    1.2913497910254447E+01 
    1.0344160923433810E+01 
    1.9054398749904834E+01 
    2.1603208352036614E+01 
    1.9200224994732331E+01 
    1.3408086638434815E+01 
    7.8240277744776101E+00 
    2.1439653383019369E+01 
    1.8526533874283224E+01 
    9.8279466010294545E+00 
    1.3006643264822946E+01 
    2.0038941550185189E+01 
    4.5034316439164250E+00 
    1.3657298346244911E+01 
    1.9201949875080892E+01 
    1.3336765932560462E+01 
    1.1663505267941970E+01 
    1.3526199655322495E+01 
    1.7628834318120528E+01 
    1.3318827373268777E+01 
    6.9840957681207048E+00 
    1.3284887280437179E+00 
    1.0047115944414273E+01 
    2.0338978740902299E+01 
    1.2762858090331513E+01 
    1.4984225388090785E+01 
    1.4393813267964582E+01 
    1.6396249875527307E+01 
    1.3350590383127839E+01 
    1.8394949571374106E+01 
    2.2082854458083986E+01 
    1.5604192186647049E+01 
    1.9421017607029764E+01 
    7.8915395384277709E-01 
    1.8128998012302308E+01 
    7.6366940854417935E+00 
    2.0838889624755858E+01 
    1.3495483971436574E+01 
    1.1908876972235806E+01 
    1.0581937613722037E+01 
    7.3482800353578597E+00 
    1.4713992140128205E+01 
    1.0620168873266827E+01 
    1.6243519285033912E+01 
    3.0292756504285046E+00 
    1.4551657459901424E+01 
    1.8008019666450334E+01 
    8.1594048137458515E+00 
    1.8709948096754335E+01 
    2.0586063339064495E+01 
    1.8537848077748901E+01 
    1.3334581529320147E+01 
    1.3313973976508562E+01 
    1.3486946920256404E+01 
    7.9467615098951612E+00 
    1.2432645684543276E+01 
    1.2242737978255720E+01 
    1.3474025145082349E+01 
    1.2680157963848730E+01 
    1.0108205553498177E+00 
    8.7078538246438555E+00 
    1.3132205205453111E+01 
    1.3444124731718441E+01 
    1.6710679553150424E+01 
    2.9566391902838367E+00 
    1.3743611880115623E+01 
    1.3602208192164023E+01 
    5.0971648197381327E+00 
    1.8360243978452282E+01 
    1.1834192187486138E+01 
    1.3453058227455182E+01 
    1.8516238931922445E+01 
    7.3679974598556228E+00 
    1.8496825115673165E+01 
    1.1990046017853116E+01 
    1.3513619988597978E+00 
    1.2834424838665175E+01 
    1.9334701514449790E+01 
    1.8129989165984163E+01 
    1.8155079685143381E+01 
    1.3890857296443745E+01 
    1.3528424579100156E+01 
    1.1825302675457964E+01 
    9.4290446982324525E+00 
    1.8659121919678881E+01 
    1.3000676564332416E+01 
    9.1578655796426194E+00 
    1.8148970944206852E+01 
    1.9047541043459546E+01 
    1.3677254501906383E+01 
    1.3137336447014238E+01 
    2.1954859188062073E+01 
    1.3794474430280028E+01 
    1.8704846321210006E+01 
    1.1258813627513147E+01 
    2.2110925715723550E+01 
    8.9394848197022441E+00 
    1.2286436389912915E+01 
    1.0067724631316807E+01 
    1.4081291822750366E+01 
    1.1458924081001458E+01 
    2.2094060119252088E+01 
    1.3853983638864213E+01 
    1.7614377160850164E+01 
    9.2129378258903483E+00 
    1.3344819789745713E+01 
    1.8481875720654369E+01 
    1.1536539855098257E+01 
    9.8236257821893282E+00 
    1.4890250037680305E+01 
    1.8799566629604705E+01 
    9.8321403619348455E+00 
    1.2869783885112925E+01 
    1.3176503288291912E+01 
    1.8094991991847284E+01 
    1.2935472959500585E+01 
    1.8773554779999909E+01 
    1.9587280247860605E+01 
    1.1857965105564547E+01 
    1.1639123563463324E+01 
    1.0633874442733880E+01 
    1.8287428905510488E+01 
    1.3620087560736371E+01 
    2.1643386438853454E+01 
    1.6883263232913855E+01 
    1.8419005663861071E+01 
    2.1298114512119170E+01 
    2.0590402811053934E+01 
    1.3393075167816992E+01 
    1.3456016905324354E+01 
    1.7718945027165603E+01 
    1.8182625738292231E+01 
    1.8887682694625884E+01 
    1.8555399238466666E+01 
    2.1981001000423348E+01 
    1.3793874886917758E+01 
    1.1985130282917826E+01 
    1.3759457414955511E+01 
    1.9475506893124543E+01 
    1.3491397562379181E+01 
    8.0036209104465481E+00 
    1.3315367791661762E+01 
    2.0010829522221226E+01 
    1.3645224960601951E+01 
    1.1993005355741372E+01 
    1.3116893440352889E+01 
    2.0142801227479659E+01 
    1.8218757313927906E+01 
    1.1370373546223874E+01 
    2.0305725545241511E+01 
    1.3422469206517695E+01 
    1.8909885418239774E+01 
    2.0155609806074711E+01 
    1.4162923556751331E+01 
    7.3652053280305259E+00 
    1.4689605377044341E+01 
    7.6134822042458428E+00 
    1.3543181975181186E+01 
    1.3341389027554186E+01 
    1.5436871643453053E+01 
    8.0395400015439247E+00 
    1.6388344728713044E+01 
    1.3358080832994832E+01 
    1.8541489719668171E+01 
    1.4315337202999883E+01 
    1.1012768289789001E+01 
    1.2969264131362419E+01 
    1.4071730441719431E+01 
    1.3922180145210637E+01 
    1.9646593823443123E+01 
    1.1490278363223084E+01 
    1.1300587012356610E+01 
    8.4394113617230619E+00 
    1.8938902034467734E+01 
    1.3018096015262264E+01 
    1.7905486411695986E+01 
    1.3309646524175310E+01 
    9.2066372332404427E+00 
    1.8236952423117444E+01 
    1.3286266120569252E+01 
    1.0029271085418797E+01 
    1.0639480328944341E+01 
    1.1021577846317451E+01 
    1.8584368489895592E+01 
    1.3476374584225210E+01 
    1.9435859306441934E+01 
    1.3246664391464597E+01 
    1.3185114698686212E+01 
    1.2773938287423233E+01 
    1.8354403799464556E+01 
    1.3095945084257892E+01 
    1.1082466879452449E+01 
    2.0577616195826927E+01 
    1.8462515776307768E+01 
    9.3922640310815027E+00 
    3.7260692102754436E+00 
    1.3464113664331560E+01 
    1.2604024167088154E+01 
    1.1632289631892620E+01 
    1.2535522688760606E+01 
    1.8416755725823190E+01 
    1.3116213713130644E+01 
    1.2027587516139635E+01 
    1.8213400130173206E+01 
    9.2890381380043117E+00 
    1.7670220392685529E+01 
    1.2153198572606051E+01 
    1.0901110853671881E+01 
    1.1737045880289061E+01 
    1.9021122473027550E+01 
    1.3323016346457242E+01 
    1.3331886082508623E+01 
    8.1719466332894548E+00 
    8.8208703053131874E+00 
    1.6704952442905036E+01 
    1.3342137511610186E+01 
    1.3510934873830045E+01 
    2.0293352011879538E+01 
    1.1291828593670013E+01 
    1.3354852647950601E+01 
    9.6080845589788950E+00 
    9.9040765306497125E+00 
    1.8306718663088809E+01 
    1.2960389181066716E+01 
    9.7090438922195634E+00 
    1.3909668181857054E+01 
    1.3246503584166499E+01 
    1.8325989031589970E+01 
    2.0401432319084403E+01 
    1.4360061318783324E+00 
    1.3469868092555387E+01 
    1.3592295232805307E+01 
    1.8438765552945981E+01 
    1.2916552673363176E+01 
    1.3293971802795800E+01 
    1.9730357755855724E+01 
    1.1778603315634275E+01 
    9.7939937662497876E+00 
    1.5857764443121736E+01 
    1.8148774754292639E+01 
    1.9547380592612548E+01 
    1.9879128722501729E+01 
    1.3284297766934719E+01 
    1.3459721024655556E+01 
    1.4775667604835292E+01 
    8.9207849989452246E+00 
    1.8333555802222225E+01 
    1.0543068273864407E+01 
    9.2854759645561966E+00 
    1.6469026378338803E+01 
    1.5483934247276490E+01 
    9.1078982227676200E+00 
    1.8197997635245081E+01 
    1.9530060877052051E+01 
    1.3813426255177731E+01 
    2.0522091321133225E+01 
    1.8244385335832025E+01 
    1.2982150316414906E+01 
    1.9145427293798104E+01 
    9.9331736377016266E+00 
    1.8173863312953959E+01 
    1.3468559085536054E+01 
    1.3424212704202132E+01 
    2.0502162333198889E+01 
    1.3063328960173058E+01 
    1.6112233319698269E+01 
    1.1710470719411738E+01 
    1.9680379574717012E+01 
    1.8025417434867286E+01 
    1.2189556309518281E+01 
    1.8116875104686091E+01 
    1.2247177040343749E+01 
    1.3300648582792746E+01 
    1.9478292308203297E+01 
    1.8532930886806060E+01 
    1.9533819537647961E+01 
    1.8441424244996323E+01 
    1.2448248537087816E+01 
    1.2691043809216163E+01 
    1.9543412112252433E+01 
    1.2841942919750664E+01 
    1.7877832644580014E+01 
    1.3041713156552303E+01 
    5.5006501823746499E+00 
    9.3526238873224266E+00 
    8.6739485961538740E+00 
    1.9482728793759541E+01 
    2.0411908597135120E+01 
    1.8140239066125535E+01 
    1.5191515638244008E+01 
    1.8531811945701158E+01 
    1.8210769327239607E+01 
    1.9019216683686636E+01 
    7.8906340128455055E+00 
    5.1184535612903606E+00 
    1.4916391121633861E+01 
    1.3094795795715969E+01 
    1.8425247144942563E+01 
    1.8421703310998616E+01 
    1.3612851760640984E+01 
    1.8474881632713569E+01 
    1.3453008022470787E+01 
    1.3354596108912274E+01 
    7.1363072484264540E+00 
    5.0963487851485922E+00 
    2.0133889112422345E+01 
    1.0522524055459659E+01 
    1.2101175457023329E+01 
    1.3504032765744897E+01 
    2.1958041491593836E+01 
    1.3602936108133818E+01 
    1.3807733806572363E+01 
    5.7826214267488547E+00 
    1.3602751945848695E+01 
    1.3618122998749470E+01 
    1.8756880563283293E+01 
    1.1738567873514237E+01 
    1.2812663174327714E+01 
    2.0341257731651975E+01 
    1.3479608905898042E+01 
    1.8161687015520052E+01 
    1.8458170919605895E+01 
    1.6195905278646475E+01 
    1.1402228465706576E+01 
    1.8437834333895850E+01 
    1.3245941541449705E+01 
    1.8375381034302926E+01 
    1.8073332211815003E+01 
    1.9507523065006055E+01 
    1.8444328640420384E+01 
    1.7092520965136931E+01 
    1.3466276537680193E+01 
    9.0192635730316191E+00 
    2.1822737142165973E+01 
    1.0758482446612444E+01 
    1.9402584269188374E+01 
    1.3463283922010522E+01 
    1.1349318944793220E+01 
    6.7274190125319979E+00 
    1.3658275798564507E+01 
    1.8422421157545774E+01 
    1.8405920364545032E+01 
    1.3279668815273499E+01 
    1.3456565822923494E+01 
    2.0579177064147956E+01 
    1.9807312400703765E+01 
    1.3625005568749041E+01 
    4.7595845602727485E+00 
    1.6977080732504604E+01 
    2.2090326823378540E+01 
    1.3470102095938385E+01 
    1.5672182715890306E+01 
    1.2915566135674332E+01 
    2.1667358566000576E+01 
    1.9911708810901043E+01 
    1.9601781329152629E+01 
    1.3649791535393710E+01 
    6.2381500837443804E+00 
    1.2868295481714906E+01 
    1.2942256494117149E+01 
    1.2987797236658116E+01 
    5.1839694074557281E+00 