# vtk DataFile Version 2.0
Pressure Field Data 
ASCII 
DATASET UNSTRUCTURED_GRID 

POINTS 2860 double 

    0.0000000000000000E+00     0.0000000000000000E+00     0.0000000000000000E+00 
    1.0000000000000000E+00     0.0000000000000000E+00     0.0000000000000000E+00 
    1.0000000000000000E+00     1.0000000000000000E+00     0.0000000000000000E+00 
    0.0000000000000000E+00     1.0000000000000000E+00     0.0000000000000000E+00 
    2.5000000000000000E-01     2.5000000000000000E-01     0.0000000000000000E+00 
    7.5000000000000000E-01     2.5000000000000000E-01     0.0000000000000000E+00 
    7.5000000000000000E-01     7.5000000000000000E-01     0.0000000000000000E+00 
    2.5000000000000000E-01     7.5000000000000000E-01     0.0000000000000000E+00 
    3.1249999999942091E-02     0.0000000000000000E+00     0.0000000000000000E+00 
    6.2499999999873469E-02     0.0000000000000000E+00     0.0000000000000000E+00 
    9.3749999999826514E-02     0.0000000000000000E+00     0.0000000000000000E+00 
    1.2499999999977961E-01     0.0000000000000000E+00     0.0000000000000000E+00 
    1.5624999999968961E-01     0.0000000000000000E+00     0.0000000000000000E+00 
    1.8749999999959971E-01     0.0000000000000000E+00     0.0000000000000000E+00 
    2.1874999999950970E-01     0.0000000000000000E+00     0.0000000000000000E+00 
    2.4999999999941969E-01     0.0000000000000000E+00     0.0000000000000000E+00 
    2.8124999999932920E-01     0.0000000000000000E+00     0.0000000000000000E+00 
    3.1249999999923850E-01     0.0000000000000000E+00     0.0000000000000000E+00 
    3.4374999999914790E-01     0.0000000000000000E+00     0.0000000000000000E+00 
    3.7499999999905720E-01     0.0000000000000000E+00     0.0000000000000000E+00 
    4.0624999999896660E-01     0.0000000000000000E+00     0.0000000000000000E+00 
    4.3749999999887590E-01     0.0000000000000000E+00     0.0000000000000000E+00 
    4.6874999999878530E-01     0.0000000000000000E+00     0.0000000000000000E+00 
    4.9999999999869471E-01     0.0000000000000000E+00     0.0000000000000000E+00 
    5.3124999999877620E-01     0.0000000000000000E+00     0.0000000000000000E+00 
    5.6249999999885780E-01     0.0000000000000000E+00     0.0000000000000000E+00 
    5.9374999999893940E-01     0.0000000000000000E+00     0.0000000000000000E+00 
    6.2499999999902101E-01     0.0000000000000000E+00     0.0000000000000000E+00 
    6.5624999999910261E-01     0.0000000000000000E+00     0.0000000000000000E+00 
    6.8749999999918421E-01     0.0000000000000000E+00     0.0000000000000000E+00 
    7.1874999999926570E-01     0.0000000000000000E+00     0.0000000000000000E+00 
    7.4999999999934730E-01     0.0000000000000000E+00     0.0000000000000000E+00 
    7.8124999999942890E-01     0.0000000000000000E+00     0.0000000000000000E+00 
    8.1249999999951039E-01     0.0000000000000000E+00     0.0000000000000000E+00 
    8.4374999999959199E-01     0.0000000000000000E+00     0.0000000000000000E+00 
    8.7499999999967359E-01     0.0000000000000000E+00     0.0000000000000000E+00 
    9.0624999999975520E-01     0.0000000000000000E+00     0.0000000000000000E+00 
    9.3749999999983680E-01     0.0000000000000000E+00     0.0000000000000000E+00 
    9.6874999999991840E-01     0.0000000000000000E+00     0.0000000000000000E+00 
    1.0000000000000000E+00     3.1249999999942091E-02     0.0000000000000000E+00 
    1.0000000000000000E+00     6.2499999999873469E-02     0.0000000000000000E+00 
    1.0000000000000000E+00     9.3749999999826514E-02     0.0000000000000000E+00 
    1.0000000000000000E+00     1.2499999999977961E-01     0.0000000000000000E+00 
    1.0000000000000000E+00     1.5624999999968961E-01     0.0000000000000000E+00 
    1.0000000000000000E+00     1.8749999999959971E-01     0.0000000000000000E+00 
    1.0000000000000000E+00     2.1874999999950970E-01     0.0000000000000000E+00 
    1.0000000000000000E+00     2.4999999999941969E-01     0.0000000000000000E+00 
    1.0000000000000000E+00     2.8124999999932920E-01     0.0000000000000000E+00 
    1.0000000000000000E+00     3.1249999999923850E-01     0.0000000000000000E+00 
    1.0000000000000000E+00     3.4374999999914790E-01     0.0000000000000000E+00 
    1.0000000000000000E+00     3.7499999999905720E-01     0.0000000000000000E+00 
    1.0000000000000000E+00     4.0624999999896660E-01     0.0000000000000000E+00 
    1.0000000000000000E+00     4.3749999999887590E-01     0.0000000000000000E+00 
    1.0000000000000000E+00     4.6874999999878530E-01     0.0000000000000000E+00 
    1.0000000000000000E+00     4.9999999999869471E-01     0.0000000000000000E+00 
    1.0000000000000000E+00     5.3124999999877620E-01     0.0000000000000000E+00 
    1.0000000000000000E+00     5.6249999999885780E-01     0.0000000000000000E+00 
    1.0000000000000000E+00     5.9374999999893940E-01     0.0000000000000000E+00 
    1.0000000000000000E+00     6.2499999999902101E-01     0.0000000000000000E+00 
    1.0000000000000000E+00     6.5624999999910261E-01     0.0000000000000000E+00 
    1.0000000000000000E+00     6.8749999999918421E-01     0.0000000000000000E+00 
    1.0000000000000000E+00     7.1874999999926570E-01     0.0000000000000000E+00 
    1.0000000000000000E+00     7.4999999999934730E-01     0.0000000000000000E+00 
    1.0000000000000000E+00     7.8124999999942890E-01     0.0000000000000000E+00 
    1.0000000000000000E+00     8.1249999999951039E-01     0.0000000000000000E+00 
    1.0000000000000000E+00     8.4374999999959199E-01     0.0000000000000000E+00 
    1.0000000000000000E+00     8.7499999999967359E-01     0.0000000000000000E+00 
    1.0000000000000000E+00     9.0624999999975520E-01     0.0000000000000000E+00 
    1.0000000000000000E+00     9.3749999999983680E-01     0.0000000000000000E+00 
    1.0000000000000000E+00     9.6874999999991840E-01     0.0000000000000000E+00 
    9.6875000000003686E-01     1.0000000000000000E+00     0.0000000000000000E+00 
    9.3750000000011691E-01     1.0000000000000000E+00     0.0000000000000000E+00 
    9.0625000000015765E-01     1.0000000000000000E+00     0.0000000000000000E+00 
    8.7500000000017863E-01     1.0000000000000000E+00     0.0000000000000000E+00 
    8.4375000000028044E-01     1.0000000000000000E+00     0.0000000000000000E+00 
    8.1250000000040856E-01     1.0000000000000000E+00     0.0000000000000000E+00 
    7.8125000000054956E-01     1.0000000000000000E+00     0.0000000000000000E+00 
    7.5000000000066480E-01     1.0000000000000000E+00     0.0000000000000000E+00 
    7.1875000000086831E-01     1.0000000000000000E+00     0.0000000000000000E+00 
    6.8750000000102829E-01     1.0000000000000000E+00     0.0000000000000000E+00 
    6.5625000000114431E-01     1.0000000000000000E+00     0.0000000000000000E+00 
    6.2500000000129829E-01     1.0000000000000000E+00     0.0000000000000000E+00 
    5.9375000000147926E-01     1.0000000000000000E+00     0.0000000000000000E+00 
    5.6250000000168354E-01     1.0000000000000000E+00     0.0000000000000000E+00 
    5.3125000000188671E-01     1.0000000000000000E+00     0.0000000000000000E+00 
    5.0000000000205835E-01     1.0000000000000000E+00     0.0000000000000000E+00 
    4.6875000000192979E-01     1.0000000000000000E+00     0.0000000000000000E+00 
    4.3750000000180111E-01     1.0000000000000000E+00     0.0000000000000000E+00 
    4.0625000000167238E-01     1.0000000000000000E+00     0.0000000000000000E+00 
    3.7500000000154382E-01     1.0000000000000000E+00     0.0000000000000000E+00 
    3.4375000000141509E-01     1.0000000000000000E+00     0.0000000000000000E+00 
    3.1250000000128642E-01     1.0000000000000000E+00     0.0000000000000000E+00 
    2.8125000000115769E-01     1.0000000000000000E+00     0.0000000000000000E+00 
    2.5000000000102918E-01     1.0000000000000000E+00     0.0000000000000000E+00 
    2.1875000000090050E-01     1.0000000000000000E+00     0.0000000000000000E+00 
    1.8750000000077180E-01     1.0000000000000000E+00     0.0000000000000000E+00 
    1.5625000000064329E-01     1.0000000000000000E+00     0.0000000000000000E+00 
    1.2500000000051459E-01     1.0000000000000000E+00     0.0000000000000000E+00 
    9.3750000000385914E-02     1.0000000000000000E+00     0.0000000000000000E+00 
    6.2500000000257239E-02     1.0000000000000000E+00     0.0000000000000000E+00 
    3.1250000000128557E-02     1.0000000000000000E+00     0.0000000000000000E+00 
    0.0000000000000000E+00     9.6875000000003686E-01     0.0000000000000000E+00 
    0.0000000000000000E+00     9.3750000000011691E-01     0.0000000000000000E+00 
    0.0000000000000000E+00     9.0625000000015765E-01     0.0000000000000000E+00 
    0.0000000000000000E+00     8.7500000000017863E-01     0.0000000000000000E+00 
    0.0000000000000000E+00     8.4375000000028044E-01     0.0000000000000000E+00 
    0.0000000000000000E+00     8.1250000000040856E-01     0.0000000000000000E+00 
    0.0000000000000000E+00     7.8125000000054956E-01     0.0000000000000000E+00 
    0.0000000000000000E+00     7.5000000000066480E-01     0.0000000000000000E+00 
    0.0000000000000000E+00     7.1875000000086831E-01     0.0000000000000000E+00 
    0.0000000000000000E+00     6.8750000000102829E-01     0.0000000000000000E+00 
    0.0000000000000000E+00     6.5625000000114431E-01     0.0000000000000000E+00 
    0.0000000000000000E+00     6.2500000000129829E-01     0.0000000000000000E+00 
    0.0000000000000000E+00     5.9375000000147926E-01     0.0000000000000000E+00 
    0.0000000000000000E+00     5.6250000000168354E-01     0.0000000000000000E+00 
    0.0000000000000000E+00     5.3125000000188671E-01     0.0000000000000000E+00 
    0.0000000000000000E+00     5.0000000000205835E-01     0.0000000000000000E+00 
    0.0000000000000000E+00     4.6875000000192979E-01     0.0000000000000000E+00 
    0.0000000000000000E+00     4.3750000000180111E-01     0.0000000000000000E+00 
    0.0000000000000000E+00     4.0625000000167238E-01     0.0000000000000000E+00 
[...]
CELL_DATA 2795 
SCALARS Pressure double 1 
LOOKUP_TABLE default 

    7.7741737452274524E+00 
    1.9371278544261141E+01 
    1.3089795838151479E+01 
    1.2712093034821624E+01 
    9.7573314982917090E+00 
    1.9048189723088903E+01 
    2.0289755136303739E+01 
    6.8790044742845673E+00 
    1.3699649759571836E+01 
    1.0359859136719844E+01 
    8.7310525827965613E+00 
    1.8595767473216736E+01 
    1.9124765569137715E+01 
    1.8983552972995113E+01 
    1.1989552918087885E+01 
    6.7570446374634150E+00 
    1.1592287425314016E+01 
    9.3359888904306576E+00 
    1.7986104159597055E+01 
    1.3067319720022923E+01 
    1.2950181062387225E+01 
    1.8853283238187689E+01 
    1.2333607739949791E+01 
    4.4730931140231528E-01 
    1.8585344306403446E+01 
    1.9177550694824728E+01 
    2.0347699283923546E+01 
    8.3697383812011932E+00 
    1.8458691665597133E+01 
    2.0322227040036182E+01 
    1.3273012917505756E+01 
    1.3295703631948250E+01 
    9.0708177875670213E+00 
    1.3048563113427088E+01 
    4.0312433434495496E+00 
    1.1603269105695253E+01 
    1.3031410907307517E+01 
    2.0379508920435246E+01 
    2.0265640872027188E+01 
    1.8616263452424580E+01 
    9.6856839596915041E+00 
    1.8677988153405302E+01 
    9.2851738482795720E-01 
    1.3018381908155307E+01 
    1.9917466666392485E+01 
    1.9574251655794235E+01 
    1.8579113754498799E+01 
    1.4160644695985768E+01 
    1.8626169719327763E+01 
    1.1869242697989950E+01 
    1.1264977645324956E+01 
    1.3255229789029791E+01 
    1.2897497619420124E+01 
    1.1651750858987466E+01 
    1.3361780831222372E+01 
    1.7648770199212173E+01 
    1.5475999902759350E+01 
    9.8187564836986123E+00 
    1.8871445291363269E+01 
    1.8721003496573346E+01 
    1.2650940749744201E+01 
    1.2564822257587249E+01 
    1.2579541995243174E+01 
    2.0173459068302289E+01 
    2.0517844957919699E+01 
    1.1600234024600198E+01 
    1.3253390954727765E+01 
    1.8274074919522700E+01 
    1.5278289720672424E+01 
    1.2624290755979604E+01 
    2.0572159916113691E+01 
    1.8852735559015780E+01 
    1.1431768260085942E+01 
    1.9731086112588336E+01 
    1.3669779829987457E+01 
    1.8413685080743935E+01 
    2.0407046565289775E+01 
    1.3715584700106694E+01 
    7.9401564323970142E+00 
    1.3274369880687553E+01 
    2.0267050448030986E+01 
    2.0610181427978453E+01 
    1.1623525369273006E+01 
    1.3191286591301374E+01 
    2.0690851531486182E+01 
    1.3029002232317483E+01 
    1.2458861780940849E+01 
    1.5877477289295639E+01 
    7.5502083937830937E+00 
    1.1302297863445670E+01 
    1.3187953889589117E+01 
    1.3873271747786424E+01 
    2.2605996166007746E+01 
    9.4480480608709794E+00 
    1.3262447996338086E+01 
    1.8548443032715539E+01 
    1.9036639430278676E+01 
    8.1853599648531663E+00 
    1.2866042644492239E+01 
    1.3225769262601947E+01 
    1.9080018561998578E+01 
    1.3214659438370427E+01 
    1.8955910777628805E+01 
    4.8571916313778827E+00 
    8.4781081189392449E+00 
    1.3514144341558952E+01 
    1.9391295533009810E+01 
    1.1556735321600918E+01 
    1.2328383084555760E+01 
    1.3188511552065517E+01 
    1.2415503014905914E+01 
    1.5006872430535674E+01 
    1.1958817224200406E+01 
    1.1445359522423992E+01 
    8.6908249799273722E+00 
    1.5856579512077708E+01 
    1.3300943631169789E+01 
    2.0044626407430151E+01 
    1.1316724339012408E+01 
    1.2683035762417648E+01 
    1.8866707428870072E+01 
    1.0318706502374658E+01 
    1.9609390470010062E+01 
    1.3111204385674121E+01 
    1.2591523030502623E+01 
    1.9049267015771445E+01 
    1.3288620889756080E+01 
    2.0429032254320482E+01 
    1.5909978662743084E+01 
    1.7385675473618537E+01 
    2.0372687514880880E+01 
    9.4633667070612013E+00 
    1.3537039500615725E+01 
    1.9118257868776173E+01 
    3.6108133283381831E+00 
    1.3333858022642556E+01 
    2.0323275108092766E+01 
    1.2625740577010175E+01 
    1.4614807633300568E+01 
    8.1468041591547742E+00 
    1.8570520232066695E+01 
    2.3196156410452112E+01 
    1.6598134826397928E+01 
    1.2629837550099465E+01 
    1.1147335253499723E+01 
    1.4203572055658555E+01 
    1.3130412052858217E+01 
    8.8232022387800857E+00 
    2.0366071238070447E+01 
    1.9110814728685629E+01 
    1.8552766391931016E+01 
    1.3875417827340636E+01 
    1.1379485207896311E+01 
    1.2944370026275678E+01 
    1.9770223967706855E+01 
    1.1757659771913522E+01 
    1.3226697894169277E+01 
    1.1991724320387336E+01 
    1.5659113061550435E+01 
    2.3182488039404099E+01 
    1.8531632788591466E+01 
    1.1243543615507466E+01 
    1.9365985666465523E+01 
    1.9321578642578672E+01 
    1.9453224056465263E+01 
    2.0975423419840034E+01 
    2.1721613298307261E+01 
    1.9537639888343037E+01 
    1.3243828059797927E+01 
    1.4385302609273564E+01 
    1.9244329429115737E+01 
    2.0037253817540428E+01 
    9.2281287266471885E+00 
    1.8573275324466881E+01 
    1.9696964234279122E+01 
    8.9762508583351703E+00 
    2.0847032767376977E+01 
    2.0824932162384631E+01 
    1.8089959855576680E+01 
    1.3620257349226350E+01 
    3.3318972595569063E+00 
    2.0316501541555517E+01 
    1.3442342397159253E+01 
    2.0499114783552216E+01 
    1.2527819337470140E+01 
    1.9973573569511643E+01 
    1.1630987014921528E+00 
    1.7379137105354005E+01 
    1.2621135554322210E+01 
    1.1328775555815065E+01 
    1.0991120701276126E+01 
    1.3074360974378358E+01 
    1.4503318879721089E+01 
    1.3787414921540353E+01 
    8.8261754911566701E+00 
    2.0042336058508759E+01 
    1.9176560588851043E+01 
    1.5436752578324478E+01 
    1.3503413152512953E+01 
    1.8141817469877672E+00 
    9.9736415550077737E+00 
    6.7000019616804716E+00 
    2.0336570318199346E+01 
    1.4824890517902340E+01 
    1.9098989570338215E+01 
    1.9277164941549234E+01 
    1.1852805656171041E+01 
    1.5536875364601732E+01 
    1.8527779064328758E+01 
    2.0800943779997787E+01 
    8.1141231634559343E+00 
    1.6618580845072852E+01 
    1.3755062218539365E+01 
    7.1544929513446620E+00 
    1.1859973114010934E+01 
    1.6307620196204503E+01 
    1.9218932171808373E+01 
    1.3132377931399096E+01 
    1.9411871738307259E+01 
    1.9003363160461245E+01 
    1.8928912493281807E+01 
    1.2948450733476392E+01 
    1.1173302215013631E+01 
    1.8568550158742081E+01 
    1.1420564974892677E+01 
    1.3224525347388656E+01 
    1.1166242698985725E+01 
    1.3170505595140938E+01 
    1.9281922738622786E+01 
    7.9799650379188938E+00 
    1.1730359102853042E+01 
    2.0209263184624092E+01 
    1.2957464357890135E+01 
    1.4687448946554531E+01 
    8.1863058838940681E+00 
    1.1520735130887688E+01 
    1.8963638764978015E+01 
    1.9503504175265117E+01 
    6.6781385059174356E+00 
    1.2973509899839202E+01 
    1.1204453837444422E+01 
    2.1414014214338888E+01 
    2.0626711883527399E+01 
    2.1770153519054105E+01 
    1.2996624042250557E+01 
    1.9250655208932312E+01 
    1.8439755256209683E+01 
    1.2826786754858402E+01 
    1.8549041558674517E+01 
    1.3503748866241734E+01 
    7.2593499441487230E+00 
    1.3399371631462014E+01 
    2.0190712300070771E+01 
    1.8542476468840359E+01 
    8.6776091498055941E+00 
    1.8587468470384593E+01 
    1.4539544854172933E+01 
    1.3305755037191311E+01 
    1.2720229111142821E+01 
    1.8311625020646236E+01 
    1.3990204381471697E+01 
    1.8573123383825859E+01 
    1.2938096535697975E+01 
    7.5365483381072620E+00 
    1.3311471673301336E+01 
    1.1001783681674244E+01 
    1.6629926915442294E+01 
    2.0502993789715479E+01 
    1.8572967794914582E+01 
    2.0309963436781597E+01 
    1.2887800481891819E+01 
    8.4526125726341821E+00 
    8.5778801958294562E+00 
    1.3552446657859683E+01 
    1.3191973406472872E+01 
    1.8280277816895087E+00 
    1.7695269155848724E+01 
    2.1011889299805187E+01 
    1.2552326959188253E+01 
    7.5838521580578577E+00 
    1.5332218549898519E+01 
    1.8578770005380971E+01 
    9.1055492823607143E+00 
    6.0301276856035875E+00 
    1.3174857462636576E+01 
    1.8740308018912621E+01 
    1.9911365740150558E+01 
    1.9575075899074175E+01 
    1.9514606357562116E+01 
    8.9011573238167987E+00 
    1.3300699989183519E+01 
    1.7982960588890684E+01 
    1.0157285250128918E+01 
    1.9102992592234560E+01 
    1.5848779955393329E+01 
    8.7055659406451138E+00 
    1.8705876944036312E+01 
    2.0300951477204627E+01 
    1.8787587118302177E+01 
    8.7534869896655891E+00 
    1.3248862732972952E+01 
    9.7248653660762674E+00 
    1.2464998354859882E+01 
    1.8571258518676824E+01 
    1.8554283237188699E+01 
    8.7948056781344892E+00 
    2.0042798570497581E+01 
    1.3936083872602289E+01 
    1.8645909912902660E+01 
    2.0086469943488879E+01 
    1.8606925109336743E+01 
    1.6949619411983289E+01 
    2.1519503584971115E+01 
    1.2472393660498064E+01 
    2.0265599488867768E+01 
    1.8665897106869927E+01 
    2.0376837703423710E+01 
    2.0029861487336344E+01 
    1.2614957734016798E+01 
    1.3077027367191356E+01 
    1.2541003776673969E+01 
    1.6191961481814985E+01 
    4.8800582226202591E+00 
    1.3467646558038263E+01 
    2.1672517318740422E+01 
    1.3510297748159427E+01 
    1.3765123487772156E+01 
    2.0330873343502464E+01 
    2.0663287486742330E+01 
    1.2324814482111034E+01 
    1.8592160488850570E+01 
    1.8556478435064463E+01 
    1.3747912066628924E+01 
    1.9949177488151303E+01 
    9.1731547934835778E+00 
    5.8102692291509692E+00 
    1.4135683908618146E+01 
    1.3525886897184570E+01 
    1.8543127202585719E+01 
    8.1524639763028492E+00 
    1.9448931953173581E+01 
    5.9242545512675724E+00 
    1.3450144113092406E+01 
    1.2613614526678546E+01 
    1.3222314455384964E+01 
    2.3237090522919623E+01 
    4.7338373596893746E+00 
    1.3356723968296315E+01 
    1.6260726252947439E+01 
    1.2758177890931147E+01 
    9.8215362052562352E+00 
    1.9747795736672519E+01 
    2.2716175421002138E+01 
    1.9941132926334618E+01 
    1.3273702591352084E+01 
    7.1091068538446933E+00 
    2.2553191432449669E+01 
    1.9136456697068429E+01 
    9.3277396343910368E+00 
    1.2828727095622520E+01 
    2.0950137373754753E+01 
    4.0123530968436771E+00 
    1.3596738364187324E+01 
    1.9969343263866499E+01 
    1.3240059949695114E+01 
    1.1432548130799253E+01 
    1.3410193068301929E+01 
    1.8093826376741323E+01 
    1.3219913213293086E+01 
    6.2876504986093043E+00 
    1.1488435461636555E+00 
    9.6651954860969198E+00 
    2.1294223823970142E+01 
    1.2540684425034518E+01 
    1.5075839001715604E+01 
    1.4401489005213691E+01 
    1.6687695095518713E+01 
    1.3255445596188109E+01 
    1.8977024600408480E+01 
    2.3252717744437625E+01 
    1.5762530746774802E+01 
    2.0220928935575927E+01 
    6.6966374160095377E-01 
    1.8554813552287580E+01 
    7.0219608635536055E+00 
    2.1884809397649718E+01 
    1.3375044458358472E+01 
    1.1680264737518582E+01 
    9.9505484108153226E+00 
    6.6231144452081798E+00 
    1.4772031292716276E+01 
    1.0285760238467841E+01 
    1.6473671948456857E+01 
    2.7951864673655780E+00 
    1.4591005309777513E+01 
    1.8425168314612179E+01 
    7.7719332306994291E+00 
    1.9314561583451496E+01 
    2.1559850238124085E+01 
    1.9113448757302450E+01 
    1.3187924263680545E+01 
    1.3215183889385534E+01 
    1.3365295187925460E+01 
    7.2008283881125932E+00 
    1.2147904680698248E+01 
    1.1925075380296736E+01 
    1.3350470626289829E+01 
    1.2441645257191714E+01 
    8.5886526977543021E-01 
    8.1105611516262694E+00 
    1.2971551852328826E+01 
    1.3315724719835503E+01 
    1.6994313142055024E+01 
    2.6210936508218401E+00 
    1.3692694568072380E+01 
    1.3535492902528572E+01 
    4.5490361903564054E+00 
    1.8881222454875168E+01 
    1.1430593380277147E+01 
    1.3369659382203412E+01 
    1.9102832713999426E+01 
    6.6430820390185703E+00 
    1.9044896758566452E+01 
    1.1623500227325415E+01 
    1.1799548795144394E+00 
    1.2625110577343651E+01 
    2.0103509374559252E+01 
    1.8562766863590014E+01 
    1.8598866627297657E+01 
    1.3826870107616369E+01 
    1.3453451523527551E+01 
    1.1428365201584825E+01 
    8.8700219459021827E+00 
    1.9255963622937163E+01 
    1.2820449200834870E+01 
    8.6190504966455794E+00 
    1.8585965632685472E+01 
    1.9751593765175993E+01 
    1.3583807129486162E+01 
    1.3014297190901516E+01 
    2.3115034072975700E+01 
    1.3749239053939233E+01 
    1.9336547030120613E+01 
    1.0753277371231745E+01 
    2.3281336616822557E+01 
    8.5275517265744529E+00 
    1.1959254985945561E+01 
    9.6052190843402059E+00 
    1.4068095771591052E+01 
    1.1146682824539223E+01 
    2.3263751332237213E+01 
    1.3815395841373103E+01 
    1.8081215523826067E+01 
    8.7733576611271751E+00 
    1.3249262830412871E+01 
    1.9089818310789191E+01 
    1.1187071516967794E+01 
    9.2693385536595940E+00 
    1.4988683495350990E+01 
    1.9386811839926846E+01 
    9.4594142948226843E+00 
    1.2645264827375176E+01 
    1.3058509748001230E+01 
    1.8517933752200879E+01 
    1.2789107697710662E+01 
    1.9453908088977709E+01 
    2.0420332459624245E+01 
    1.1462578260480329E+01 
    1.1190872550879083E+01 
    1.0321930268555180E+01 
    1.8744975633202156E+01 
    1.3555311237818444E+01 
    2.2762309928504230E+01 
    1.7183297756373914E+01 
    1.9006279392313786E+01 
    2.2393382825631441E+01 
    2.1566814083002448E+01 
    1.3302831845519027E+01 
    1.3329600555548161E+01 
    1.8109224971065217E+01 
    1.8613819777295394E+01 
    1.9531637565504521E+01 
    1.9159759439627525E+01 
    2.3143352341090296E+01 
    1.3748572560962621E+01 
    1.1616250425733174E+01 
    1.3710503492207824E+01 
    2.0285317360493263E+01 
    1.3412256629480821E+01 
    7.5771168479343762E+00 
    1.3165560748206309E+01 
    2.0902247371379922E+01 
    1.3583316756257098E+01 
    1.1627268419562270E+01 
    1.2990410966750725E+01 
    2.1068538865147978E+01 
    1.8787678373097187E+01 
    1.0911310712440567E+01 
    2.1264949500282508E+01 
    1.3335569719140445E+01 
    1.9617793319857686E+01 
    2.1090231090841460E+01 
    1.4142652308148246E+01 
    6.6590938724678352E+00 
    1.4742216032648368E+01 
    6.8970458561458114E+00 
    1.3469859626250130E+01 
    1.3244975390877867E+01 
    1.5586552721119331E+01 
    7.3159847331339032E+00 
    1.6670078294137113E+01 
    1.3263893160276892E+01 
    1.9149967806726568E+01 
    1.4382755353998594E+01 
    1.0568180330132350E+01 
    1.2818682736430850E+01 
    1.4033907788912167E+01 
    1.3891210375453543E+01 
    2.0475097017881453E+01 
    1.1016284385529859E+01 
    1.0789356431308468E+01 
    7.7256158702959770E+00 
    1.9629559013290642E+01 
    1.2876840534979813E+01 
    1.8419061860462417E+01 
    1.3209664409671557E+01 
    8.5275349945769019E+00 
    1.8796809970121799E+01 
    1.3183301239923365E+01 
    9.4021519721167799E+00 
    1.0053839383427569E+01 
    1.0481250918155734E+01 
    1.9183670295632172E+01 
    1.3353181512358638E+01 
    2.0226314439928203E+01 
    1.3138589445249794E+01 
    1.3069230981350433E+01 
    1.2534342639472255E+01 
    1.8929752943737665E+01 
    1.2969464013313425E+01 
    1.0541808886732262E+01 
    2.1556031734109109E+01 
    1.9046860491344596E+01 
    8.9460242386077660E+00 
    3.3097357016329045E+00 
    1.3339212781669461E+01 
    1.2419245151393890E+01 
    1.1188486713797273E+01 
    1.2254467799067410E+01 
    1.8891713310799336E+01 
    1.2934311904540813E+01 
    1.1659189362199017E+01 
    1.8651561713040113E+01 
    8.8648081294136354E+00 
    1.8056716641734045E+01 
    1.1947394916738398E+01 
    1.0415533098178834E+01 
    1.1318855631207144E+01 
    1.9751878099646341E+01 
    1.3225161191803593E+01 
    1.3234946416921002E+01 
    7.4240427787804562E+00 
    8.0660508082326352E+00 
    1.7042524542137787E+01 
    1.3246324395163098E+01 
    1.3392873091504217E+01 
    2.1251457760941861E+01 
    1.0788388234077374E+01 
    1.3260454925697337E+01 
    9.1944844993388557E+00 
    9.5105342273476019E+00 
    1.8865744164268737E+01 
    1.2819936359909153E+01 
    8.9864319174694991E+00 
    1.3877648238444829E+01 
    1.3137817310757319E+01 
    1.8891542862188096E+01 
    2.1379885052979603E+01 
    1.2472763185514033E+00 
    1.3345850478483134E+01 
    1.3524474728499408E+01 
    1.9025825700613122E+01 
    1.2720902202896786E+01 
    1.3193128435617728E+01 
    2.0498569362135093E+01 
    1.1367534356759831E+01 
    9.0754299046383693E+00 
    1.6042839654365533E+01 
    1.8581943678013968E+01 
    2.0374572968801438E+01 
    2.0761186798133625E+01 
    1.3131386042683923E+01 
    1.3333955011349309E+01 
    1.4840346031187989E+01 
    8.4770780073868615E+00 
    1.8789137752313074E+01 
    9.9065711009883550E+00 
    8.8480256992260351E+00 
    1.6722018301134138E+01 
    1.5627765775202102E+01 
    8.6675858268987689E+00 
    1.8637908791536663E+01 
    2.0352648612724792E+01 
    1.3770307948719601E+01 
    2.1521683699701658E+01 
    1.8689237036414603E+01 
    1.2788092928537100E+01 
    1.9840783209731331E+01 
    9.5113438501021204E+00 
    1.8603118071829446E+01 
    1.3344252074477238E+01 
    1.3294107460046908E+01 
    2.1508638737213090E+01 
    1.2927963634862627E+01 
    1.6326001249109819E+01 
    1.1286035954041896E+01 
    2.0530312925866944E+01 
    1.8442365607446661E+01 
    1.1821243010106933E+01 
    1.8562452012813459E+01 
    1.1966091278124605E+01 
    1.3201063088255944E+01 
    2.0291682831508986E+01 
    1.9103162564715564E+01 
    2.0357446401147023E+01 
    1.9026358735888863E+01 
    1.2169009123223599E+01 
    1.2445930506816778E+01 
    2.0368173571086547E+01 
    1.2623722862465645E+01 
    1.8286836001002630E+01 
    1.2905236616758270E+01 
    4.9310304336561694E+00 
    8.9471541716355780E+00 
    8.2710489908566434E+00 
    2.0295878952091886E+01 
    2.1395191906488574E+01 
    1.8580326928636865E+01 
    1.5302295086048554E+01 
    1.9048693941928807E+01 
    1.8644598989875025E+01 
    1.9701993965941600E+01 
    7.1520197249461512E+00 
    4.5800304136649741E+00 
    1.4996443194335173E+01 
    1.2925663138714016E+01 
    1.8909252745019053E+01 
    1.8905887937668137E+01 
    1.3547353232688907E+01 
    1.8972051590682440E+01 
    1.3326173752173043E+01 
    1.3221278521624848E+01 
    6.4250888301716262E+00 
    4.5529003110052004E+00 
    2.1062185858000362E+01 
    1.0159205842199645E+01 
    1.1755578857433301E+01 
    1.3426331118822937E+01 
    2.3118810293288035E+01 
    1.3536305851217229E+01 
    1.3737050707931219E+01 
    5.2512118532040732E+00 
    1.3536104475390548E+01 
    1.3553198045886830E+01 
    1.9366440475956615E+01 
    1.1318429810866666E+01 
    1.2663638713366124E+01 
    2.1308586379541449E+01 
    1.3357088504271974E+01 
    1.8601322745141339E+01 
    1.8979206078481685E+01 
    1.6419078484922181E+01 
    1.1138114735936634E+01 
    1.9019499524790657E+01 
    1.3092388631507561E+01 
    1.8886814628194429E+01 
    1.8492766181224674E+01 
    2.0325705582514168E+01 
    1.9038940715807261E+01 
    1.7414596914975657E+01 
    1.3341586678400448E+01 
    8.6035191916891911E+00 
    2.2970957371903072E+01 
    1.0153278815589788E+01 
    2.0196507650310600E+01 
    1.3338171774767229E+01 
    1.0850495598910198E+01 
    6.2352915228702681E+00 
    1.3597851489912706E+01 
    1.9005755223511439E+01 
    1.8981314679267133E+01 
    1.3177861619130940E+01 
    1.3330512540877301E+01 
    2.1575852983295412E+01 
    2.0678068863744972E+01 
    1.3560842005217200E+01 
    4.2626957427019656E+00 
    1.7286427741673300E+01 
    2.3258870683623620E+01 
    1.3345946509027895E+01 
    1.5836651703686707E+01 
    1.2720850204473759E+01 
    2.2801168047679550E+01 
    2.0802758100352786E+01 
    2.0341802343038147E+01 
    1.3588400049254380E+01 
    5.8467761230616020E+00 
    1.2665724759925094E+01 
    1.2750876854649905E+01 
    1.2800255904628774E+01 
    4.6772419926738049E+00 