# vtk DataFile Version 2.0
Pressure Field Data 
ASCII 
DATASET UNSTRUCTURED_GRID 

POINTS 2860 double 

    0.0000000000000000E+00     0.0000000000000000E+00     0.0000000000000000E+00 
    1.0000000000000000E+00     0.0000000000000000E+00     0.0000000000000000E+00 
    1.0000000000000000E+00     1.0000000000000000E+00     0.0000000000000000E+00 
    0.0000000000000000E+00     1.0000000000000000E+00     0.0000000000000000E+00 
    2.5000000000000000E-01     2.5000000000000000E-01     0.0000000000000000E+00 
    7.5000000000000000E-01     2.5000000000000000E-01     0.0000000000000000E+00 
    7.5000000000000000E-01     7.5000000000000000E-01     0.0000000000000000E+00 
    2.5000000000000000E-01     7.5000000000000000E-01     0.0000000000000000E+00 
    3.1249999999942091E-02     0.0000000000000000E+00     0.0000000000000000E+00 
    6.2499999999873469E-02     0.0000000000000000E+00     0.0000000000000000E+00 
    9.3749999999826514E-02     0.0000000000000000E+00     0.0000000000000000E+00 
    1.2499999999977961E-01     0.0000000000000000E+00     0.0000000000000000E+00 
    1.5624999999968961E-01     0.0000000000000000E+00     0.0000000000000000E+00 
    1.8749999999959971E-01     0.0000000000000000E+00     0.0000000000000000E+00 
    2.1874999999950970E-01     0.0000000000000000E+00     0.0000000000000000E+00 
    2.4999999999941969E-01     0.0000000000000000E+00     0.0000000000000000E+00 
    2.8124999999932920E-01     0.0000000000000000E+00     0.0000000000000000E+00 
    3.1249999999923850E-01     0.0000000000000000E+00     0.0000000000000000E+00 
    3.4374999999914790E-01     0.0000000000000000E+00     0.0000000000000000E+00 
    3.7499999999905720E-01     0.0000000000000000E+00     0.0000000000000000E+00 
    4.0624999999896660E-01     0.0000000000000000E+00     0.0000000000000000E+00 
    4.3749999999887590E-01     0.0000000000000000E+00     0.0000000000000000E+00 
    4.6874999999878530E-01     0.0000000000000000E+00     0.0000000000000000E+00 
    4.9999999999869471E-01     0.0000000000000000E+00     0.0000000000000000E+00 
    5.3124999999877620E-01     0.0000000000000000E+00     0.0000000000000000E+00 
    5.6249999999885780E-01     0.0000000000000000E+00     0.0000000000000000E+00 
    5.9374999999893940E-01     0.0000000000000000E+00     0.0000000000000000E+00 
    6.2499999999902101E-01     0.0000000000000000E+00     0.0000000000000000E+00 
    6.5624999999910261E-01     0.0000000000000000E+00     0.0000000000000000E+00 
    6.8749999999918421E-01     0.0000000000000000E+00     0.0000000000000000E+00 
    7.1874999999926570E-01     0.0000000000000000E+00     0.0000000000000000E+00 
    7.4999999999934730E-01     0.0000000000000000E+00     0.0000000000000000E+00 
    7.8124999999942890E-01     0.0000000000000000E+00     0.0000000000000000E+00 
    8.1249999999951039E-01     0.0000000000000000E+00     0.0000000000000000E+00 
    8.4374999999959199E-01     0.0000000000000000E+00     0.0000000000000000E+00 
    8.7499999999967359E-01     0.0000000000000000E+00     0.0000000000000000E+00 
    9.0624999999975520E-01     0.0000000000000000E+00     0.0000000000000000E+00 
    9.3749999999983680E-01     0.0000000000000000E+00     0.0000000000000000E+00 
    9.6874999999991840E-01     0.0000000000000000E+00     0.0000000000000000E+00 
    1.0000000000000000E+00     3.1249999999942091E-02     0.0000000000000000E+00 
    1.0000000000000000E+00     6.2499999999873469E-02     0.0000000000000000E+00 
    1.0000000000000000E+00     9.3749999999826514E-02     0.0000000000000000E+00 
    1.0000000000000000E+00     1.2499999999977961E-01     0.0000000000000000E+00 
    1.0000000000000000E+00     1.5624999999968961E-01     0.0000000000000000E+00 
    1.0000000000000000E+00     1.8749999999959971E-01     0.0000000000000000E+00 
    1.0000000000000000E+00     2.1874999999950970E-01     0.0000000000000000E+00 
    1.0000000000000000E+00     2.4999999999941969E-01     0.0000000000000000E+00 
    1.0000000000000000E+00     2.8124999999932920E-01     0.0000000000000000E+00 
    1.0000000000000000E+00     3.1249999999923850E-01     0.0000000000000000E+00 
    1.0000000000000000E+00     3.4374999999914790E-01     0.0000000000000000E+00 
    1.0000000000000000E+00     3.7499999999905720E-01     0.0000000000000000E+00 
    1.0000000000000000E+00     4.0624999999896660E-01     0.0000000000000000E+00 
    1.0000000000000000E+00     4.3749999999887590E-01     0.0000000000000000E+00 
    1.0000000000000000E+00     4.6874999999878530E-01     0.0000000000000000E+00 
    1.0000000000000000E+00     4.9999999999869471E-01     0.0000000000000000E+00 
    1.0000000000000000E+00     5.3124999999877620E-01     0.0000000000000000E+00 
    1.0000000000000000E+00     5.6249999999885780E-01     0.0000000000000000E+00 
    1.0000000000000000E+00     5.9374999999893940E-01     0.0000000000000000E+00 
    1.0000000000000000E+00     6.2499999999902101E-01     0.0000000000000000E+00 
    1.0000000000000000E+00     6.5624999999910261E-01     0.0000000000000000E+00 
    1.0000000000000000E+00     6.8749999999918421E-01     0.0000000000000000E+00 
    1.0000000000000000E+00     7.1874999999926570E-01     0.0000000000000000E+00 
    1.0000000000000000E+00     7.4999999999934730E-01     0.0000000000000000E+00 
    1.0000000000000000E+00     7.8124999999942890E-01     0.0000000000000000E+00 
    1.0000000000000000E+00     8.1249999999951039E-01     0.0000000000000000E+00 
    1.0000000000000000E+00     8.4374999999959199E-01     0.0000000000000000E+00 
    1.0000000000000000E+00     8.7499999999967359E-01     0.0000000000000000E+00 
    1.0000000000000000E+00     9.0624999999975520E-01     0.0000000000000000E+00 
    1.0000000000000000E+00     9.3749999999983680E-01     0.0000000000000000E+00 
    1.0000000000000000E+00     9.6874999999991840E-01     0.0000000000000000E+00 
    9.6875000000003686E-01     1.0000000000000000E+00     0.0000000000000000E+00 
    9.3750000000011691E-01     1.0000000000000000E+00     0.0000000000000000E+00 
    9.0625000000015765E-01     1.0000000000000000E+00     0.0000000000000000E+00 
    8.7500000000017863E-01     1.0000000000000000E+00     0.0000000000000000E+00 
    8.4375000000028044E-01     1.0000000000000000E+00     0.0000000000000000E+00 
    8.1250000000040856E-01     1.0000000000000000E+00     0.0000000000000000E+00 
    7.8125000000054956E-01     1.0000000000000000E+00     0.0000000000000000E+00 
    7.5000000000066480E-01     1.0000000000000000E+00     0.0000000000000000E+00 
    7.1875000000086831E-01     1.0000000000000000E+00     0.0000000000000000E+00 
    6.8750000000102829E-01     1.0000000000000000E+00     0.0000000000000000E+00 
    6.5625000000114431E-01     1.0000000000000000E+00     0.0000000000000000E+00 
    6.2500000000129829E-01     1.0000000000000000E+00     0.0000000000000000E+00 
    5.9375000000147926E-01     1.0000000000000000E+00     0.0000000000000000E+00 
    5.6250000000168354E-01     1.0000000000000000E+00     0.0000000000000000E+00 
    5.3125000000188671E-01     1.0000000000000000E+00     0.0000000000000000E+00 
    5.0000000000205835E-01     1.0000000000000000E+00     0.0000000000000000E+00 
    4.6875000000192979E-01     1.0000000000000000E+00     0.0000000000000000E+00 
    4.3750000000180111E-01     1.0000000000000000E+00     0.0000000000000000E+00 
    4.0625000000167238E-01     1.0000000000000000E+00     0.0000000000000000E+00 
    3.7500000000154382E-01     1.0000000000000000E+00     0.0000000000000000E+00 
    3.4375000000141509E-01     1.0000000000000000E+00     0.0000000000000000E+00 
    3.1250000000128642E-01     1.0000000000000000E+00     0.0000000000000000E+00 
    2.8125000000115769E-01     1.0000000000000000E+00     0.0000000000000000E+00 
    2.5000000000102918E-01     1.0000000000000000E+00     0.0000000000000000E+00 
    2.1875000000090050E-01     1.0000000000000000E+00     0.0000000000000000E+00 
    1.8750000000077180E-01     1.0000000000000000E+00     0.0000000000000000E+00 
    1.5625000000064329E-01     1.0000000000000000E+00     0.0000000000000000E+00 
    1.2500000000051459E-01     1.0000000000000000E+00     0.0000000000000000E+00 
    9.3750000000385914E-02     1.0000000000000000E+00     0.0000000000000000E+00 
    6.2500000000257239E-02     1.0000000000000000E+00     0.0000000000000000E+00 
    3.1250000000128557E-02     1.0000000000000000E+00     0.0000000000000000E+00 
    0.0000000000000000E+00     9.6875000000003686E-01     0.0000000000000000E+00 
    0.0000000000000000E+00     9.3750000000011691E-01     0.0000000000000000E+00 
    0.0000000000000000E+00     9.0625000000015765E-01     0.0000000000000000E+00 
    0.0000000000000000E+00     8.7500000000017863E-01     0.0000000000000000E+00 
    0.0000000000000000E+00     8.4375000000028044E-01     0.0000000000000000E+00 
    0.0000000000000000E+00     8.1250000000040856E-01     0.0000000000000000E+00 
    0.0000000000000000E+00     7.8125000000054956E-01     0.0000000000000000E+00 
    0.0000000000000000E+00     7.5000000000066480E-01     0.0000000000000000E+00 
    0.0000000000000000E+00     7.1875000000086831E-01     0.0000000000000000E+00 
    0.0000000000000000E+00     6.8750000000102829E-01     0.0000000000000000E+00 
    0.0000000000000000E+00     6.5625000000114431E-01     0.0000000000000000E+00 
    0.0000000000000000E+00     6.2500000000129829E-01     0.0000000000000000E+00 
    0.0000000000000000E+00     5.9375000000147926E-01     0.0000000000000000E+00 
    0.0000000000000000E+00     5.6250000000168354E-01     0.0000000000000000E+00 
    0.0000000000000000E+00     5.3125000000188671E-01     0.0000000000000000E+00 
    0.0000000000000000E+00     5.0000000000205835E-01     0.0000000000000000E+00 
    0.0000000000000000E+00     4.6875000000192979E-01     0.0000000000000000E+00 
    0.0000000000000000E+00     4.3750000000180111E-01     0.0000000000000000E+00 
    0.0000000000000000E+00     4.0625000000167238E-01     0.0000000000000000E+00 
[...]
CELL_DATA 2795 
SCALARS Pressure double 1 
LOOKUP_TABLE default 

    8.6173247878993244E+00 
    1.9056620684993884E+01 
    1.3444310884075643E+01 
    1.3147565555828658E+01 
    1.0581503695155615E+01 
    1.8857169605340228E+01 
    1.9854300690999146E+01 
    7.7106566441237430E+00 
    1.3997106111544747E+01 
    1.0798387453531912E+01 
    9.2115517606363415E+00 
    1.8475613514385564E+01 
    1.8890101925787086E+01 
    1.8809222186009194E+01 
    1.2454072597410830E+01 
    7.5754747759930785E+00 
    1.2189464259766764E+01 
    9.8056057660385587E+00 
    1.7912712255191519E+01 
    1.3423489953936876E+01 
    1.3320933662321455E+01 
    1.8708971109587427E+01 
    1.2821825656531431E+01 
    5.3333220599793496E-01 
    1.8392100916164342E+01 
    1.8887791473682380E+01 
    1.9896617917375284E+01 
    8.8657949094984314E+00 
    1.8345340040913879E+01 
    1.9877367656278984E+01 
    1.3652553042859493E+01 
    1.3626622821041117E+01 
    9.6257664729444752E+00 
    1.3407734719004793E+01 
    4.4383031602681724E+00 
    1.2191802381977256E+01 
    1.3392258562846209E+01 
    1.9928128000459090E+01 
    1.9825713971468360E+01 
    1.8494031705058216E+01 
    1.0434546264097566E+01 
    1.8460757963970174E+01 
    1.0987267466397774E+00 
    1.3419849047424675E+01 
    1.9545415273971194E+01 
    1.9254778022297163E+01 
    1.8460019576471332E+01 
    1.4416769844421337E+01 
    1.8496605664823839E+01 
    1.2462596325364794E+01 
    1.1900010887176185E+01 
    1.3589259973593819E+01 
    1.3309565600588895E+01 
    1.2265100491645690E+01 
    1.3732830194146395E+01 
    1.7603996730402969E+01 
    1.5619228691760076E+01 
    1.0638731356981650E+01 
    1.8721249279474481E+01 
    1.8595818378373419E+01 
    1.3107036110915756E+01 
    1.2952496049406911E+01 
    1.3033573106133471E+01 
    1.9749693183462149E+01 
    2.0086517548981895E+01 
    1.2209248569119042E+01 
    1.3587396572896500E+01 
    1.8172903201129838E+01 
    1.5438287438928452E+01 
    1.3028296863364908E+01 
    2.0094615792232339E+01 
    1.8622708113283476E+01 
    1.2044882031608205E+01 
    1.9386706986498044E+01 
    1.4007187463483033E+01 
    1.8229663649514585E+01 
    1.9954636225470935E+01 
    1.4041398466862509E+01 
    8.6863439246966347E+00 
    1.3606601490385840E+01 
    1.9836025099795542E+01 
    2.0130146822220109E+01 
    1.2210375492202354E+01 
    1.3533167551676504E+01 
    2.0195718341607179E+01 
    1.3389631960987309E+01 
    1.2928886136339905E+01 
    1.5986005086579301E+01 
    8.3397294810280993E+00 
    1.1936977352330066E+01 
    1.3529737265456152E+01 
    1.4155215999023113E+01 
    2.1915032794045160E+01 
    1.0281484845595179E+01 
    1.3595668742348316E+01 
    1.8428390737327700E+01 
    1.8803627919305303E+01 
    9.0502765544220676E+00 
    1.3246560000563463E+01 
    1.3564485695771092E+01 
    1.8845004412146277E+01 
    1.3552217081139231E+01 
    1.8725725166060347E+01 
    5.4994316325443204E+00 
    8.9487534785764566E+00 
    1.3825864864182201E+01 
    1.9071688201514917E+01 
    1.2150255779689610E+01 
    1.2828193779553141E+01 
    1.3526130797779160E+01 
    1.2890868989166549E+01 
    1.5190264637764036E+01 
    1.2506367775624497E+01 
    1.2054131353638699E+01 
    9.4381206226159993E+00 
    1.5965033694403290E+01 
    1.3631881800476247E+01 
    1.9637661130329178E+01 
    1.1720448741593922E+01 
    1.3123765453836592E+01 
    1.8629828082323566E+01 
    1.1040334359478466E+01 
    1.9274697416384075E+01 
    1.3462193602418640E+01 
    1.3043794802164893E+01 
    1.8813202162393743E+01 
    1.3619660028840455E+01 
    1.9966523551219780E+01 
    1.6015590827394011E+01 
    1.7364275093484828E+01 
    1.9918432435717307E+01 
    1.0302154985084139E+01 
    1.3846814659933258E+01 
    1.8848785784030873E+01 
    4.1048295236369094E+00 
    1.3707784015537742E+01 
    1.9874675211719911E+01 
    1.3074307662348687E+01 
    1.4859280812413228E+01 
    8.9093739884296870E+00 
    1.8431512311540235E+01 
    2.2452759758377884E+01 
    1.6644770371237783E+01 
    1.3076789112756900E+01 
    1.1797929009729208E+01 
    1.4482777124172939E+01 
    1.3479376280621818E+01 
    9.3344093301602289E+00 
    1.9913360711219259E+01 
    1.8873239011130185E+01 
    1.8431060482372526E+01 
    1.4156170911286029E+01 
    1.2006057183701280E+01 
    1.3315065841889755E+01 
    1.9420822862653761E+01 
    1.2321265834763212E+01 
    1.3605182752115233E+01 
    1.2527085361541587E+01 
    1.5741889462163350E+01 
    2.2439966828075846E+01 
    1.8415832235148468E+01 
    1.1839163016438750E+01 
    1.9102725710243877E+01 
    1.9012820894187666E+01 
    1.9125250456558092E+01 
    2.0449987045524356E+01 
    2.1104184600549999E+01 
    1.9228276068743327E+01 
    1.3578612892239116E+01 
    1.4641609510875686E+01 
    1.9001037790398723E+01 
    1.9638544899772413E+01 
    9.7768588617376047E+00 
    1.8457561497901253E+01 
    1.9363717875100125E+01 
    9.5035027901455020E+00 
    2.0384239185330916E+01 
    2.0317692358218643E+01 
    1.8008105005918829E+01 
    1.3922868444281725E+01 
    3.6275329661899920E+00 
    1.9875864058465307E+01 
    1.3760314193963259E+01 
    2.0035386756872931E+01 
    1.2990010288145001E+01 
    1.9587435868636138E+01 
    1.3638498090331015E+00 
    1.7358776800876445E+01 
    1.3002994868332898E+01 
    1.1959225003671939E+01 
    1.1670815142038496E+01 
    1.3428964035679625E+01 
    1.4730036164190393E+01 
    1.4112200053729458E+01 
    9.5388779757519178E+00 
    1.9642621200904912E+01 
    1.8891873716116756E+01 
    1.5583246312507212E+01 
    1.3816072611457704E+01 
    2.0922452561230949E+00 
    1.0779820179489754E+01 
    7.4590119936021377E+00 
    1.9892652648109134E+01 
    1.5036464050722637E+01 
    1.8891642647300433E+01 
    1.8984674012368266E+01 
    1.2409225365118903E+01 
    1.5671119557741276E+01 
    1.8413725956264571E+01 
    2.0301320642982752E+01 
    8.9077114819475867E+00 
    1.6659109223442776E+01 
    1.4077961477743562E+01 
    7.9492586038990254E+00 
    1.2412083810109696E+01 
    1.6358305822377201E+01 
    1.8930018597501260E+01 
    1.3480322430774866E+01 
    1.9091895486639096E+01 
    1.8747402090954118E+01 
    1.8680557249070208E+01 
    1.3317687494409684E+01 
    1.1824231307448605E+01 
    1.8442838186961971E+01 
    1.2036021168081170E+01 
    1.3562178498290004E+01 
    1.1820360655419353E+01 
    1.3553924040766885E+01 
    1.8997424781356564E+01 
    8.4279302496886963E+00 
    1.2298319364937036E+01 
    1.9786513030648521E+01 
    1.3324163529065446E+01 
    1.4913696730516920E+01 
    8.6359558033998560E+00 
    1.2116027060156577E+01 
    1.8714387840945015E+01 
    1.9170186167568993E+01 
    7.0840551279464554E+00 
    1.3340584774877495E+01 
    1.1839047842466439E+01 
    2.0830001164270666E+01 
    2.0146533423783737E+01 
    2.1142016369284011E+01 
    1.3360904441816160E+01 
    1.8958525661938197E+01 
    1.8329764748834258E+01 
    1.3208898827779722E+01 
    1.8430896959862672E+01 
    1.3816407275518463E+01 
    8.0144244904996071E+00 
    1.3760813586756312E+01 
    1.9765049070540872E+01 
    1.8425636500884753E+01 
    9.1784272885789449E+00 
    1.8469375488693323E+01 
    1.4763110313903985E+01 
    1.3683484063171546E+01 
    1.3158852471053070E+01 
    1.8210111973967035E+01 
    1.4292117656542741E+01 
    1.8449981529252160E+01 
    1.3348685910815885E+01 
    8.2429757542575715E+00 
    1.3642492636065070E+01 
    1.1668678832766902E+01 
    1.6673565622932092E+01 
    2.0031273163126123E+01 
    1.8442150188390009E+01 
    1.9865842903033482E+01 
    1.3259824058578086E+01 
    8.9157241399015330E+00 
    9.0496247140756267E+00 
    1.3902419600035280E+01 
    1.3531314843407339E+01 
    2.0765105317334709E+00 
    1.7647517337521286E+01 
    2.0507566474633293E+01 
    1.3010275266607248E+01 
    8.3898440805626002E+00 
    1.5502757595966253E+01 
    1.8463266932681606E+01 
    9.9610623319153095E+00 
    6.8014206421191545E+00 
    1.3517900621814954E+01 
    1.8572316860461505E+01 
    1.9520986685805848E+01 
    1.9269468470110777E+01 
    1.9177030821245800E+01 
    9.6724908884028853E+00 
    1.3677917636131436E+01 
    1.7847104821573012E+01 
    1.0600063233697687E+01 
    1.8869880616622471E+01 
    1.5949414406316665E+01 
    9.1828448747689411E+00 
    1.8564737893495050E+01 
    1.9920200814099712E+01 
    1.8573932585148452E+01 
    9.5930213112708529E+00 
    1.3583207183871481E+01 
    1.0550285341553204E+01 
    1.2828233870005587E+01 
    1.8454318427050463E+01 
    1.8437229082221492E+01 
    9.6553850984439435E+00 
    1.9645234801388494E+01 
    1.4211530495846480E+01 
    1.8488335882605455E+01 
    1.9666134563700869E+01 
    1.8468090759727836E+01 
    1.6966371624569405E+01 
    2.0911666681135184E+01 
    1.2944240923608046E+01 
    1.9825654583857887E+01 
    1.8519056583418212E+01 
    1.9921929137323961E+01 
    1.9634921893873571E+01 
    1.3067482110000940E+01 
    1.3432679945235684E+01 
    1.3000358731496414E+01 
    1.6273636548280905E+01 
    5.5276564917777176E+00 
    1.3827147952773558E+01 
    2.1052055249971179E+01 
    1.3822346600784222E+01 
    1.4055267606434830E+01 
    1.9886130097533918E+01 
    2.0174797126914033E+01 
    1.2825540148552157E+01 
    1.8475172256231634E+01 
    1.8432922226354961E+01 
    1.4039536005189170E+01 
    1.9571187282141739E+01 
    9.7079344372838428E+00 
    6.1837992267244895E+00 
    1.4393972713740956E+01 
    1.3836599308532451E+01 
    1.8428392216048152E+01 
    9.0353021680311922E+00 
    1.9174805503511902E+01 
    6.3122075975951688E+00 
    1.3767346537313157E+01 
    1.3077710113144942E+01 
    1.3558973807687053E+01 
    2.2491468569134277E+01 
    5.3606769487533947E+00 
    1.3728360757381569E+01 
    1.6275457404769668E+01 
    1.3146300569206435E+01 
    1.0508765851931329E+01 
    1.9410046621015898E+01 
    2.2018741901413968E+01 
    1.9559242593061526E+01 
    1.3655408694777305E+01 
    7.9233761559777829E+00 
    2.1855143551636665E+01 
    1.8866875065334693E+01 
    9.9635645784988274E+00 
    1.3249007778571357E+01 
    2.0425319385864530E+01 
    4.5612610016203670E+00 
    1.3901358269530757E+01 
    1.9565083769847480E+01 
    1.3575804956203974E+01 
    1.1831501559437411E+01 
    1.3775945826844850E+01 
    1.7953072312819184E+01 
    1.3557739152646320E+01 
    7.0693128726707304E+00 
    1.3433656835645056E+00 
    1.0151815989268462E+01 
    2.0735686941839269E+01 
    1.3000100447861628E+01 
    1.5260289083051839E+01 
    1.4659242930084599E+01 
    1.6697641698387070E+01 
    1.3589885341912607E+01 
    1.8730168148798217E+01 
    2.2506346739771299E+01 
    1.5880715825965440E+01 
    1.9788602569837092E+01 
    8.0096345662628665E-01 
    1.8439245645728828E+01 
    7.7280892418858178E+00 
    2.1244677011998295E+01 
    1.3744665099410746E+01 
    1.2094052309293732E+01 
    1.0757384612486367E+01 
    7.4383963443819976E+00 
    1.4975614422699842E+01 
    1.0747284951493407E+01 
    1.6530566201774491E+01 
    3.0599113769455712E+00 
    1.4810133604202237E+01 
    1.8314819783211519E+01 
    8.2164300926135159E+00 
    1.9046607466676008E+01 
    2.0979857855364937E+01 
    1.8870054489393432E+01 
    1.3580236536113164E+01 
    1.3552155443093151E+01 
    1.3735974622746816E+01 
    8.0474595264062305E+00 
    1.2661686993792072E+01 
    1.2466413188225493E+01 
    1.3722808104254629E+01 
    1.2914775086606237E+01 
    1.0238168513915429E+00 
    8.8220947380905486E+00 
    1.3376843201134870E+01 
    1.3692257662469512E+01 
    1.7006733589930157E+01 
    2.9958202405017511E+00 
    1.3989065423850034E+01 
    1.3845377308796913E+01 
    5.1613145289936746E+00 
    1.8684212984874886E+01 
    1.2045375695241161E+01 
    1.3693743830455931E+01 
    1.8852078698445414E+01 
    7.4574126116222477E+00 
    1.8825145903153231E+01 
    1.2206560605819192E+01 
    1.3680261543094880E+00 
    1.3072962421031637E+01 
    1.9696843695974980E+01 
    1.8441003781335649E+01 
    1.8468125242653123E+01 
    1.4147201476965988E+01 
    1.3770383497172485E+01 
    1.2038605101187684E+01 
    9.5630907011863560E+00 
    1.9000038315231151E+01 
    1.3242678130208931E+01 
    9.2755125299418300E+00 
    1.8461187107366563E+01 
    1.9400679728478686E+01 
    1.3929915243168161E+01 
    1.3375501987073388E+01 
    2.2376934528805158E+01 
    1.4040748781474541E+01 
    1.9054220029214267E+01 
    1.1441282974380162E+01 
    2.2534477738183703E+01 
    8.9979306679418514E+00 
    1.2507143532925239E+01 
    1.0177370068225139E+01 
    1.4332189694905450E+01 
    1.1641692938026464E+01 
    2.2517508695368505E+01 
    1.4101217593235372E+01 
    1.7936429405136511E+01 
    9.2717826324091153E+00 
    1.3583732087310620E+01 
    1.8821426050261781E+01 
    1.1729041987423166E+01 
    9.9723538646688059E+00 
    1.5171627773141893E+01 
    1.9141675261717928E+01 
    9.9222463131520584E+00 
    1.3104852998747480E+01 
    1.3416191470212508E+01 
    1.8401319405734867E+01 
    1.3167288458871770E+01 
    1.9124613420483882E+01 
    1.9959858814290104E+01 
    1.2069188079757946E+01 
    1.1833338921620095E+01 
    1.0757960485496691E+01 
    1.8605098831668521E+01 
    1.3864763473183979E+01 
    2.2059752348811728E+01 
    1.7179159080373807E+01 
    1.8755101807831245E+01 
    2.1711000253793923E+01 
    2.0984769231119834E+01 
    1.3632926329034481E+01 
    1.3704419148850889E+01 
    1.8026971832031673E+01 
    1.8495811858602927E+01 
    1.9231901685232476E+01 
    1.8896226800852485E+01 
    2.2403510961539386E+01 
    1.4040139615099685E+01 
    1.2201547424391494E+01 
    1.4006149888411304E+01 
    1.9844649830534614E+01 
    1.3732783345349588E+01 
    8.0374866625578161E+00 
    1.3560598905307234E+01 
    2.0394204431840542E+01 
    1.3889090854003149E+01 
    1.2210233406962320E+01 
    1.3355881052054990E+01 
    2.0532383583438961E+01 
    1.8553979068093557E+01 
    1.1557176831975912E+01 
    2.0699131694789326E+01 
    1.3662745895272822E+01 
    1.9265238229381755E+01 
    2.0545217435902195E+01 
    1.4425051178142544E+01 
    7.4560183772876174E+00 
    1.4960600310381109E+01 
    7.7084914493405350E+00 
    1.3785402833771153E+01 
    1.3580862751085307E+01 
    1.5720977401937898E+01 
    8.1435880955368471E+00 
    1.6691734007792498E+01 
    1.3597351100853182E+01 
    1.8882095433177213E+01 
    1.4586866416192791E+01 
    1.1193589383446179E+01 
    1.3204470542924685E+01 
    1.4331411531131350E+01 
    1.4170516307817698E+01 
    2.0015193311380873E+01 
    1.1691645560364806E+01 
    1.1497700407932969E+01 
    8.5515147428185596E+00 
    1.9296175617971180E+01 
    1.3254314654228960E+01 
    1.8233627528646558E+01 
    1.3548405192868383E+01 
    9.3403464612660319E+00 
    1.8569587214039654E+01 
    1.3524888471059631E+01 
    1.0197555554017649E+01 
    1.0818364219657672E+01 
    1.1207246920277216E+01 
    1.8926862543511657E+01 
    1.3725204930414149E+01 
    1.9803441811043928E+01 
    1.3485025861032192E+01 
    1.3422796512917371E+01 
    1.3007040142446867E+01 
    1.8688755344915098E+01 
    1.3331804780064326E+01 
    1.1276708658856350E+01 
    2.0972386415224641E+01 
    1.8797746451983585E+01 
    9.4618888839419295E+00 
    3.7715744203176431E+00 
    1.3712730105149163E+01 
    1.2828419874596026E+01 
    1.1838114820757104E+01 
    1.2762898735717942E+01 
    1.8741040717074704E+01 
    1.3357169047310668E+01 
    1.2243363808855545E+01 
    1.8528226738014769E+01 
    9.3539757747360142E+00 
    1.7978188382325285E+01 
    1.2348011112408109E+01 
    1.1082298069624619E+01 
    1.1947373712331665E+01 
    1.9379503426501465E+01 
    1.3561426115796493E+01 
    1.3570517785339833E+01 
    8.2790391769849361E+00 
    8.9454512199749203E+00 
    1.7011950051476443E+01 
    1.3580963420352088E+01 
    1.3760427027309593E+01 
    2.0687250430401683E+01 
    1.1489202176529028E+01 
    1.3593900260485469E+01 
    9.6878379774983454E+00 
    9.9974487494977744E+00 
    1.8639485764897135E+01 
    1.3191634855196728E+01 
    9.8586024047019407E+00 
    1.4158374163982606E+01 
    1.3486430946634215E+01 
    1.8659273387301219E+01 
    2.0797749497165309E+01 
    1.4531357783709193E+00 
    1.3718599930564872E+01 
    1.3835307830241568E+01 
    1.8774760252525212E+01 
    1.3156720065371095E+01 
    1.3531624131027494E+01 
    2.0092887619658036E+01 
    1.1988571520106092E+01 
    9.9443878035243269E+00 
    1.6137303144092154E+01 
    1.8460638156047278E+01 
    1.9918579679889316E+01 
    2.0260799915846722E+01 
    1.3529238877724096E+01 
    1.3708213349937985E+01 
    1.5038126883334936E+01 
    8.9570194154921783E+00 
    1.8654584571934336E+01 
    1.0717422226190241E+01 
    9.3498469413821290E+00 
    1.6758373281643198E+01 
    1.5757945772115002E+01 
    9.1588322751583870E+00 
    1.8512082163086504E+01 
    1.9900783978352173E+01 
    1.4060006296000786E+01 
    2.0921358897281415E+01 
    1.8560347437381722E+01 
    1.3222076873585300E+01 
    1.9491015773381029E+01 
    1.0038485477191006E+01 
    1.8486424007654211E+01 
    1.3717248329888626E+01 
    1.3672199210248104E+01 
    2.0902255734232945E+01 
    1.3301352443376967E+01 
    1.6396305999053258E+01 
    1.1915988768542121E+01 
    2.0055763310465956E+01 
    1.8330396777306401E+01 
    1.2407951022274744E+01 
    1.8429273438003658E+01 
    1.2466781413724629E+01 
    1.3538043542081882E+01 
    1.9847637970384554E+01 
    1.8865615672179786E+01 
    1.9904644614960908E+01 
    1.8776980651563147E+01 
    1.2677597367036668E+01 
    1.2924023191990090E+01 
    1.9914531836970738E+01 
    1.3078607779830731E+01 
    1.8189247507840470E+01 
    1.3278270990197454E+01 
    5.5717459261622428E+00 
    9.4232250355009679E+00 
    8.7331584802681839E+00 
    1.9852108534860946E+01 
    2.0808892026728461E+01 
    1.8452517270124364E+01 
    1.5460327677807369E+01 
    1.8859483674687077E+01 
    1.8525361110400887E+01 
    1.9372269567668376E+01 
    7.9906004812398335E+00 
    5.1844516476840958E+00 
    1.5180796473311723E+01 
    1.3338225147796255E+01 
    1.8751254927950939E+01 
    1.8747079815180449E+01 
    1.3856228038233446E+01 
    1.8803676420073728E+01 
    1.3701358314450765E+01 
    1.3602487981060214E+01 
    7.2227393996290177E+00 
    5.1599834402459734E+00 
    2.0523145210388279E+01 
    1.0655891178238655E+01 
    1.2321148916702960E+01 
    1.3745580778809352E+01 
    2.2380252100900794E+01 
    1.3846122439449362E+01 
    1.4063477581935066E+01 
    5.8639129554870193E+00 
    1.3845939109622638E+01 
    1.3861563793047571E+01 
    1.9094145434506810E+01 
    1.1947890926610272E+01 
    1.3035270058997423E+01 
    2.0735991417666234E+01 
    1.3728536386715959E+01 
    1.8474546546450732E+01 
    1.8783400558437261E+01 
    1.6480781116810977E+01 
    1.1575966226044427E+01 
    1.8772854937455413E+01 
    1.3491088114899528E+01 
    1.8698388828712886E+01 
    1.8376687313859723E+01 
    1.9877624578131844E+01 
    1.8781662512894862E+01 
    1.7391752780984294E+01 
    1.3714913857413823E+01 
    9.0794643875804457E+00 
    2.2243228456615199E+01 
    1.0938718394225372E+01 
    1.9770420359809542E+01 
    1.3711868097068074E+01 
    1.1546193964278446E+01 
    6.8069851196211193E+00 
    1.3902379095375514E+01 
    1.8757799627477485E+01 
    1.8740343266937650E+01 
    1.3516554405570737E+01 
    1.3705032064091579E+01 
    2.0977897771411367E+01 
    2.0187074057109740E+01 
    1.3868549959741642E+01 
    4.8226654387601045E+00 
    1.7274553590875801E+01 
    2.2513592883538134E+01 
    1.3718806345726312E+01 
    1.5948701847681344E+01 
    1.3155876005479477E+01 
    2.2085753023559249E+01 
    2.0294521660789531E+01 
    1.9962780670460113E+01 
    1.3893740323575827E+01 
    6.3469329382175399E+00 
    1.3107689588450402E+01 
    1.3182951333801588E+01 
    1.3228854032208337E+01 
    5.2608591073481756E+00 