# vtk DataFile Version 2.0
Pressure Field Data 
ASCII 
DATASET UNSTRUCTURED_GRID 

POINTS 2860 double 

    0.0000000000000000E+00     0.0000000000000000E+00     0.0000000000000000E+00 
    1.0000000000000000E+00     0.0000000000000000E+00     0.0000000000000000E+00 
    1.0000000000000000E+00     1.0000000000000000E+00     0.0000000000000000E+00 
    0.0000000000000000E+00     1.0000000000000000E+00     0.0000000000000000E+00 
    2.5000000000000000E-01     2.5000000000000000E-01     0.0000000000000000E+00 
    7.5000000000000000E-01     2.5000000000000000E-01     0.0000000000000000E+00 
    7.5000000000000000E-01     7.5000000000000000E-01     0.0000000000000000E+00 
    2.5000000000000000E-01     7.5000000000000000E-01     0.0000000000000000E+00 
    3.1249999999942091E-02     0.0000000000000000E+00     0.0000000000000000E+00 
    6.2499999999873469E-02     0.0000000000000000E+00     0.0000000000000000E+00 
    9.3749999999826514E-02     0.0000000000000000E+00     0.0000000000000000E+00 
    1.2499999999977961E-01     0.0000000000000000E+00     0.0000000000000000E+00 
    1.5624999999968961E-01     0.0000000000000000E+00     0.0000000000000000E+00 
    1.8749999999959971E-01     0.0000000000000000E+00     0.0000000000000000E+00 
    2.1874999999950970E-01     0.0000000000000000E+00     0.0000000000000000E+00 
    2.4999999999941969E-01     0.0000000000000000E+00     0.0000000000000000E+00 
    2.8124999999932920E-01     0.0000000000000000E+00     0.0000000000000000E+00 
    3.1249999999923850E-01     0.0000000000000000E+00     0.0000000000000000E+00 
    3.4374999999914790E-01     0.0000000000000000E+00     0.0000000000000000E+00 
    3.7499999999905720E-01     0.0000000000000000E+00     0.0000000000000000E+00 
    4.0624999999896660E-01     0.0000000000000000E+00     0.0000000000000000E+00 
    4.3749999999887590E-01     0.0000000000000000E+00     0.0000000000000000E+00 
    4.6874999999878530E-01     0.0000000000000000E+00     0.0000000000000000E+00 
    4.9999999999869471E-01     0.0000000000000000E+00     0.0000000000000000E+00 
    5.3124999999877620E-01     0.0000000000000000E+00     0.0000000000000000E+00 
    5.6249999999885780E-01     0.0000000000000000E+00     0.0000000000000000E+00 
    5.9374999999893940E-01     0.0000000000000000E+00     0.0000000000000000E+00 
    6.2499999999902101E-01     0.0000000000000000E+00     0.0000000000000000E+00 
    6.5624999999910261E-01     0.0000000000000000E+00     0.0000000000000000E+00 
    6.8749999999918421E-01     0.0000000000000000E+00     0.0000000000000000E+00 
    7.1874999999926570E-01     0.0000000000000000E+00     0.0000000000000000E+00 
    7.4999999999934730E-01     0.0000000000000000E+00     0.0000000000000000E+00 
    7.8124999999942890E-01     0.0000000000000000E+00     0.0000000000000000E+00 
    8.1249999999951039E-01     0.0000000000000000E+00     0.0000000000000000E+00 
    8.4374999999959199E-01     0.0000000000000000E+00     0.0000000000000000E+00 
    8.7499999999967359E-01     0.0000000000000000E+00     0.0000000000000000E+00 
    9.0624999999975520E-01     0.0000000000000000E+00     0.0000000000000000E+00 
    9.3749999999983680E-01     0.0000000000000000E+00     0.0000000000000000E+00 
    9.6874999999991840E-01     0.0000000000000000E+00     0.0000000000000000E+00 
    1.0000000000000000E+00     3.1249999999942091E-02     0.0000000000000000E+00 
    1.0000000000000000E+00     6.2499999999873469E-02     0.0000000000000000E+00 
    1.0000000000000000E+00     9.3749999999826514E-02     0.0000000000000000E+00 
    1.0000000000000000E+00     1.2499999999977961E-01     0.0000000000000000E+00 
    1.0000000000000000E+00     1.5624999999968961E-01     0.0000000000000000E+00 
    1.0000000000000000E+00     1.8749999999959971E-01     0.0000000000000000E+00 
    1.0000000000000000E+00     2.1874999999950970E-01     0.0000000000000000E+00 
    1.0000000000000000E+00     2.4999999999941969E-01     0.0000000000000000E+00 
    1.0000000000000000E+00     2.8124999999932920E-01     0.0000000000000000E+00 
    1.0000000000000000E+00     3.1249999999923850E-01     0.0000000000000000E+00 
    1.0000000000000000E+00     3.4374999999914790E-01     0.0000000000000000E+00 
    1.0000000000000000E+00     3.7499999999905720E-01     0.0000000000000000E+00 
    1.0000000000000000E+00     4.0624999999896660E-01     0.0000000000000000E+00 
    1.0000000000000000E+00     4.3749999999887590E-01     0.0000000000000000E+00 
    1.0000000000000000E+00     4.6874999999878530E-01     0.0000000000000000E+00 
    1.0000000000000000E+00     4.9999999999869471E-01     0.0000000000000000E+00 
    1.0000000000000000E+00     5.3124999999877620E-01     0.0000000000000000E+00 
    1.0000000000000000E+00     5.6249999999885780E-01     0.0000000000000000E+00 
    1.0000000000000000E+00     5.9374999999893940E-01     0.0000000000000000E+00 
    1.0000000000000000E+00     6.2499999999902101E-01     0.0000000000000000E+00 
    1.0000000000000000E+00     6.5624999999910261E-01     0.0000000000000000E+00 
    1.0000000000000000E+00     6.8749999999918421E-01     0.0000000000000000E+00 
    1.0000000000000000E+00     7.1874999999926570E-01     0.0000000000000000E+00 
    1.0000000000000000E+00     7.4999999999934730E-01     0.0000000000000000E+00 
    1.0000000000000000E+00     7.8124999999942890E-01     0.0000000000000000E+00 
    1.0000000000000000E+00     8.1249999999951039E-01     0.0000000000000000E+00 
    1.0000000000000000E+00     8.4374999999959199E-01     0.0000000000000000E+00 
    1.0000000000000000E+00     8.7499999999967359E-01     0.0000000000000000E+00 
    1.0000000000000000E+00     9.0624999999975520E-01     0.0000000000000000E+00 
    1.0000000000000000E+00     9.3749999999983680E-01     0.0000000000000000E+00 
    1.0000000000000000E+00     9.6874999999991840E-01     0.0000000000000000E+00 
    9.6875000000003686E-01     1.0000000000000000E+00     0.0000000000000000E+00 
    9.3750000000011691E-01     1.0000000000000000E+00     0.0000000000000000E+00 
    9.0625000000015765E-01     1.0000000000000000E+00     0.0000000000000000E+00 
    8.7500000000017863E-01     1.0000000000000000E+00     0.0000000000000000E+00 
    8.4375000000028044E-01     1.0000000000000000E+00     0.0000000000000000E+00 
    8.1250000000040856E-01     1.0000000000000000E+00     0.0000000000000000E+00 
    7.8125000000054956E-01     1.0000000000000000E+00     0.0000000000000000E+00 
    7.5000000000066480E-01     1.0000000000000000E+00     0.0000000000000000E+00 
    7.1875000000086831E-01     1.0000000000000000E+00     0.0000000000000000E+00 
    6.8750000000102829E-01     1.0000000000000000E+00     0.0000000000000000E+00 
    6.5625000000114431E-01     1.0000000000000000E+00     0.0000000000000000E+00 
    6.2500000000129829E-01     1.0000000000000000E+00     0.0000000000000000E+00 
    5.9375000000147926E-01     1.0000000000000000E+00     0.0000000000000000E+00 
    5.6250000000168354E-01     1.0000000000000000E+00     0.0000000000000000E+00 
    5.3125000000188671E-01     1.0000000000000000E+00     0.0000000000000000E+00 
    5.0000000000205835E-01     1.0000000000000000E+00     0.0000000000000000E+00 
    4.6875000000192979E-01     1.0000000000000000E+00     0.0000000000000000E+00 
    4.3750000000180111E-01     1.0000000000000000E+00     0.0000000000000000E+00 
    4.0625000000167238E-01     1.0000000000000000E+00     0.0000000000000000E+00 
    3.7500000000154382E-01     1.0000000000000000E+00     0.0000000000000000E+00 
    3.4375000000141509E-01     1.0000000000000000E+00     0.0000000000000000E+00 
    3.1250000000128642E-01     1.0000000000000000E+00     0.0000000000000000E+00 
    2.8125000000115769E-01     1.0000000000000000E+00     0.0000000000000000E+00 
    2.5000000000102918E-01     1.0000000000000000E+00     0.0000000000000000E+00 
    2.1875000000090050E-01     1.0000000000000000E+00     0.0000000000000000E+00 
    1.8750000000077180E-01     1.0000000000000000E+00     0.0000000000000000E+00 
    1.5625000000064329E-01     1.0000000000000000E+00     0.0000000000000000E+00 
    1.2500000000051459E-01     1.0000000000000000E+00     0.0000000000000000E+00 
    9.3750000000385914E-02     1.0000000000000000E+00     0.0000000000000000E+00 
    6.2500000000257239E-02     1.0000000000000000E+00     0.0000000000000000E+00 
    3.1250000000128557E-02     1.0000000000000000E+00     0.0000000000000000E+00 
    0.0000000000000000E+00     9.6875000000003686E-01     0.0000000000000000E+00 
    0.0000000000000000E+00     9.3750000000011691E-01     0.0000000000000000E+00 
    0.0000000000000000E+00     9.0625000000015765E-01     0.0000000000000000E+00 
    0.0000000000000000E+00     8.7500000000017863E-01     0.0000000000000000E+00 
    0.0000000000000000E+00     8.4375000000028044E-01     0.0000000000000000E+00 
    0.0000000000000000E+00     8.1250000000040856E-01     0.0000000000000000E+00 
    0.0000000000000000E+00     7.8125000000054956E-01     0.0000000000000000E+00 
    0.0000000000000000E+00     7.5000000000066480E-01     0.0000000000000000E+00 
    0.0000000000000000E+00     7.1875000000086831E-01     0.0000000000000000E+00 
    0.0000000000000000E+00     6.8750000000102829E-01     0.0000000000000000E+00 
    0.0000000000000000E+00     6.5625000000114431E-01     0.0000000000000000E+00 
    0.0000000000000000E+00     6.2500000000129829E-01     0.0000000000000000E+00 
    0.0000000000000000E+00     5.9375000000147926E-01     0.0000000000000000E+00 
    0.0000000000000000E+00     5.6250000000168354E-01     0.0000000000000000E+00 
    0.0000000000000000E+00     5.3125000000188671E-01     0.0000000000000000E+00 
    0.0000000000000000E+00     5.0000000000205835E-01     0.0000000000000000E+00 
    0.0000000000000000E+00     4.6875000000192979E-01     0.0000000000000000E+00 
    0.0000000000000000E+00     4.3750000000180111E-01     0.0000000000000000E+00 
    0.0000000000000000E+00     4.0625000000167238E-01     0.0000000000000000E+00 
[...]
CELL_DATA 2795 
SCALARS Pressure double 1 
LOOKUP_TABLE default 

    6.1958428485519557E+00 
    1.3615719945827349E+01 
    9.6045193999412160E+00 
    9.2630690848851440E+00 
    7.5018951832433700E+00 
    1.3485549600434084E+01 
    1.4178264216606895E+01 
    5.5730812122238911E+00 
    1.0166159440201104E+01 
    7.7293311515507064E+00 
    6.5815207850583342E+00 
    1.3244743107217763E+01 
    1.3541965739540849E+01 
    1.3456867725605527E+01 
    8.8314894120860377E+00 
    5.4822259308300820E+00 
    8.5841609796193747E+00 
    7.0094542014254948E+00 
    1.2903265680781820E+01 
    9.5934461063757439E+00 
    9.4854053892196522E+00 
    1.3394645212768323E+01 
    9.0239857946054354E+00 
    3.6422473382842840E-01 
    1.3259969380874844E+01 
    1.3498764173651281E+01 
    1.4208684497947248E+01 
    6.3269908796964884E+00 
    1.3169767221816246E+01 
    1.4196543422235042E+01 
    9.6875285646908296E+00 
    9.8173290295108941E+00 
    6.7832069109006179E+00 
    9.5658249694944431E+00 
    3.1904851447966585E+00 
    8.5852174302300011E+00 
    9.5548139382195441E+00 
    1.4234114554942503E+01 
    1.4156820997814167E+01 
    1.3257165142272388E+01 
    7.4520888082838734E+00 
    1.3225568463530367E+01 
    7.6286004266487140E-01 
    9.4919137107197908E+00 
    1.4013510478679674E+01 
    1.3824927579943298E+01 
    1.3234587063676436E+01 
    1.0489872253280836E+01 
    1.3301871646722214E+01 
    8.7699349336415580E+00 
    8.3833509426499067E+00 
    9.7821594619633743E+00 
    9.3868810439539878E+00 
    8.6353667848003486E+00 
    9.7555053722813003E+00 
    1.2705865654769113E+01 
    1.1423246265680175E+01 
    7.5399618431996034E+00 
    1.3398887416715434E+01 
    1.3327359700435013E+01 
    9.2748628629354464E+00 
    9.2276216828386488E+00 
    9.1755524714176904E+00 
    1.4104395285833762E+01 
    1.4374568121552409E+01 
    8.5967645997999789E+00 
    9.7813238483807510E+00 
    1.3151640952332885E+01 
    1.1252542325231571E+01 
    9.2645761891082348E+00 
    1.4360402228374287E+01 
    1.3359221998969147E+01 
    8.4823331604746830E+00 
    1.3920851944284504E+01 
    9.9754145429430121E+00 
    1.3113420289868957E+01 
    1.4251991914949000E+01 
    9.9910874296968348E+00 
    6.3057269135840937E+00 
    9.8002653631322225E+00 
    1.4164777758019458E+01 
    1.4382067143102420E+01 
    8.6057016253011209E+00 
    9.7148791487652453E+00 
    1.4426768775800833E+01 
    9.5574526396414186E+00 
    9.1009730070986539E+00 
    1.1647636711872453E+01 
    6.0413490155042942E+00 
    8.4076192631021183E+00 
    9.7143862698583696E+00 
    1.0308000000213543E+01 
    1.5822047816270803E+01 
    7.3033164719444743E+00 
    9.7896035788707128E+00 
    1.3214028451731467E+01 
    1.3494778428112820E+01 
    6.4885499660018287E+00 
    9.4271287131497701E+00 
    9.7453682064815865E+00 
    1.3514204918212700E+01 
    9.7461529606899919E+00 
    1.3448630601170185E+01 
    3.9832938895400636E+00 
    6.3956869755309640E+00 
    1.0014862052628834E+01 
    1.3622488664884086E+01 
    8.5534654304905882E+00 
    9.0795804169804661E+00 
    9.7307605132177049E+00 
    9.0750969299089572E+00 
    1.1051801746168293E+01 
    8.8455776683478131E+00 
    8.4880378995850929E+00 
    6.8198570003035135E+00 
    1.1411677506247985E+01 
    9.8184386647397623E+00 
    1.4023719030565005E+01 
    8.4055234248086048E+00 
    9.2487931962793848E+00 
    1.3343831651560203E+01 
    7.8353765734219776E+00 
    1.3777277838319797E+01 
    9.6362257955080999E+00 
    9.1848635536723204E+00 
    1.3496186064147299E+01 
    9.8131866216590335E+00 
    1.4258241354771387E+01 
    1.1661356570675629E+01 
    1.2560926759693753E+01 
    1.4224747767710983E+01 
    7.3166882941550426E+00 
    1.0038576156341003E+01 
    1.3487586976704515E+01 
    2.9765925404879425E+00 
    9.7348782229933608E+00 
    1.4192810064306780E+01 
    9.2126361366607270E+00 
    1.0606899277547162E+01 
    6.4509418045780542E+00 
    1.3212753604766338E+01 
    1.6289584097526060E+01 
    1.2103044939529960E+01 
    9.2098176360151900E+00 
    8.3149789139537464E+00 
    1.0356800423776368E+01 
    9.6535544943017140E+00 
    6.6451051750016097E+00 
    1.4218996021898750E+01 
    1.3552479578844807E+01 
    1.3215696088250365E+01 
    1.0301259926233866E+01 
    8.4615315099411621E+00 
    9.4835334430032514E+00 
    1.3944404993200246E+01 
    8.6718428584674125E+00 
    9.6494306312476468E+00 
    8.8151201064767388E+00 
    1.1170326794904069E+01 
    1.6278235648493293E+01 
    1.3207496447802358E+01 
    8.4368738120565467E+00 
    1.3679026085163200E+01 
    1.3584105622526179E+01 
    1.3659942209125839E+01 
    1.4614901834534857E+01 
    1.5132257603862683E+01 
    1.3824186560547487E+01 
    9.7729009582297284E+00 
    1.0489527089626096E+01 
    1.3661005218039222E+01 
    1.4036661456287671E+01 
    6.9168443913171940E+00 
    1.3234068874226773E+01 
    1.3907804589075223E+01 
    6.7536228532130211E+00 
    1.4535766488134081E+01 
    1.4518295771533863E+01 
    1.2968395676292561E+01 
    1.0102588897455433E+01 
    2.6127876411081932E+00 
    1.4191828098969761E+01 
    9.9567820716599407E+00 
    1.4314447241286683E+01 
    9.1527808646172915E+00 
    1.4038417732703222E+01 
    9.3894657642489221E-01 
    1.2573843188818218E+01 
    9.2702962595784193E+00 
    8.4244264674875993E+00 
    8.2248918164469664E+00 
    9.6053661077396324E+00 
    1.0713088991056887E+01 
    1.0014286067541414E+01 
    6.9030956412465523E+00 
    1.4028984224939302E+01 
    1.3508154984855665E+01 
    1.1370953658426817E+01 
    1.0010251382509262E+01 
    1.5118619286200803E+00 
    7.6328304801076801E+00 
    5.4171513917502399E+00 
    1.4208635221698426E+01 
    1.0800603256273501E+01 
    1.3561550931373858E+01 
    1.3573294210664672E+01 
    8.7505060818258418E+00 
    1.1325310079802868E+01 
    1.3210867505825004E+01 
    1.4505063614799072E+01 
    6.4276356771766610E+00 
    1.1946501805136840E+01 
    1.0053843470017295E+01 
    5.7649711254082225E+00 
    8.7349683563585572E+00 
    1.1905801468337126E+01 
    1.3535423511723300E+01 
    9.6610955958812088E+00 
    1.3640082781927726E+01 
    1.3417994487308695E+01 
    1.3368692163990238E+01 
    9.4897434231984228E+00 
    8.3613845665178417E+00 
    1.3223571376577329E+01 
    8.4787199514080651E+00 
    9.7507676137636690E+00 
    8.3273211535132052E+00 
    9.5914252161255895E+00 
    1.3583272269019959E+01 
    6.0337822225294691E+00 
    8.6575454541647012E+00 
    1.4128690207945910E+01 
    9.5026850635712616E+00 
    1.0704281410605358E+01 
    6.1918726523962002E+00 
    8.5299733255824588E+00 
    1.3397760183478519E+01 
    1.3692807362432086E+01 
    5.0703610954540457E+00 
    9.5077934853174142E+00 
    8.3702359695793778E+00 
    1.4908884034908418E+01 
    1.4392108353686345E+01 
    1.5157555816625244E+01 
    9.5286628274070271E+00 
    1.3555460284504198E+01 
    1.3169686527847031E+01 
    9.4017598074833941E+00 
    1.3215860849276071E+01 
    1.0012099331819874E+01 
    5.8251694835394039E+00 
    9.7774755360213277E+00 
    1.4115935809870187E+01 
    1.3212801611925494E+01 
    6.5414347215744284E+00 
    1.3240669734543493E+01 
    1.0728502184898820E+01 
    9.7176301472234385E+00 
    9.2836980003674618E+00 
    1.3086919856897277E+01 
    1.0203924688203584E+01 
    1.3228412502829086E+01 
    9.4295216776570960E+00 
    5.9904462200719104E+00 
    9.8221204282542907E+00 
    8.2319298395774201E+00 
    1.2108980430656391E+01 
    1.4305762776456737E+01 
    1.3222066618543669E+01 
    1.4186071344713231E+01 
    9.4505522561282813E+00 
    6.3868314032605502E+00 
    6.4724657203542080E+00 
    9.8911374847124129E+00 
    9.7269481637444404E+00 
    1.4510182151470796E+00 
    1.2750542376440148E+01 
    1.4650455003782847E+01 
    9.1628821366061661E+00 
    6.0645046101500970E+00 
    1.1123484524713845E+01 
    1.3239266930266517E+01 
    7.0942118099295914E+00 
    4.8681984218684438E+00 
    9.7027056841894392E+00 
    1.3318677584553299E+01 
    1.3940077846295591E+01 
    1.3837441032378932E+01 
    1.3694467903660467E+01 
    6.9511714765704875E+00 
    9.7098685771761328E+00 
    1.2791568238669571E+01 
    7.5879552100028969E+00 
    1.3529207862757278E+01 
    1.1565203761962412E+01 
    6.5616450128795236E+00 
    1.3342256263482618E+01 
    1.4215369498920113E+01 
    1.3373957780218062E+01 
    6.8496388531409949E+00 
    9.7774828278040378E+00 
    7.4802150243135808E+00 
    9.2180023969513485E+00 
    1.3231215812335000E+01 
    1.3220108420093606E+01 
    6.8873163437219871E+00 
    1.4073831507190299E+01 
    1.0309867186959661E+01 
    1.3253013711214864E+01 
    1.4053963415432200E+01 
    1.3240579073250171E+01 
    1.2333619246807906E+01 
    1.4959662015330569E+01 
    9.1286385493814173E+00 
    1.4156804862866863E+01 
    1.3279631301966592E+01 
    1.4226228162555413E+01 
    1.4066665547433782E+01 
    9.2167325641857900E+00 
    9.5962373605597460E+00 
    9.1538343099457418E+00 
    1.1864351654859608E+01 
    3.9922523290312837E+00 
    9.8311027718288013E+00 
    1.5080502356734526E+01 
    1.0010487761753918E+01 
    1.0190870365500398E+01 
    1.4200114737727958E+01 
    1.4425715293256447E+01 
    9.0795674430254447E+00 
    1.3244749720262277E+01 
    1.3216854136038920E+01 
    1.0178951743059562E+01 
    1.4022900546808547E+01 
    6.8944215082392679E+00 
    4.4310357173178563E+00 
    1.0449115858444644E+01 
    1.0025093307697485E+01 
    1.3221829709768398E+01 
    6.4723798762377820E+00 
    1.3755743535233568E+01 
    4.5288352128783984E+00 
    9.9586327781734880E+00 
    9.2655131670546851E+00 
    9.7537572378940549E+00 
    1.6327299024242414E+01 
    3.8806801200387868E+00 
    9.7520145514118575E+00 
    1.1608071972961522E+01 
    9.3551922896699029E+00 
    7.5572209180808105E+00 
    1.3861902083898897E+01 
    1.5910888915129151E+01 
    1.4009786416377787E+01 
    9.6965907072092090E+00 
    5.7366999015891933E+00 
    1.5764290774010835E+01 
    1.3500888860498430E+01 
    7.1879207354798131E+00 
    9.3421757199088908E+00 
    1.4598392056290997E+01 
    3.2925521588640065E+00 
    1.0072922485168723E+01 
    1.3992224159372713E+01 
    9.7671122415746598E+00 
    8.4880492423360536E+00 
    9.7900468288390350E+00 
    1.3013227806469112E+01 
    9.7478133572864181E+00 
    5.1309932513368510E+00 
    9.2674228436005202E-01 
    7.2381953579145302E+00 
    1.4805953976673626E+01 
    9.1519384938412252E+00 
    1.0979509274630871E+01 
    1.0497841511459800E+01 
    1.2178428174472186E+01 
    9.7807645068257347E+00 
    1.3414765564263112E+01 
    1.6341029333184661E+01 
    1.1562114930731489E+01 
    1.4130120840700719E+01 
    5.4284975243348110E-01 
    1.3221932939618254E+01 
    5.6225152518219543E+00 
    1.5242198960366348E+01 
    9.7650385995774158E+00 
    8.6238804661834045E+00 
    7.6174075270439783E+00 
    5.3457849509751467E+00 
    1.0917165706317707E+01 
    7.6690175133818208E+00 
    1.2008596068692620E+01 
    2.2071858839164551E+00 
    1.0761850344741298E+01 
    1.3157623863483083E+01 
    5.8762409483240052E+00 
    1.3699182808671598E+01 
    1.5063524398008107E+01 
    1.3534096598837325E+01 
    9.6401309167779416E+00 
    9.7485740370655467E+00 
    9.7580614553917471E+00 
    5.8078739957650480E+00 
    8.9108163768566317E+00 
    8.7735927880528344E+00 
    9.7476146520686076E+00 
    9.0949511453190102E+00 
    6.9387749016871181E-01 
    6.4044348239113047E+00 
    9.4533811390522651E+00 
    9.7243427547501256E+00 
    1.2336233722277644E+01 
    2.1563675355440353E+00 
    1.0140275626442159E+01 
    1.0029385111239291E+01 
    3.7297826564568086E+00 
    1.3403460870371175E+01 
    8.4952877907192992E+00 
    9.8864061262831413E+00 
    1.3502816719273484E+01 
    5.3964115104382051E+00 
    1.3523190909362004E+01 
    8.5924009314392169E+00 
    9.8149604530077261E-01 
    9.2083955070241519E+00 
    1.4085228919644397E+01 
    1.3222209602386194E+01 
    1.3241110425526802E+01 
    1.0087585709133814E+01 
    9.9634274391074058E+00 
    8.4753280515928822E+00 
    6.9261350696321236E+00 
    1.3616879220260278E+01 
    9.3407124148936447E+00 
    6.7030230040335370E+00 
    1.3236014019778878E+01 
    1.3907916275471452E+01 
    9.9123393971945060E+00 
    9.5501875766215267E+00 
    1.6225744325572155E+01 
    1.0179792776844934E+01 
    1.3622788887903674E+01 
    8.0888135497304283E+00 
    1.6368995095372565E+01 
    6.4340157995702123E+00 
    8.8481650596100501E+00 
    7.1870851542441070E+00 
    1.0400769521458317E+01 
    8.2601017682117046E+00 
    1.6353007338120459E+01 
    1.0225748095242079E+01 
    1.2948209676342012E+01 
    6.6141615709688626E+00 
    9.7770240794928558E+00 
    1.3466695555343618E+01 
    8.2772148142620221E+00 
    7.2006707491010884E+00 
    1.0796901157770121E+01 
    1.3679213745307361E+01 
    7.0959665817598347E+00 
    9.2836132066894841E+00 
    9.5799111432422777E+00 
    1.3198735722757140E+01 
    9.3808973005580061E+00 
    1.3657336808521480E+01 
    1.4254081070972694E+01 
    8.4996420506684132E+00 
    8.3460554393717814E+00 
    7.7042329102179030E+00 
    1.3338206624177760E+01 
    1.0046292105568025E+01 
    1.5946643660083700E+01 
    1.2520420047840560E+01 
    1.3429876729606459E+01 
    1.5643126300921812E+01 
    1.5066120491420596E+01 
    9.8257280235003908E+00 
    9.7334816472317627E+00 
    1.2995411050624151E+01 
    1.3257803585762726E+01 
    1.3789397256282351E+01 
    1.3523130579497325E+01 
    1.6245194594868654E+01 
    1.0179347326091181E+01 
    8.5910645890763515E+00 
    1.0186709795678199E+01 
    1.4170591145548292E+01 
    9.9306719381938109E+00 
    5.7797556783578097E+00 
    9.6252403233842738E+00 
    1.4572245573215540E+01 
    1.0063878886429235E+01 
    8.5952577009291424E+00 
    9.5198656611933252E+00 
    1.4674660553959846E+01 
    1.3275998479166418E+01 
    8.2095207876710887E+00 
    1.4806918133839780E+01 
    9.8571476664745319E+00 
    1.3758866133114838E+01 
    1.4688222849520377E+01 
    1.0340248236354302E+01 
    5.4036166704931832E+00 
    1.0767876048659966E+01 
    5.5817028329748561E+00 
    9.9816448290544049E+00 
    9.7686332229550494E+00 
    1.1328579870581061E+01 
    5.8830234985944712E+00 
    1.2018738877418876E+01 
    9.7895848392929601E+00 
    1.3512152893493425E+01 
    1.0327373578249121E+01 
    8.0330569249384478E+00 
    9.3952107685357067E+00 
    1.0235755376931284E+01 
    1.0279250639034229E+01 
    1.4310178681398718E+01 
    8.2419125467434817E+00 
    8.1086393515181268E+00 
    6.1663867470266709E+00 
    1.3807609012752446E+01 
    9.4362674152814598E+00 
    1.3083824958785220E+01 
    9.7387339961440169E+00 
    6.7058001065548956E+00 
    1.3309382117458730E+01 
    9.7135446601078073E+00 
    7.2704221683986061E+00 
    7.6718370899971768E+00 
    7.9239044242686374E+00 
    1.3545523456451690E+01 
    9.7494842713240999E+00 
    1.4140865128912457E+01 
    9.6712392555578770E+00 
    9.6080114419043117E+00 
    9.2076910078036498E+00 
    1.3388447678688930E+01 
    9.5238414524601431E+00 
    7.9616769988068317E+00 
    1.5053035840522103E+01 
    1.3467575766448546E+01 
    6.7360340611416634E+00 
    2.7282175679382306E+00 
    9.7393718701205341E+00 
    9.1281657457132948E+00 
    8.3429638647001134E+00 
    9.0281534893147768E+00 
    1.3414973412300723E+01 
    9.4695676231675030E+00 
    8.6399210378155527E+00 
    1.3279002240727459E+01 
    6.6784852619622272E+00 
    1.2958245016997326E+01 
    8.8137894528249578E+00 
    7.9219977759358180E+00 
    8.4144026737242203E+00 
    1.3840024518475293E+01 
    9.7568145422208552E+00 
    9.7649105838243102E+00 
    5.9640680826374091E+00 
    6.4114386290268639E+00 
    1.2350922421243578E+01 
    9.7747963373100681E+00 
    9.7774111868703013E+00 
    1.4791170404207719E+01 
    8.1057717413909582E+00 
    9.7874461807487805E+00 
    6.9101143965940999E+00 
    7.1337079760453461E+00 
    1.3387203947615825E+01 
    9.4118032195622199E+00 
    7.0211996362462710E+00 
    1.0311693135877100E+01 
    9.6567656359713929E+00 
    1.3388256171127354E+01 
    1.4880479866118938E+01 
    1.0453850131431401E+00 
    9.7439653540143656E+00 
    1.0023185542382485E+01 
    1.3446222703229514E+01 
    9.2739358016575704E+00 
    9.7305624617311821E+00 
    1.4370370970497913E+01 
    8.4431600711719135E+00 
    7.0795119272909437E+00 
    1.1777456767662398E+01 
    1.3235357864803674E+01 
    1.4226280634606059E+01 
    1.4477868061987614E+01 
    9.5967255540483425E+00 
    9.7362605201534560E+00 
    1.0982851483379481E+01 
    6.4070134898706455E+00 
    1.3356171918712658E+01 
    7.5913281592241102E+00 
    6.6675643158769322E+00 
    1.2237305047978499E+01 
    1.1518335806933196E+01 
    6.5393260880887549E+00 
    1.3270256561804537E+01 
    1.4212028521605482E+01 
    1.0194459449417860E+01 
    1.4977732200736199E+01 
    1.3301738528423318E+01 
    9.3439250416395492E+00 
    1.3957857833842642E+01 
    7.1332389359002946E+00 
    1.3252533931232422E+01 
    9.7430915641430751E+00 
    9.7056849940373162E+00 
    1.4954164661602045E+01 
    9.4696168558870166E+00 
    1.1967377939740855E+01 
    8.3967189281912944E+00 
    1.4324644571076389E+01 
    1.3163753602813818E+01 
    8.7340967051247702E+00 
    1.3212470187084927E+01 
    8.8078313407822346E+00 
    9.7402842299490668E+00 
    1.4172858279994356E+01 
    1.3524959694034495E+01 
    1.4215281180805359E+01 
    1.3450279691960525E+01 
    8.9206191095413256E+00 
    9.1242908545589341E+00 
    1.4221553605184678E+01 
    9.2371846050755693E+00 
    1.3096940792248738E+01 
    9.4584781189938258E+00 
    4.0305847788119857E+00 
    6.7340840546706024E+00 
    6.2441274756845422E+00 
    1.4176031166364766E+01 
    1.4886008585860361E+01 
    1.3229866955547950E+01 
    1.1260879898197327E+01 
    1.3509422098137362E+01 
    1.3276094218975741E+01 
    1.3837382505748637E+01 
    5.7700317476909042E+00 
    3.7520605658595110E+00 
    1.1060405904606526E+01 
    9.4217552314847826E+00 
    1.3416639485092103E+01 
    1.3414344115737942E+01 
    1.0045022805945798E+01 
    1.3449721868315388E+01 
    9.7309913635967824E+00 
    9.6383014396152547E+00 
    5.2180283087230714E+00 
    3.7361473810016457E+00 
    1.4670293452746996E+01 
    7.5808198603021140E+00 
    8.6718094851419849E+00 
    9.9381712529487949E+00 
    1.6226752468203468E+01 
    1.0032309288944239E+01 
    1.0020896120835873E+01 
    4.2333654751283190E+00 
    1.0033794651026879E+01 
    1.0047492686366809E+01 
    1.3733117728586635E+01 
    8.4211702057855238E+00 
    9.3180562185926643E+00 
    1.4832925983150398E+01 
    9.7517477571751510E+00 
    1.3245242096523446E+01 
    1.3497010428363890E+01 
    1.1998358314818466E+01 
    8.2505645596875343E+00 
    1.3450995142665535E+01 
    9.5552533773099437E+00 
    1.3419598464759968E+01 
    1.3185706217861146E+01 
    1.4194734933287426E+01 
    1.3445252056432468E+01 
    1.2613291686918490E+01 
    9.7413375920298844E+00 
    6.4886227305622208E+00 
    1.6104070152275135E+01 
    7.7395848420059652E+00 
    1.4120027285757489E+01 
    9.7388778369374371E+00 
    8.1548319552090742E+00 
    4.8996498580917347E+00 
    1.0083016849200803E+01 
    1.3436708376748667E+01 
    1.3435964660177500E+01 
    9.7209777034538991E+00 
    9.7333380145865895E+00 
    1.5033603394753793E+01 
    1.4423215913148661E+01 
    1.0050089128093976E+01 
    3.4903927286589163E+00 
    1.2579482330674310E+01 
    1.6351193545192082E+01 
    9.7444905491085887E+00 
    1.1617740927748654E+01 
    9.2713156123975331E+00 
    1.5966939461893427E+01 
    1.4501109595802539E+01 
    1.4268811320551988E+01 
    1.0070896090753751E+01 
    4.5719687507759810E+00 
    9.2329887659963834E+00 
    9.2944868558197911E+00 
    9.3369755170941140E+00 
    3.7955485469308763E+00 