# vtk DataFile Version 2.0
Pressure Field Data 
ASCII 
DATASET UNSTRUCTURED_GRID 

POINTS 2860 double 

    0.0000000000000000E+00     0.0000000000000000E+00     0.0000000000000000E+00 
    1.0000000000000000E+00     0.0000000000000000E+00     0.0000000000000000E+00 
    1.0000000000000000E+00     1.0000000000000000E+00     0.0000000000000000E+00 
    0.0000000000000000E+00     1.0000000000000000E+00     0.0000000000000000E+00 
    2.5000000000000000E-01     2.5000000000000000E-01     0.0000000000000000E+00 
    7.5000000000000000E-01     2.5000000000000000E-01     0.0000000000000000E+00 
    7.5000000000000000E-01     7.5000000000000000E-01     0.0000000000000000E+00 
    2.5000000000000000E-01     7.5000000000000000E-01     0.0000000000000000E+00 
    3.1249999999942091E-02     0.0000000000000000E+00     0.0000000000000000E+00 
    6.2499999999873469E-02     0.0000000000000000E+00     0.0000000000000000E+00 
    9.3749999999826514E-02     0.0000000000000000E+00     0.0000000000000000E+00 
    1.2499999999977961E-01     0.0000000000000000E+00     0.0000000000000000E+00 
    1.5624999999968961E-01     0.0000000000000000E+00     0.0000000000000000E+00 
    1.8749999999959971E-01     0.0000000000000000E+00     0.0000000000000000E+00 
    2.1874999999950970E-01     0.0000000000000000E+00     0.0000000000000000E+00 
    2.4999999999941969E-01     0.0000000000000000E+00     0.0000000000000000E+00 
    2.8124999999932920E-01     0.0000000000000000E+00     0.0000000000000000E+00 
    3.1249999999923850E-01     0.0000000000000000E+00     0.0000000000000000E+00 
    3.4374999999914790E-01     0.0000000000000000E+00     0.0000000000000000E+00 
    3.7499999999905720E-01     0.0000000000000000E+00     0.0000000000000000E+00 
    4.0624999999896660E-01     0.0000000000000000E+00     0.0000000000000000E+00 
    4.3749999999887590E-01     0.0000000000000000E+00     0.0000000000000000E+00 
    4.6874999999878530E-01     0.0000000000000000E+00     0.0000000000000000E+00 
    4.9999999999869471E-01     0.0000000000000000E+00     0.0000000000000000E+00 
    5.3124999999877620E-01     0.0000000000000000E+00     0.0000000000000000E+00 
    5.6249999999885780E-01     0.0000000000000000E+00     0.0000000000000000E+00 
    5.9374999999893940E-01     0.0000000000000000E+00     0.0000000000000000E+00 
    6.2499999999902101E-01     0.0000000000000000E+00     0.0000000000000000E+00 
    6.5624999999910261E-01     0.0000000000000000E+00     0.0000000000000000E+00 
    6.8749999999918421E-01     0.0000000000000000E+00     0.0000000000000000E+00 
    7.1874999999926570E-01     0.0000000000000000E+00     0.0000000000000000E+00 
    7.4999999999934730E-01     0.0000000000000000E+00     0.0000000000000000E+00 
    7.8124999999942890E-01     0.0000000000000000E+00     0.0000000000000000E+00 
    8.1249999999951039E-01     0.0000000000000000E+00     0.0000000000000000E+00 
    8.4374999999959199E-01     0.0000000000000000E+00     0.0000000000000000E+00 
    8.7499999999967359E-01     0.0000000000000000E+00     0.0000000000000000E+00 
    9.0624999999975520E-01     0.0000000000000000E+00     0.0000000000000000E+00 
    9.3749999999983680E-01     0.0000000000000000E+00     0.0000000000000000E+00 
    9.6874999999991840E-01     0.0000000000000000E+00     0.0000000000000000E+00 
    1.0000000000000000E+00     3.1249999999942091E-02     0.0000000000000000E+00 
    1.0000000000000000E+00     6.2499999999873469E-02     0.0000000000000000E+00 
    1.0000000000000000E+00     9.3749999999826514E-02     0.0000000000000000E+00 
    1.0000000000000000E+00     1.2499999999977961E-01     0.0000000000000000E+00 
    1.0000000000000000E+00     1.5624999999968961E-01     0.0000000000000000E+00 
    1.0000000000000000E+00     1.8749999999959971E-01     0.0000000000000000E+00 
    1.0000000000000000E+00     2.1874999999950970E-01     0.0000000000000000E+00 
    1.0000000000000000E+00     2.4999999999941969E-01     0.0000000000000000E+00 
    1.0000000000000000E+00     2.8124999999932920E-01     0.0000000000000000E+00 
    1.0000000000000000E+00     3.1249999999923850E-01     0.0000000000000000E+00 
    1.0000000000000000E+00     3.4374999999914790E-01     0.0000000000000000E+00 
    1.0000000000000000E+00     3.7499999999905720E-01     0.0000000000000000E+00 
    1.0000000000000000E+00     4.0624999999896660E-01     0.0000000000000000E+00 
    1.0000000000000000E+00     4.3749999999887590E-01     0.0000000000000000E+00 
    1.0000000000000000E+00     4.6874999999878530E-01     0.0000000000000000E+00 
    1.0000000000000000E+00     4.9999999999869471E-01     0.0000000000000000E+00 
    1.0000000000000000E+00     5.3124999999877620E-01     0.0000000000000000E+00 
    1.0000000000000000E+00     5.6249999999885780E-01     0.0000000000000000E+00 
    1.0000000000000000E+00     5.9374999999893940E-01     0.0000000000000000E+00 
    1.0000000000000000E+00     6.2499999999902101E-01     0.0000000000000000E+00 
    1.0000000000000000E+00     6.5624999999910261E-01     0.0000000000000000E+00 
    1.0000000000000000E+00     6.8749999999918421E-01     0.0000000000000000E+00 
    1.0000000000000000E+00     7.1874999999926570E-01     0.0000000000000000E+00 
    1.0000000000000000E+00     7.4999999999934730E-01     0.0000000000000000E+00 
    1.0000000000000000E+00     7.8124999999942890E-01     0.0000000000000000E+00 
    1.0000000000000000E+00     8.1249999999951039E-01     0.0000000000000000E+00 
    1.0000000000000000E+00     8.4374999999959199E-01     0.0000000000000000E+00 
    1.0000000000000000E+00     8.7499999999967359E-01     0.0000000000000000E+00 
    1.0000000000000000E+00     9.0624999999975520E-01     0.0000000000000000E+00 
    1.0000000000000000E+00     9.3749999999983680E-01     0.0000000000000000E+00 
    1.0000000000000000E+00     9.6874999999991840E-01     0.0000000000000000E+00 
    9.6875000000003686E-01     1.0000000000000000E+00     0.0000000000000000E+00 
    9.3750000000011691E-01     1.0000000000000000E+00     0.0000000000000000E+00 
    9.0625000000015765E-01     1.0000000000000000E+00     0.0000000000000000E+00 
    8.7500000000017863E-01     1.0000000000000000E+00     0.0000000000000000E+00 
    8.4375000000028044E-01     1.0000000000000000E+00     0.0000000000000000E+00 
    8.1250000000040856E-01     1.0000000000000000E+00     0.0000000000000000E+00 
    7.8125000000054956E-01     1.0000000000000000E+00     0.0000000000000000E+00 
    7.5000000000066480E-01     1.0000000000000000E+00     0.0000000000000000E+00 
    7.1875000000086831E-01     1.0000000000000000E+00     0.0000000000000000E+00 
    6.8750000000102829E-01     1.0000000000000000E+00     0.0000000000000000E+00 
    6.5625000000114431E-01     1.0000000000000000E+00     0.0000000000000000E+00 
    6.2500000000129829E-01     1.0000000000000000E+00     0.0000000000000000E+00 
    5.9375000000147926E-01     1.0000000000000000E+00     0.0000000000000000E+00 
    5.6250000000168354E-01     1.0000000000000000E+00     0.0000000000000000E+00 
    5.3125000000188671E-01     1.0000000000000000E+00     0.0000000000000000E+00 
    5.0000000000205835E-01     1.0000000000000000E+00     0.0000000000000000E+00 
    4.6875000000192979E-01     1.0000000000000000E+00     0.0000000000000000E+00 
    4.3750000000180111E-01     1.0000000000000000E+00     0.0000000000000000E+00 
    4.0625000000167238E-01     1.0000000000000000E+00     0.0000000000000000E+00 
    3.7500000000154382E-01     1.0000000000000000E+00     0.0000000000000000E+00 
    3.4375000000141509E-01     1.0000000000000000E+00     0.0000000000000000E+00 
    3.1250000000128642E-01     1.0000000000000000E+00     0.0000000000000000E+00 
    2.8125000000115769E-01     1.0000000000000000E+00     0.0000000000000000E+00 
    2.5000000000102918E-01     1.0000000000000000E+00     0.0000000000000000E+00 
    2.1875000000090050E-01     1.0000000000000000E+00     0.0000000000000000E+00 
    1.8750000000077180E-01     1.0000000000000000E+00     0.0000000000000000E+00 
    1.5625000000064329E-01     1.0000000000000000E+00     0.0000000000000000E+00 
    1.2500000000051459E-01     1.0000000000000000E+00     0.0000000000000000E+00 
    9.3750000000385914E-02     1.0000000000000000E+00     0.0000000000000000E+00 
    6.2500000000257239E-02     1.0000000000000000E+00     0.0000000000000000E+00 
    3.1250000000128557E-02     1.0000000000000000E+00     0.0000000000000000E+00 
    0.0000000000000000E+00     9.6875000000003686E-01     0.0000000000000000E+00 
    0.0000000000000000E+00     9.3750000000011691E-01     0.0000000000000000E+00 
    0.0000000000000000E+00     9.0625000000015765E-01     0.0000000000000000E+00 
    0.0000000000000000E+00     8.7500000000017863E-01     0.0000000000000000E+00 
    0.0000000000000000E+00     8.4375000000028044E-01     0.0000000000000000E+00 
    0.0000000000000000E+00     8.1250000000040856E-01     0.0000000000000000E+00 
    0.0000000000000000E+00     7.8125000000054956E-01     0.0000000000000000E+00 
    0.0000000000000000E+00     7.5000000000066480E-01     0.0000000000000000E+00 
    0.0000000000000000E+00     7.1875000000086831E-01     0.0000000000000000E+00 
    0.0000000000000000E+00     6.8750000000102829E-01     0.0000000000000000E+00 
    0.0000000000000000E+00     6.5625000000114431E-01     0.0000000000000000E+00 
    0.0000000000000000E+00     6.2500000000129829E-01     0.0000000000000000E+00 
    0.0000000000000000E+00     5.9375000000147926E-01     0.0000000000000000E+00 
    0.0000000000000000E+00     5.6250000000168354E-01     0.0000000000000000E+00 
    0.0000000000000000E+00     5.3125000000188671E-01     0.0000000000000000E+00 
    0.0000000000000000E+00     5.0000000000205835E-01     0.0000000000000000E+00 
    0.0000000000000000E+00     4.6875000000192979E-01     0.0000000000000000E+00 
    0.0000000000000000E+00     4.3750000000180111E-01     0.0000000000000000E+00 
    0.0000000000000000E+00     4.0625000000167238E-01     0.0000000000000000E+00 
[...]
CELL_DATA 2795 
SCALARS Pressure double 1 
LOOKUP_TABLE default 

    7.7373476972259274E+00 
    1.6834123755764114E+01 
    1.1882114372810557E+01 
    1.1602774956489444E+01 
    9.4188767174202663E+00 
    1.6698715149251139E+01 
    1.7518449902665346E+01 
    6.9414874307123862E+00 
    1.2428056625938909E+01 
    9.6296054219904317E+00 
    8.2713160768289047E+00 
    1.6404499127553361E+01 
    1.6733967021288155E+01 
    1.6664837288130649E+01 
    1.0979045528822294E+01 
    6.8229301627353154E+00 
    1.0783488632528508E+01 
    8.7798171046879574E+00 
    1.5994823179310643E+01 
    1.1864424587220814E+01 
    1.1764299596264582E+01 
    1.6586613192714189E+01 
    1.1319625287384468E+01 
    4.5585218415132706E-01 
    1.6295887650100024E+01 
    1.6691668778507914E+01 
    1.7553609759275925E+01 
    8.0361372165192186E+00 
    1.6315607952761209E+01 
    1.7531133805726462E+01 
    1.2057133030354130E+01 
    1.2064542309066905E+01 
    8.7575044501131565E+00 
    1.1846122897858757E+01 
    3.9941536121207601E+00 
    1.0783106837696648E+01 
    1.1832402616898946E+01 
    1.7574108162858678E+01 
    1.7493197501533253E+01 
    1.6419001961422161E+01 
    9.4033821929115149E+00 
    1.6346572503941861E+01 
    9.5311010547779673E-01 
    1.1846749000262800E+01 
    1.7303657779647928E+01 
    1.7034621032909964E+01 
    1.6392417826663976E+01 
    1.2804475374935562E+01 
    1.6445954271627148E+01 
    1.1016177136038333E+01 
    1.0535556025699671E+01 
    1.2029129755833265E+01 
    1.1748482005277230E+01 
    1.0851532638635774E+01 
    1.2129553001641366E+01 
    1.5757825472781439E+01 
    1.3872739177942098E+01 
    9.4667122970835251E+00 
    1.6594703087784250E+01 
    1.6503272574173540E+01 
    1.1580936140354082E+01 
    1.1450901162607712E+01 
    1.1501878713456234E+01 
    1.7422970085297710E+01 
    1.7748523025558566E+01 
    1.0802686502507234E+01 
    1.2027618299451396E+01 
    1.6151074090164190E+01 
    1.3773425045789629E+01 
    1.1502501558149417E+01 
    1.7726359003040475E+01 
    1.6492668706156465E+01 
    1.0657878729321604E+01 
    1.7152960960127928E+01 
    1.2373140018444584E+01 
    1.6130434218914989E+01 
    1.7599489515889374E+01 
    1.2405928024822547E+01 
    7.8454790211501058E+00 
    1.2045519450905871E+01 
    1.7502777848890887E+01 
    1.7745984614133921E+01 
    1.0800991099610870E+01 
    1.1972978162156897E+01 
    1.7802970153841279E+01 
    1.1831381711547618E+01 
    1.1412012361005770E+01 
    1.4305122577070577E+01 
    7.5289770965526577E+00 
    1.0566795594138558E+01 
    1.1970267687019335E+01 
    1.2583239952677710E+01 
    1.9344336893938443E+01 
    9.1643924072247689E+00 
    1.2035353633794884E+01 
    1.6367506362233112E+01 
    1.6669723055882777E+01 
    8.1164242161524474E+00 
    1.1697576591371222E+01 
    1.2003441489784116E+01 
    1.6697907685947310E+01 
    1.1994378223303684E+01 
    1.6603973262088221E+01 
    4.9690393194226230E+00 
    8.0400095091198818E+00 
    1.2249807194274769E+01 
    1.6844587043352949E+01 
    1.0747095913754777E+01 
    1.1342623564447054E+01 
    1.1973186139591862E+01 
    1.1379565241288933E+01 
    1.3478831509411146E+01 
    1.1064774306756249E+01 
    1.0666087334614369E+01 
    8.5190110990105588E+00 
    1.4125006915585123E+01 
    1.2069883422712365E+01 
    1.7327791588963901E+01 
    1.0421665824663197E+01 
    1.1583029633464806E+01 
    1.6491530209162793E+01 
    9.8612828085788209E+00 
    1.7019880062214053E+01 
    1.1902665977263204E+01 
    1.1511567025637689E+01 
    1.6673997524938638E+01 
    1.2057682243052833E+01 
    1.7608937127063211E+01 
    1.4370687856303960E+01 
    1.5569451246152182E+01 
    1.7572159562459042E+01 
    9.1808888447172379E+00 
    1.2271630682194969E+01 
    1.6670858896154240E+01 
    3.7061603612150469E+00 
    1.2107143617393506E+01 
    1.7534981036631756E+01 
    1.1540134075432611E+01 
    1.3140648028986099E+01 
    8.0421915703741575E+00 
    1.6361490726574392E+01 
    1.9839163999598302E+01 
    1.4925749698279560E+01 
    1.1540677958876866E+01 
    1.0449450912822320E+01 
    1.2795480412830830E+01 
    1.1919246640226216E+01 
    8.3852591010840545E+00 
    1.7564729108152356E+01 
    1.6723496489892977E+01 
    1.6369154214074971E+01 
    1.2576013526098192E+01 
    1.0635769463161250E+01 
    1.1759989320395091E+01 
    1.7192694232283039E+01 
    1.0891567949277537E+01 
    1.2012396742563478E+01 
    1.1066269275658103E+01 
    1.3896372673258183E+01 
    1.9827127972348464E+01 
    1.6360477394138368E+01 
    1.0633603546798764E+01 
    1.6913390928926553E+01 
    1.6796504999315403E+01 
    1.6889952302417210E+01 
    1.8017773580559776E+01 
    1.8596393826925464E+01 
    1.7023873484466915E+01 
    1.2019468564593639E+01 
    1.2938790501722519E+01 
    1.6840060518799437E+01 
    1.7345371355781928E+01 
    8.7550371353575827E+00 
    1.6392098534293002E+01 
    1.7154083277389514E+01 
    8.5132986400292019E+00 
    1.7943601417604022E+01 
    1.7905157388926160E+01 
    1.6068799989778082E+01 
    1.2344653461915813E+01 
    3.3092661279218736E+00 
    1.7533392322448872E+01 
    1.2190289361276575E+01 
    1.7675218182435199E+01 
    1.1467715574136269E+01 
    1.7326133125712765E+01 
    1.1898667968772274E+00 
    1.5540997559769391E+01 
    1.1496625319754285E+01 
    1.0585658454804509E+01 
    1.0339977501679911E+01 
    1.1871558651588165E+01 
    1.3066543181273889E+01 
    1.2472978780092919E+01 
    8.6106949154044603E+00 
    1.7335073260884219E+01 
    1.6700136233008937E+01 
    1.3885432275673246E+01 
    1.2241842026023274E+01 
    1.8776778172796451E+00 
    9.5862439098165844E+00 
    6.7419492711295064E+00 
    1.7544436149652000E+01 
    1.3287278531405246E+01 
    1.6747849359465722E+01 
    1.6777746122880785E+01 
    1.0972941015740055E+01 
    1.3851175785112947E+01 
    1.6363755558587645E+01 
    1.7892714440936960E+01 
    8.0394554451072047E+00 
    1.4745320382579832E+01 
    1.2433224115968123E+01 
    7.1691359763521998E+00 
    1.0968160394439954E+01 
    1.4462093125071441E+01 
    1.6732884476694210E+01 
    1.1921889833600721E+01 
    1.6863320226935638E+01 
    1.6585342759446203E+01 
    1.6526041388134662E+01 
    1.1763812158088092E+01 
    1.0479684627371851E+01 
    1.6377490766328304E+01 
    1.0654061488011177E+01 
    1.2002396690621584E+01 
    1.0467710541719967E+01 
    1.1969717378886580E+01 
    1.6788065406918296E+01 
    7.5885389705703545E+00 
    1.0871882421533742E+01 
    1.7455687959492764E+01 
    1.1772252298821302E+01 
    1.3178037307935226E+01 
    7.7843199879391323E+00 
    1.0716122856648374E+01 
    1.6559297055454984E+01 
    1.6927955689968336E+01 
    6.3837174153735372E+00 
    1.1784196393031918E+01 
    1.0529477628403926E+01 
    1.8350570488732664E+01 
    1.7759785397198140E+01 
    1.8626539463949641E+01 
    1.1803857167553495E+01 
    1.6756809080499991E+01 
    1.6309438378110848E+01 
    1.1665903021062221E+01 
    1.6370043784447304E+01 
    1.2243045151724644E+01 
    7.2416088878073070E+00 
    1.2150516558634132E+01 
    1.7437284166095708E+01 
    1.6366617350293705E+01 
    8.2707399926384682E+00 
    1.6399984886176334E+01 
    1.3094306396852540E+01 
    1.2086301652143035E+01 
    1.1616362037820037E+01 
    1.6217154641268916E+01 
    1.2625724557109006E+01 
    1.6383848832316254E+01 
    1.1783034754951954E+01 
    7.4668048521903421E+00 
    1.2079805454891005E+01 
    1.0344743566100737E+01 
    1.5003917543818572E+01 
    1.7665138772207889E+01 
    1.6374335734042091E+01 
    1.7527490502252256E+01 
    1.1714861466617199E+01 
    8.0340029720273272E+00 
    8.1396502186371382E+00 
    1.2279912451464110E+01 
    1.1975101694878004E+01 
    1.8401591991274528E+00 
    1.5792243278876114E+01 
    1.8069655188309589E+01 
    1.1483581564955864E+01 
    7.5729637519661335E+00 
    1.3709606469673162E+01 
    1.6398037793543583E+01 
    8.8931079317846784E+00 
    6.0996703254693205E+00 
    1.1958958458675767E+01 
    1.6477004415770544E+01 
    1.7228666086621526E+01 
    1.7080748415359245E+01 
    1.6932997657527277E+01 
    8.7491800409880440E+00 
    1.2080296701202792E+01 
    1.5809042206989316E+01 
    9.4606878907187220E+00 
    1.6717317178886102E+01 
    1.4098288439633565E+01 
    8.2448379378289420E+00 
    1.6497499119174609E+01 
    1.7564440536178388E+01 
    1.6482915935505677E+01 
    8.5800932432131667E+00 
    1.2023773204567583E+01 
    9.3917898844965553E+00 
    1.1373323896732122E+01 
    1.6388650716806431E+01 
    1.6375288536933390E+01 
    8.6273612063945802E+00 
    1.7382570654366358E+01 
    1.2597548830292281E+01 
    1.6404652591856969E+01 
    1.7362966528947375E+01 
    1.6393836718964916E+01 
    1.5159441499866865E+01 
    1.8412478829817328E+01 
    1.1431247321504776E+01 
    1.7493122410108501E+01 
    1.6436531248423165E+01 
    1.7573998010910980E+01 
    1.7379599740967603E+01 
    1.1537214463350674E+01 
    1.1871610656472106E+01 
    1.1474248937547175E+01 
    1.4526468104406220E+01 
    4.9812541982834544E+00 
    1.2213304978221464E+01 
    1.8543581082809720E+01 
    1.2246385137745040E+01 
    1.2456740009827856E+01 
    1.7543790444351856E+01 
    1.7799226958683096E+01 
    1.1340956615942874E+01 
    1.6405009525236093E+01 
    1.6370167745232553E+01 
    1.2442575726271953E+01 
    1.7333321023862613E+01 
    8.6653170677245921E+00 
    5.5864643163908987E+00 
    1.2762016164631662E+01 
    1.2259803825032279E+01 
    1.6376148342392497E+01 
    8.0930495819143040E+00 
    1.6999957388501958E+01 
    5.6991141435279866E+00 
    1.2195380943369335E+01 
    1.1559512151867850E+01 
    1.2001059749530082E+01 
    1.9876772628637589E+01 
    4.8414363560272164E+00 
    1.2125618026405228E+01 
    1.4393093838123498E+01 
    1.1611067540772854E+01 
    9.5313555322494441E+00 
    1.7145752310910389E+01 
    1.9440607972461041E+01 
    1.7289150213217297E+01 
    1.2061859149863343E+01 
    7.1390386316625598E+00 
    1.9280508809981914E+01 
    1.6686596644982593E+01 
    9.0108103736958967E+00 
    1.1693797811949590E+01 
    1.7997614156495825E+01 
    4.1073346560801394E+00 
    1.2317932341261262E+01 
    1.7283037754326092E+01 
    1.2016000800884585E+01 
    1.0517412859078766E+01 
    1.2167825497650323E+01 
    1.5903580882094174E+01 
    1.1998465665896786E+01 
    6.3772801534352563E+00 
    1.1815624393207282E+00 
    9.0577190699718457E+00 
    1.8243417012877252E+01 
    1.1473163804234185E+01 
    1.3486140937676238E+01 
    1.2952265610372754E+01 
    1.4762689142865577E+01 
    1.2029397261026489E+01 
    1.6578205778310846E+01 
    1.9891020543440678E+01 
    1.4266384292141755E+01 
    1.7461891635358135E+01 
    6.8256322828765414E-01 
    1.6377614831837260E+01 
    7.0057405285985341E+00 
    1.8719138165252868E+01 
    1.2140079244739768E+01 
    1.0723024549407032E+01 
    9.5674453384977678E+00 
    6.6870949477912394E+00 
    1.3321843657973409E+01 
    9.5755380600530664E+00 
    1.4894569845296909E+01 
    2.8109130973544443E+00 
    1.3136164715096239E+01 
    1.6297818094530381E+01 
    7.3921484353014035E+00 
    1.6872076787298266E+01 
    1.8513214637178756E+01 
    1.6716075411629507E+01 
    1.1996372972030738E+01 
    1.1995131229462514E+01 
    1.2132357907311182E+01 
    7.2368089970518250E+00 
    1.1182022594596640E+01 
    1.1015075403249275E+01 
    1.2120705332317835E+01 
    1.1401682435426006E+01 
    8.7830933006238932E-01 
    7.9772918569408100E+00 
    1.1808678248244425E+01 
    1.2093984731722962E+01 
    1.5278602277938017E+01 
    2.6865440295905505E+00 
    1.2397056411189146E+01 
    1.2267344363232258E+01 
    4.6526512970758125E+00 
    1.6567241485014666E+01 
    1.0661875687665471E+01 
    1.2126787842300976E+01 
    1.6683784880510757E+01 
    6.7178081549739215E+00 
    1.6687674297223257E+01 
    1.0794333096474741E+01 
    1.2172199652241955E+00 
    1.1537854355870389E+01 
    1.7404903634752966E+01 
    1.6376870874242130E+01 
    1.6396603710690101E+01 
    1.2497513080109169E+01 
    1.2198341473316942E+01 
    1.0648980669155875E+01 
    8.6358950155728884E+00 
    1.6815923484974714E+01 
    1.1688193580868647E+01 
    8.4043638290400509E+00 
    1.6392314966148746E+01 
    1.7150323200973858E+01 
    1.2303954378286926E+01 
    1.1820021745113866E+01 
    1.9769032817899799E+01 
    1.2443653861516218E+01 
    1.6833777995691356E+01 
    1.0168956395471566E+01 
    1.9918936287524250E+01 
    8.0906756826944015E+00 
    1.1066102416890564E+01 
    9.0526201693571906E+00 
    1.2706075597927086E+01 
    1.0280931869383124E+01 
    1.9902498810520608E+01 
    1.2498122291797076E+01 
    1.5863806810259703E+01 
    8.3230709835843655E+00 
    1.2024045484400753E+01 
    1.6646164029329761E+01 
    1.0343200597386872E+01 
    9.0076628561884213E+00 
    1.3419036963355055E+01 
    1.6933474691577178E+01 
    8.8798505762216102E+00 
    1.1582413914728960E+01 
    1.1855745711834032E+01 
    1.6350161215497369E+01 
    1.1634246113908153E+01 
    1.6888226528580773E+01 
    1.7606125824593565E+01 
    1.0679422037066907E+01 
    1.0489196937951446E+01 
    9.5963441541842460E+00 
    1.6508669751172555E+01 
    1.2297537296287333E+01 
    1.9477846043932455E+01 
    1.5257529265784839E+01 
    1.6597498732431752E+01 
    1.9149443053097201E+01 
    1.8515655073508579E+01 
    1.2070201081665031E+01 
    1.2104580726794975E+01 
    1.6087286322342674E+01 
    1.6420855510666122E+01 
    1.7030883146647657E+01 
    1.6711525924063626E+01 
    1.9792684490208327E+01 
    1.2443108170196401E+01 
    1.0789893629413204E+01 
    1.2435354933312091E+01 
    1.7509447682118648E+01 
    1.2163734270700431E+01 
    7.2633240339193117E+00 
    1.1979219796650723E+01 
    1.7972821103626046E+01 
    1.2306925174450972E+01 
    1.0796968207055624E+01 
    1.1797882900804709E+01 
    1.8087686486884547E+01 
    1.6414296745983968E+01 
    1.0346870852855245E+01 
    1.8236144582070608E+01 
    1.2098124692452251E+01 
    1.7008424374308277E+01 
    1.8101965591339678E+01 
    1.2741817415503363E+01 
    6.7225459126384521E+00 
    1.3219119765506171E+01 
    6.9470417501051704E+00 
    1.2212786266220357E+01 
    1.2020377311993856E+01 
    1.3895747448999883E+01 
    7.3368341190830435E+00 
    1.4763822878882635E+01 
    1.2036608350287503E+01 
    1.6699608410700421E+01 
    1.2881008970248073E+01 
    1.0118393683886705E+01 
    1.1660188138744386E+01 
    1.2660910109007940E+01 
    1.2560711676323056E+01 
    1.7671303154865861E+01 
    1.0358300638854733E+01 
    1.0192586377938945E+01 
    7.7082697485467797E+00 
    1.7052489837126824E+01 
    1.1705878464151258E+01 
    1.6151337279186045E+01 
    1.1989638829651602E+01 
    8.4230048336735575E+00 
    1.6446014045443015E+01 
    1.1966741057089504E+01 
    9.1438971395945217E+00 
    9.6412719035541841E+00 
    9.9562143711381381E+00 
    1.6735772729155691E+01 
    1.2122815773221635E+01 
    1.7475096772484452E+01 
    1.1928038809706173E+01 
    1.1868504462823509E+01 
    1.1496403395968015E+01 
    1.6545247406385027E+01 
    1.1784154866253806E+01 
    1.0003818864586570E+01 
    1.8501946938756348E+01 
    1.6642006135604007E+01 
    8.4741657681283922E+00 
    3.3999271049125883E+00 
    1.2111705966123425E+01 
    1.1332956469815050E+01 
    1.0482718855559023E+01 
    1.1284963828486367E+01 
    1.6611598354078762E+01 
    1.1801065642937973E+01 
    1.0833015456946315E+01 
    1.6445830006292248E+01 
    8.3925137506121281E+00 
    1.6048206539702971E+01 
    1.0942303555002086E+01 
    1.0015426638484868E+01 
    1.0572671087301138E+01 
    1.7107366521623913E+01 
    1.2003576306168624E+01 
    1.2011863648357844E+01 
    7.4372042127547058E+00 
    8.0133238411529462E+00 
    1.5042583407096362E+01 
    1.2021569495882703E+01 
    1.2153966129273073E+01 
    1.8221419837656953E+01 
    1.0185953544937734E+01 
    1.2033634428100100E+01 
    8.6712162167203104E+00 
    8.9346635649728903E+00 
    1.6514455408846171E+01 
    1.1660184121272112E+01 
    8.7993675996947154E+00 
    1.2581122054638396E+01 
    1.1925277240094202E+01 
    1.6527309080683278E+01 
    1.8320028624996144E+01 
    1.2902258600980381E+00 
    1.2116878126140092E+01 
    1.2258488613539040E+01 
    1.6616940977631337E+01 
    1.1611949455304147E+01 
    1.1976495079153652E+01 
    1.7746721495575066E+01 
    1.0610516706469154E+01 
    8.8737319591346999E+00 
    1.4331473337441869E+01 
    1.6392690411816801E+01 
    1.7573200226695395E+01 
    1.7857420901182859E+01 
    1.1950294163435048E+01 
    1.2107862971662168E+01 
    1.3364679168127660E+01 
    8.0800593006954653E+00 
    1.6541653590452079E+01 
    9.5340411660904767E+00 
    8.3851321540357606E+00 
    1.4889021246323653E+01 
    1.4019774572312015E+01 
    8.2366660268831726E+00 
    1.6433541849246758E+01 
    1.7557343965434747E+01 
    1.2461006202612181E+01 
    1.8428772683880116E+01 
    1.6471723186715966E+01 
    1.1675553852026702E+01 
    1.7264058051145529E+01 
    8.9274498037671286E+00 
    1.6414337961078235E+01 
    1.2115747928538875E+01 
    1.2075353470296958E+01 
    1.8405459023747085E+01 
    1.1746559059453668E+01 
    1.4592673299192514E+01 
    1.0550533610415751E+01 
    1.7687245104294600E+01 
    1.6307325034112974E+01 
    1.0971049903075002E+01 
    1.6362329768677910E+01 
    1.0984126262936728E+01 
    1.1983680441583187E+01 
    1.7511822162548274E+01 
    1.6712049528005338E+01 
    1.7560881858941638E+01 
    1.6621327379313435E+01 
    1.1194717156274304E+01 
    1.1417202642582728E+01 
    1.7568559371438436E+01 
    1.1550855373437065E+01 
    1.6207751345258682E+01 
    1.1728672435573937E+01 
    5.0315147317469151E+00 
    8.4519335678325849E+00 
    7.8526322107444022E+00 
    1.7515716723923290E+01 
    1.8327781880700229E+01 
    1.6384280147985180E+01 
    1.3722922610501310E+01 
    1.6716590262431833E+01 
    1.6443273080564442E+01 
    1.7116483511822775E+01 
    7.1916991442945220E+00 
    4.6805290419661993E+00 
    1.3473090713448908E+01 
    1.1773810226408667E+01 
    1.6615494853403742E+01 
    1.6613049051773459E+01 
    1.2279803934710309E+01 
    1.6655477615301674E+01 
    1.2101852117538048E+01 
    1.2009627384141520E+01 
    6.5029991625765673E+00 
    4.6596932498727091E+00 
    1.8081093037712545E+01 
    9.4636154870548488E+00 
    1.0891063688441637E+01 
    1.2175169574770049E+01 
    1.9771410916249582E+01 
    1.2268382388504342E+01 
    1.2420334478026907E+01 
    5.3264376010204852E+00 
    1.2268497286286703E+01 
    1.2283009873089759E+01 
    1.6916798831415637E+01 
    1.0576669931175404E+01 
    1.1533157561333445E+01 
    1.8266286864866405E+01 
    1.2125633483834793E+01 
    1.6402902486303287E+01 
    1.6657440072654381E+01 
    1.4633936473651241E+01 
    1.0274741691827833E+01 
    1.6621280507954996E+01 
    1.1912956535569647E+01 
    1.6584002754346979E+01 
    1.6334962233419510E+01 
    1.7537432920637961E+01 
    1.6617500000543046E+01 
    1.5521803179800823E+01 
    1.2113714410600339E+01 
    8.1569991475847878E+00 
    1.9642748860429290E+01 
    9.7212067604011168E+00 
    1.7440236585475429E+01 
    1.2111005184962259E+01 
    1.0238100179872786E+01 
    6.2119387477007253E+00 
    1.2320932905364545E+01 
    1.6604733150819733E+01 
    1.6599643227164236E+01 
    1.1964035002036466E+01 
    1.2104918849303395E+01 
    1.8487529405386571E+01 
    1.7794691571912427E+01 
    1.2288738015732598E+01 
    4.3556786300969650E+00 
    1.5347690708615731E+01 
    1.9899606956430659E+01 
    1.2117180372731195E+01 
    1.4159878641181480E+01 
    1.1610627278098750E+01 
    1.9496180343940775E+01 
    1.7886495717657240E+01 
    1.7627338046089850E+01 
    1.2311761788580570E+01 
    5.7339139463025406E+00 
    1.1567783382567677E+01 
    1.1635131857299328E+01 
    1.1677641163502166E+01 
    4.7577914202685418E+00 