# vtk DataFile Version 2.0
Pressure Field Data 
ASCII 
DATASET UNSTRUCTURED_GRID 

POINTS 2860 double 

    0.0000000000000000E+00     0.0000000000000000E+00     0.0000000000000000E+00 
    1.0000000000000000E+00     0.0000000000000000E+00     0.0000000000000000E+00 
    1.0000000000000000E+00     1.0000000000000000E+00     0.0000000000000000E+00 
    0.0000000000000000E+00     1.0000000000000000E+00     0.0000000000000000E+00 
    2.5000000000000000E-01     2.5000000000000000E-01     0.0000000000000000E+00 
    7.5000000000000000E-01     2.5000000000000000E-01     0.0000000000000000E+00 
    7.5000000000000000E-01     7.5000000000000000E-01     0.0000000000000000E+00 
    2.5000000000000000E-01     7.5000000000000000E-01     0.0000000000000000E+00 
    3.1249999999942091E-02     0.0000000000000000E+00     0.0000000000000000E+00 
    6.2499999999873469E-02     0.0000000000000000E+00     0.0000000000000000E+00 
    9.3749999999826514E-02     0.0000000000000000E+00     0.0000000000000000E+00 
    1.2499999999977961E-01     0.0000000000000000E+00     0.0000000000000000E+00 
    1.5624999999968961E-01     0.0000000000000000E+00     0.0000000000000000E+00 
    1.8749999999959971E-01     0.0000000000000000E+00     0.0000000000000000E+00 
    2.1874999999950970E-01     0.0000000000000000E+00     0.0000000000000000E+00 
    2.4999999999941969E-01     0.0000000000000000E+00     0.0000000000000000E+00 
    2.8124999999932920E-01     0.0000000000000000E+00     0.0000000000000000E+00 
    3.1249999999923850E-01     0.0000000000000000E+00     0.0000000000000000E+00 
    3.4374999999914790E-01     0.0000000000000000E+00     0.0000000000000000E+00 
    3.7499999999905720E-01     0.0000000000000000E+00     0.0000000000000000E+00 
    4.0624999999896660E-01     0.0000000000000000E+00     0.0000000000000000E+00 
    4.3749999999887590E-01     0.0000000000000000E+00     0.0000000000000000E+00 
    4.6874999999878530E-01     0.0000000000000000E+00     0.0000000000000000E+00 
    4.9999999999869471E-01     0.0000000000000000E+00     0.0000000000000000E+00 
    5.3124999999877620E-01     0.0000000000000000E+00     0.0000000000000000E+00 
    5.6249999999885780E-01     0.0000000000000000E+00     0.0000000000000000E+00 
    5.9374999999893940E-01     0.0000000000000000E+00     0.0000000000000000E+00 
    6.2499999999902101E-01     0.0000000000000000E+00     0.0000000000000000E+00 
    6.5624999999910261E-01     0.0000000000000000E+00     0.0000000000000000E+00 
    6.8749999999918421E-01     0.0000000000000000E+00     0.0000000000000000E+00 
    7.1874999999926570E-01     0.0000000000000000E+00     0.0000000000000000E+00 
    7.4999999999934730E-01     0.0000000000000000E+00     0.0000000000000000E+00 
    7.8124999999942890E-01     0.0000000000000000E+00     0.0000000000000000E+00 
    8.1249999999951039E-01     0.0000000000000000E+00     0.0000000000000000E+00 
    8.4374999999959199E-01     0.0000000000000000E+00     0.0000000000000000E+00 
    8.7499999999967359E-01     0.0000000000000000E+00     0.0000000000000000E+00 
    9.0624999999975520E-01     0.0000000000000000E+00     0.0000000000000000E+00 
    9.3749999999983680E-01     0.0000000000000000E+00     0.0000000000000000E+00 
    9.6874999999991840E-01     0.0000000000000000E+00     0.0000000000000000E+00 
    1.0000000000000000E+00     3.1249999999942091E-02     0.0000000000000000E+00 
    1.0000000000000000E+00     6.2499999999873469E-02     0.0000000000000000E+00 
    1.0000000000000000E+00     9.3749999999826514E-02     0.0000000000000000E+00 
    1.0000000000000000E+00     1.2499999999977961E-01     0.0000000000000000E+00 
    1.0000000000000000E+00     1.5624999999968961E-01     0.0000000000000000E+00 
    1.0000000000000000E+00     1.8749999999959971E-01     0.0000000000000000E+00 
    1.0000000000000000E+00     2.1874999999950970E-01     0.0000000000000000E+00 
    1.0000000000000000E+00     2.4999999999941969E-01     0.0000000000000000E+00 
    1.0000000000000000E+00     2.8124999999932920E-01     0.0000000000000000E+00 
    1.0000000000000000E+00     3.1249999999923850E-01     0.0000000000000000E+00 
    1.0000000000000000E+00     3.4374999999914790E-01     0.0000000000000000E+00 
    1.0000000000000000E+00     3.7499999999905720E-01     0.0000000000000000E+00 
    1.0000000000000000E+00     4.0624999999896660E-01     0.0000000000000000E+00 
    1.0000000000000000E+00     4.3749999999887590E-01     0.0000000000000000E+00 
    1.0000000000000000E+00     4.6874999999878530E-01     0.0000000000000000E+00 
    1.0000000000000000E+00     4.9999999999869471E-01     0.0000000000000000E+00 
    1.0000000000000000E+00     5.3124999999877620E-01     0.0000000000000000E+00 
    1.0000000000000000E+00     5.6249999999885780E-01     0.0000000000000000E+00 
    1.0000000000000000E+00     5.9374999999893940E-01     0.0000000000000000E+00 
    1.0000000000000000E+00     6.2499999999902101E-01     0.0000000000000000E+00 
    1.0000000000000000E+00     6.5624999999910261E-01     0.0000000000000000E+00 
    1.0000000000000000E+00     6.8749999999918421E-01     0.0000000000000000E+00 
    1.0000000000000000E+00     7.1874999999926570E-01     0.0000000000000000E+00 
    1.0000000000000000E+00     7.4999999999934730E-01     0.0000000000000000E+00 
    1.0000000000000000E+00     7.8124999999942890E-01     0.0000000000000000E+00 
    1.0000000000000000E+00     8.1249999999951039E-01     0.0000000000000000E+00 
    1.0000000000000000E+00     8.4374999999959199E-01     0.0000000000000000E+00 
    1.0000000000000000E+00     8.7499999999967359E-01     0.0000000000000000E+00 
    1.0000000000000000E+00     9.0624999999975520E-01     0.0000000000000000E+00 
    1.0000000000000000E+00     9.3749999999983680E-01     0.0000000000000000E+00 
    1.0000000000000000E+00     9.6874999999991840E-01     0.0000000000000000E+00 
    9.6875000000003686E-01     1.0000000000000000E+00     0.0000000000000000E+00 
    9.3750000000011691E-01     1.0000000000000000E+00     0.0000000000000000E+00 
    9.0625000000015765E-01     1.0000000000000000E+00     0.0000000000000000E+00 
    8.7500000000017863E-01     1.0000000000000000E+00     0.0000000000000000E+00 
    8.4375000000028044E-01     1.0000000000000000E+00     0.0000000000000000E+00 
    8.1250000000040856E-01     1.0000000000000000E+00     0.0000000000000000E+00 
    7.8125000000054956E-01     1.0000000000000000E+00     0.0000000000000000E+00 
    7.5000000000066480E-01     1.0000000000000000E+00     0.0000000000000000E+00 
    7.1875000000086831E-01     1.0000000000000000E+00     0.0000000000000000E+00 
    6.8750000000102829E-01     1.0000000000000000E+00     0.0000000000000000E+00 
    6.5625000000114431E-01     1.0000000000000000E+00     0.0000000000000000E+00 
    6.2500000000129829E-01     1.0000000000000000E+00     0.0000000000000000E+00 
    5.9375000000147926E-01     1.0000000000000000E+00     0.0000000000000000E+00 
    5.6250000000168354E-01     1.0000000000000000E+00     0.0000000000000000E+00 
    5.3125000000188671E-01     1.0000000000000000E+00     0.0000000000000000E+00 
    5.0000000000205835E-01     1.0000000000000000E+00     0.0000000000000000E+00 
    4.6875000000192979E-01     1.0000000000000000E+00     0.0000000000000000E+00 
    4.3750000000180111E-01     1.0000000000000000E+00     0.0000000000000000E+00 
    4.0625000000167238E-01     1.0000000000000000E+00     0.0000000000000000E+00 
    3.7500000000154382E-01     1.0000000000000000E+00     0.0000000000000000E+00 
    3.4375000000141509E-01     1.0000000000000000E+00     0.0000000000000000E+00 
    3.1250000000128642E-01     1.0000000000000000E+00     0.0000000000000000E+00 
    2.8125000000115769E-01     1.0000000000000000E+00     0.0000000000000000E+00 
    2.5000000000102918E-01     1.0000000000000000E+00     0.0000000000000000E+00 
    2.1875000000090050E-01     1.0000000000000000E+00     0.0000000000000000E+00 
    1.8750000000077180E-01     1.0000000000000000E+00     0.0000000000000000E+00 
    1.5625000000064329E-01     1.0000000000000000E+00     0.0000000000000000E+00 
    1.2500000000051459E-01     1.0000000000000000E+00     0.0000000000000000E+00 
    9.3750000000385914E-02     1.0000000000000000E+00     0.0000000000000000E+00 
    6.2500000000257239E-02     1.0000000000000000E+00     0.0000000000000000E+00 
    3.1250000000128557E-02     1.0000000000000000E+00     0.0000000000000000E+00 
    0.0000000000000000E+00     9.6875000000003686E-01     0.0000000000000000E+00 
    0.0000000000000000E+00     9.3750000000011691E-01     0.0000000000000000E+00 
    0.0000000000000000E+00     9.0625000000015765E-01     0.0000000000000000E+00 
    0.0000000000000000E+00     8.7500000000017863E-01     0.0000000000000000E+00 
    0.0000000000000000E+00     8.4375000000028044E-01     0.0000000000000000E+00 
    0.0000000000000000E+00     8.1250000000040856E-01     0.0000000000000000E+00 
    0.0000000000000000E+00     7.8125000000054956E-01     0.0000000000000000E+00 
    0.0000000000000000E+00     7.5000000000066480E-01     0.0000000000000000E+00 
    0.0000000000000000E+00     7.1875000000086831E-01     0.0000000000000000E+00 
    0.0000000000000000E+00     6.8750000000102829E-01     0.0000000000000000E+00 
    0.0000000000000000E+00     6.5625000000114431E-01     0.0000000000000000E+00 
    0.0000000000000000E+00     6.2500000000129829E-01     0.0000000000000000E+00 
    0.0000000000000000E+00     5.9375000000147926E-01     0.0000000000000000E+00 
    0.0000000000000000E+00     5.6250000000168354E-01     0.0000000000000000E+00 
    0.0000000000000000E+00     5.3125000000188671E-01     0.0000000000000000E+00 
    0.0000000000000000E+00     5.0000000000205835E-01     0.0000000000000000E+00 
    0.0000000000000000E+00     4.6875000000192979E-01     0.0000000000000000E+00 
    0.0000000000000000E+00     4.3750000000180111E-01     0.0000000000000000E+00 
    0.0000000000000000E+00     4.0625000000167238E-01     0.0000000000000000E+00 
[...]
CELL_DATA 2795 
SCALARS Pressure double 1 
LOOKUP_TABLE default 

    7.0090393640367346E+00 
    1.5070032226420482E+01 
    1.0701483521014234E+01 
    1.0385506043975107E+01 
    8.4700202964598894E+00 
    1.4933222670804474E+01 
    1.5673883731096367E+01 
    6.3156172840811102E+00 
    1.1257544096174357E+01 
    8.6084971976922287E+00 
    7.3444809921524561E+00 
    1.4673268225810871E+01 
    1.4990512036834472E+01 
    1.4902807548990832E+01 
    9.8490337748375616E+00 
    6.2153057376887526E+00 
    9.6562172788852099E+00 
    7.8149918832750034E+00 
    1.4304968071636251E+01 
    1.0686653931235510E+01 
    1.0581667184275132E+01 
    1.4835000811890788E+01 
    1.0132683023001178E+01 
    4.1361600006455806E-01 
    1.4675601846742394E+01 
    1.4943743661066110E+01 
    1.5705975627564289E+01 
    7.1133134710749850E+00 
    1.4592765870387426E+01 
    1.5691057099997519E+01 
    1.0810913519408119E+01 
    1.0899205657378022E+01 
    7.7596863048617912E+00 
    1.0663973106965235E+01 
    3.5852223387353583E+00 
    9.6572824768780130E+00 
    1.0651305064642393E+01 
    1.5730574595203583E+01 
    1.5650854578051980E+01 
    1.4686455414481028E+01 
    8.4244405043762782E+00 
    1.4646494937856213E+01 
    8.6685333916297613E-01 
    1.0613233609651246E+01 
    1.5498499470943456E+01 
    1.5271302811730777E+01 
    1.4662398306508765E+01 
    1.1637008586270868E+01 
    1.4731010280421540E+01 
    9.8571879357202370E+00 
    9.4398048474049343E+00 
    1.0863976181877662E+01 
    1.0517944932738658E+01 
    9.7124752276047790E+00 
    1.0878800097396260E+01 
    1.4091965179536841E+01 
    1.2582737312503559E+01 
    8.5119160484932550E+00 
    1.4840260593804869E+01 
    1.4762283212706842E+01 
    1.0379779100032147E+01 
    1.0289239361748892E+01 
    1.0294355145524815E+01 
    1.5593247243368699E+01 
    1.5884692260376644E+01 
    9.6704994350577671E+00 
    1.0862712431165241E+01 
    1.4542040049650492E+01 
    1.2486120469966641E+01 
    1.0336889447182449E+01 
    1.5865538663434217E+01 
    1.4790343963604780E+01 
    9.5463439530899770E+00 
    1.5388629851395415E+01 
    1.1103080087103285E+01 
    1.4519976617611245E+01 
    1.5750921695678546E+01 
    1.1153872739724701E+01 
    7.2087546895517702E+00 
    1.0881020842829527E+01 
    1.5659557475516896E+01 
    1.5886993968612519E+01 
    9.6761573543831751E+00 
    1.0802097630485708E+01 
    1.5935795019524704E+01 
    1.0651898049614815E+01 
    1.0214969888326904E+01 
    1.2922736727951376E+01 
    6.8780799482838129E+00 
    9.4660251817364927E+00 
    1.0800439765672671E+01 
    1.1421500868216354E+01 
    1.7382831118249950E+01 
    8.2489186427767063E+00 
    1.0870650283123236E+01 
    1.4640202257451463E+01 
    1.4937632496911359E+01 
    7.3416556149712751E+00 
    1.0517776234308814E+01 
    1.0832691815391824E+01 
    1.4959526749288628E+01 
    1.0828359885778408E+01 
    1.4886822574986017E+01 
    4.5242135784732982E+00 
    7.1393057529394675E+00 
    1.1089594188140438E+01 
    1.5077897322506937E+01 
    9.6240003270601786E+00 
    1.0169208629850868E+01 
    1.0809725037660204E+01 
    1.0186065681385408E+01 
    1.2202843655904163E+01 
    9.9208095232213669E+00 
    9.5531294901221617E+00 
    7.7665161682048103E+00 
    1.2688753906573810E+01 
    1.0902934852302907E+01 
    1.5507365743623371E+01 
    9.3527249539798998E+00 
    1.0368987194228765E+01 
    1.4774138387934501E+01 
    8.8419204488447836E+00 
    1.5242724180722448E+01 
    1.0727358611152271E+01 
    1.0303492322067346E+01 
    1.4939637601122874E+01 
    1.0893449162310500E+01 
    1.5758008379961726E+01 
    1.2939977686672330E+01 
    1.3930674822614813E+01 
    1.5722969610875738E+01 
    8.2639777642413783E+00 
    1.1116862194534891E+01 
    1.4929900767098331E+01 
    3.3761854970818650E+00 
    1.0857979600759043E+01 
    1.5689048793016372E+01 
    1.0330644770762790E+01 
    1.1821132408932684E+01 
    7.3697144324061314E+00 
    1.4638156682578664E+01 
    1.7859476826272449E+01 
    1.3424367985928738E+01 
    1.0329699191670946E+01 
    9.3654574715737393E+00 
    1.1491920291656390E+01 
    1.0744425212102067E+01 
    7.4270277051538232E+00 
    1.5716804800365372E+01 
    1.4979058661952457E+01 
    1.4641937761091459E+01 
    1.1435294635605544E+01 
    9.5246700556558128E+00 
    1.0578430102048785E+01 
    1.5421808262511373E+01 
    9.7516614958212955E+00 
    1.0774062009365389E+01 
    9.9071585120778032E+00 
    1.2441230098721856E+01 
    1.7847877998426792E+01 
    1.4633316703209280E+01 
    9.5116944052430554E+00 
    1.5139663194165603E+01 
    1.5036153767597945E+01 
    1.5118202017870484E+01 
    1.6133640510092661E+01 
    1.6672344518728874E+01 
    1.5270682998487450E+01 
    1.0854420795746078E+01 
    1.1665168232608691E+01 
    1.5103721040912847E+01 
    1.5523285337854871E+01 
    7.7481221139366516E+00 
    1.4661916902429851E+01 
    1.5386495788410349E+01 
    7.5385045738008047E+00 
    1.6047877122587682E+01 
    1.6031366871564913E+01 
    1.4374442064417098E+01 
    1.1197908504711325E+01 
    2.9376685651665921E+00 
    1.5688075770104652E+01 
    1.1029761781298761E+01 
    1.5818606142998213E+01 
    1.0266400381855778E+01 
    1.5524295561138523E+01 
    1.0758446662682979E+00 
    1.3940189419356459E+01 
    1.0334825846646478E+01 
    9.4831368029662677E+00 
    9.2683887595572489E+00 
    1.0696025061918547E+01 
    1.1835519481448147E+01 
    1.1188668104962641E+01 
    7.9011527954307557E+00 
    1.5513331318773526E+01 
    1.4953182262021503E+01 
    1.2615801172493546E+01 
    1.1083565960961154E+01 
    1.7141727665165118E+00 
    8.6149722801665227E+00 
    6.1545336940906834E+00 
    1.5703561136117980E+01 
    1.1944493497759513E+01 
    1.5004258103014863E+01 
    1.5022801780198700E+01 
    9.8302093310451486E+00 
    1.2462539163240523E+01 
    1.4636795180424306E+01 
    1.6018379456111628E+01 
    7.3045374256139963E+00 
    1.3263255609965995E+01 
    1.1165281040660018E+01 
    6.5473733240221019E+00 
    9.8201681889327865E+00 
    1.3030772898739700E+01 
    1.4982517063093709E+01 
    1.0749358088489149E+01 
    1.5096131546417356E+01 
    1.4854591560913871E+01 
    1.4801502569957799E+01 
    1.0583376045134351E+01 
    9.4018725462746833E+00 
    1.4650149934486354E+01 
    9.5427748257783538E+00 
    1.0834795215788501E+01 
    9.3794353200874401E+00 
    1.0735040774836582E+01 
    1.5032992759914261E+01 
    6.7421896489226256E+00 
    9.7355067951208056E+00 
    1.5620163320281451E+01 
    1.0593988275119219E+01 
    1.1845387838521715E+01 
    6.9150961845485099E+00 
    9.5975272876011992E+00 
    1.4832535354892009E+01 
    1.5153089270066848E+01 
    5.6731237882027763E+00 
    1.0602998056876542E+01 
    9.4267855557915645E+00 
    1.6441181152130827E+01 
    1.5898323247022036E+01 
    1.6699147653364875E+01 
    1.0623460830134901E+01 
    1.5003948195936754E+01 
    1.4591206509399862E+01 
    1.0488364783045711E+01 
    1.4642240631199712E+01 
    1.1084859918017852E+01 
    6.6234171995414117E+00 
    1.0896457912250650E+01 
    1.5605717156062328E+01 
    1.4638987942899467E+01 
    7.3251480171400134E+00 
    1.4669018179158103E+01 
    1.1855289461960384E+01 
    1.0839472332810306E+01 
    1.0401893422159036E+01 
    1.4503739996611255E+01 
    1.1336561435088539E+01 
    1.4655433424301041E+01 
    1.0553741150704647E+01 
    6.8346367256264102E+00 
    1.0909534284756312E+01 
    9.2746196146692412E+00 
    1.3434499535246333E+01 
    1.5808513075249104E+01 
    1.4648263146350125E+01 
    1.5682086951280660E+01 
    1.0538200155117419E+01 
    7.1345541853633705E+00 
    7.2271041431478107E+00 
    1.1017385651305684E+01 
    1.0808940341138507E+01 
    1.6548417139711098E+00 
    1.4135942954887174E+01 
    1.6175407437134670E+01 
    1.0279124055407914E+01 
    6.8976402731430397E+00 
    1.2373162622342843E+01 
    1.4667475983410213E+01 
    8.0172968322317431E+00 
    5.5429537315242907E+00 
    1.0788874118938045E+01 
    1.4746580580331289E+01 
    1.5418494372753416E+01 
    1.5315004406548635E+01 
    1.5155618240304083E+01 
    7.8783650993518179E+00 
    1.0832885370192390E+01 
    1.4178140682110197E+01 
    8.4522820756111372E+00 
    1.4976220158318023E+01 
    1.2688588594423384E+01 
    7.3222845627405952E+00 
    1.4775462352958211E+01 
    1.5703257515365546E+01 
    1.4799967732676608E+01 
    7.7416894523682016E+00 
    1.0858844096353712E+01 
    8.4458484071959656E+00 
    1.0246258377157528E+01 
    1.4658832003782003E+01 
    1.4646849543588919E+01 
    7.7841324800263960E+00 
    1.5563584219594167E+01 
    1.1405725233393390E+01 
    1.4679528041901266E+01 
    1.5542137008790794E+01 
    1.4667164345605926E+01 
    1.3673183099632062E+01 
    1.6495219597094955E+01 
    1.0236747049705745E+01 
    1.5650809209474124E+01 
    1.4706995575749254E+01 
    1.5724626819793375E+01 
    1.5556273641567893E+01 
    1.0330993409292420E+01 
    1.0691920865331356E+01 
    1.0270249113303455E+01 
    1.3158770610445385E+01 
    4.5336767037292063E+00 
    1.0955895196658108E+01 
    1.6619962861961032E+01 
    1.1085588893925562E+01 
    1.1278051396570000E+01 
    1.5697013927849115E+01 
    1.5933721917185233E+01 
    1.0168366671018191E+01 
    1.4673449193412193E+01 
    1.4643123107498701E+01 
    1.1265245223382633E+01 
    1.5510878269939210E+01 
    7.6859622996856016E+00 
    4.9609567377738797E+00 
    1.1555028472957650E+01 
    1.1099891935140217E+01 
    1.4648460996077906E+01 
    7.3218595063954757E+00 
    1.5230352581320791E+01 
    5.0701826493543996E+00 
    1.1034250852112375E+01 
    1.0364622423777513E+01 
    1.0835534387628917E+01 
    1.7897091841939620E+01 
    4.4054593171906999E+00 
    1.0875198794043344E+01 
    1.2906214632812635E+01 
    1.0436851580443616E+01 
    8.5670506243229099E+00 
    1.5336110585536490E+01 
    1.7474304481219811E+01 
    1.5493084107331104E+01 
    1.0817411309517947E+01 
    6.5130367362965638E+00 
    1.7322340883112908E+01 
    1.4944087773978355E+01 
    8.2693982668266575E+00 
    1.0469331454457238E+01 
    1.6115777022171947E+01 
    3.7388870217846595E+00 
    1.1151740905474739E+01 
    1.5476276850042268E+01 
    1.0849785317741350E+01 
    9.4432133827910274E+00 
    1.0914038318353587E+01 
    1.4383954741997991E+01 
    1.0831322536757410E+01 
    5.8172841455596709E+00 
    1.0640892075214639E+00 
    8.0558579487020374E+00 
    1.6333626351727375E+01 
    1.0268847709884826E+01 
    1.2126572904084220E+01 
    1.1635846659653239E+01 
    1.3326015175858787E+01 
    1.0863336251060067E+01 
    1.4850783654713968E+01 
    1.7911004576879574E+01 
    1.2832042718855616E+01 
    1.5622394682882540E+01 
    6.1810944001824042E-01 
    1.4648846100566214E+01 
    6.4123647025862738E+00 
    1.6786523438610683E+01 
    1.0888501026886221E+01 
    9.6096856257396333E+00 
    8.5981533139789956E+00 
    6.0775815052036330E+00 
    1.2116168978269110E+01 
    8.5389485977634898E+00 
    1.3326358028589002E+01 
    2.4897300125733710E+00 
    1.1891799516858946E+01 
    1.4578917374510537E+01 
    6.5642840300442371E+00 
    1.5128429139239429E+01 
    1.6599134379476368E+01 
    1.4969068537780567E+01 
    1.0758264397529459E+01 
    1.0829902279694222E+01 
    1.0881390933946685E+01 
    6.5762774437187606E+00 
    1.0010031495769541E+01 
    9.8615388951543927E+00 
    1.0870689693577591E+01 
    1.0206403791988343E+01 
    7.9487842375241735E-01 
    7.3367785232105112E+00 
    1.0580991352050043E+01 
    1.0846451592895114E+01 
    1.3683113561946859E+01 
    2.4475603379676407E+00 
    1.1223823615330302E+01 
    1.1105343250544117E+01 
    4.2349216480673277E+00 
    1.4831434641614628E+01 
    9.5549147456598416E+00 
    1.0964173477783572E+01 
    1.4945097929123827E+01 
    6.1187206542960828E+00 
    1.4945647635161141E+01 
    9.6659879574274328E+00 
    1.1130177437491355E+00 
    1.0327576716724097E+01 
    1.5575905261597747E+01 
    1.4648928768420253E+01 
    1.4668303787056878E+01 
    1.1217463008740957E+01 
    1.1037573468240764E+01 
    9.5383133653315202E+00 
    7.9519384964011053E+00 
    1.5066211481225173E+01 
    1.0464773667054461E+01 
    7.7247083278463391E+00 
    1.4663337676000960E+01 
    1.5368849717837541E+01 
    1.1039545975201984E+01 
    1.0642237407679456E+01 
    1.7793314371269183E+01 
    1.1266172548267086E+01 
    1.5075147746906707E+01 
    9.1187484136689463E+00 
    1.7938937893055776E+01 
    7.1843225086702045E+00 
    9.9226956248692311E+00 
    8.0124635832110549E+00 
    1.1503543631310707E+01 
    9.2137263952771562E+00 
    1.7922790784698655E+01 
    1.1315505895886364E+01 
    1.4323971072121756E+01 
    7.3816996706420719E+00 
    1.0858884455515266E+01 
    1.4907523830488183E+01 
    9.2214505825161925E+00 
    8.2010612778468701E+00 
    1.2031740572476853E+01 
    1.5142799184975713E+01 
    7.9103952672930644E+00 
    1.0384548183678591E+01 
    1.0675694142098164E+01 
    1.4623898392773368E+01 
    1.0461398780326393E+01 
    1.5115739231192384E+01 
    1.5754041071074639E+01 
    9.5653608998413997E+00 
    9.3990406887134732E+00 
    8.5802482576532810E+00 
    1.4770191412384348E+01 
    1.1129518773675544E+01 
    1.7510453199689064E+01 
    1.3781023777272564E+01 
    1.4867128087994917E+01 
    1.7197806040898261E+01 
    1.6601468136223350E+01 
    1.0905741155522497E+01 
    1.0856023431106696E+01 
    1.4399663864830298E+01 
    1.4687548912601720E+01 
    1.5255403134932587E+01 
    1.4967432352401229E+01 
    1.7814353886131954E+01 
    1.1265688885316127E+01 
    9.6634171156892066E+00 
    1.1271498914921443E+01 
    1.5665628127806157E+01 
    1.1002257769258186E+01 
    6.4711244057009951E+00 
    1.0742725143881124E+01 
    1.6090122094190896E+01 
    1.1141931467255736E+01 
    9.6687247951568516E+00 
    1.0616155922552105E+01 
    1.6196943062225220E+01 
    1.4701754753001508E+01 
    9.2551243586401668E+00 
    1.6334900675743572E+01 
    1.0934673617006968E+01 
    1.5224456796120000E+01 
    1.6210733309265777E+01 
    1.1448870372746233E+01 
    6.1298522600954151E+00 
    1.1914699312220913E+01 
    6.3310190935776189E+00 
    1.1052791125569728E+01 
    1.0852829652709508E+01 
    1.2567818604470954E+01 
    6.6789124660456274E+00 
    1.3330740638720753E+01 
    1.0871297124106867E+01 
    1.4955994337117113E+01 
    1.1532578966450508E+01 
    9.0938960185376594E+00 
    1.0482538591635750E+01 
    1.1368513887051495E+01 
    1.1372704367873590E+01 
    1.5815821397851396E+01 
    9.2845343404621854E+00 
    9.1402732266392572E+00 
    6.9946492573857428E+00 
    1.5275748657230954E+01 
    1.0526507008898374E+01 
    1.4492585470544659E+01 
    1.0822318537565943E+01 
    7.5939963250912044E+00 
    1.4736979818218526E+01 
    1.0798149171362862E+01 
    8.2182112266665168E+00 
    8.6601798156960790E+00 
    8.9370020329839939E+00 
    1.4990865294858660E+01 
    1.0872618428679925E+01 
    1.5634155256792123E+01 
    1.0757400476936624E+01 
    1.0695537442436597E+01 
    1.0306043699347175E+01 
    1.4822404443938259E+01 
    1.0610322934163900E+01 
    8.9784507749942737E+00 
    1.6588226557592790E+01 
    1.4907858187244051E+01 
    7.5112998503266581E+00 
    3.0971081402476655E+00 
    1.0862347399016674E+01 
    1.0183891424444319E+01 
    9.3934805557754437E+00 
    1.0116323278827123E+01 
    1.4856964752622810E+01 
    1.0580862702891661E+01 
    9.7084354901903058E+00 
    1.4710286672776961E+01 
    7.4504066038888945E+00 
    1.4361315048386908E+01 
    9.8203502353841614E+00 
    8.9498143995882238E+00 
    9.4717396388813917E+00 
    1.5311922551084391E+01 
    1.0838324137227810E+01 
    1.0846594881183940E+01 
    6.7505317022423830E+00 
    7.2520451279810780E+00 
    1.3591243580952831E+01 
    1.0856472795287530E+01 
    1.0901252832224499E+01 
    1.6319528114433371E+01 
    9.1369134354806700E+00 
    1.0868811978085853E+01 
    7.7006413739311546E+00 
    7.9458232331042922E+00 
    1.4820295602694085E+01 
    1.0490361353378667E+01 
    7.9343841599835923E+00 
    1.1434984418061180E+01 
    1.0749157660743862E+01 
    1.4821727327549000E+01 
    1.6411960385305520E+01 
    1.1797978990935880E+00 
    1.0867082050351669E+01 
    1.1098119806699380E+01 
    1.4884755159574480E+01 
    1.0395174610745103E+01 
    1.0811392723922438E+01 
    1.5878369136742577E+01 
    9.5045291663205731E+00 
    7.9999016802426572E+00 
    1.2975109891149339E+01 
    1.4663016869845960E+01 
    1.5724319091740339E+01 
    1.5988308517686599E+01 
    1.0714964161842840E+01 
    1.0858965196104799E+01 
    1.2165292220790301E+01 
    7.1647552845190896E+00 
    1.4793918231440410E+01 
    8.5695420638700561E+00 
    7.4377237535486094E+00 
    1.3486321921918414E+01 
    1.2760935038903062E+01 
    7.3045765034266346E+00 
    1.4700034896211484E+01 
    1.5709462409115128E+01 
    1.1281907951719875E+01 
    1.6513155084217949E+01 
    1.4734282190083844E+01 
    1.0459542289807114E+01 
    1.5442509589162837E+01 
    7.9486937183969069E+00 
    1.4681850178100962E+01 
    1.0866102972347536E+01 
    1.0828448079877186E+01 
    1.6489192075788964E+01 
    1.0564518202307198E+01 
    1.3260876532742760E+01 
    9.4538417498550942E+00 
    1.5828496642786085E+01 
    1.4586050667077840E+01 
    9.8182300007280165E+00 
    1.4638011648630124E+01 
    9.8103736880839332E+00 
    1.0819847627932912E+01 
    1.5667871628871341E+01 
    1.4971141381350778E+01 
    1.5712823454731492E+01 
    1.4889133909724304E+01 
    1.0021266356988898E+01 
    1.0227575873753040E+01 
    1.5719636383650629E+01 
    1.0347255650181719E+01 
    1.4509445649897332E+01 
    1.0549442101820413E+01 
    4.5743016047916001E+00 
    7.5120134205537701E+00 
    6.9733862925747463E+00 
    1.5671350798550378E+01 
    1.6418316442680187E+01 
    1.4656655541773096E+01 
    1.2426261147345032E+01 
    1.4959154646373786E+01 
    1.4707343548003768E+01 
    1.5309792983954811E+01 
    6.5392138599239473E+00 
    4.2576058338860774E+00 
    1.2205167094017446E+01 
    1.0545180127560750E+01 
    1.4859111905578983E+01 
    1.4856697696098651E+01 
    1.1127550728567767E+01 
    1.4894703067278853E+01 
    1.0853496967276786E+01 
    1.0764930101870476E+01 
    5.9216690646581647E+00 
    4.2415231616674420E+00 
    1.6191752840356830E+01 
    8.4543520532961036E+00 
    9.7517556615613632E+00 
    1.1013779599322087E+01 
    1.7794852618421775E+01 
    1.1107645795426709E+01 
    1.1147072114615201E+01 
    4.8180330172021586E+00 
    1.1108881046610037E+01 
    1.1123889041837232E+01 
    1.5178423507281639E+01 
    9.4772678072485732E+00 
    1.0377871764282263E+01 
    1.6362271110137819E+01 
    1.0875104331738918E+01 
    1.4673120448276567E+01 
    1.4915880452152132E+01 
    1.3227778058207806E+01 
    9.2011398808230620E+00 
    1.4889997186452222E+01 
    1.0677001497267716E+01 
    1.4847335377932335E+01 
    1.4609959022994744E+01 
    1.5691186945488358E+01 
    1.4883855897364882E+01 
    1.3977263086996469E+01 
    1.0864265107323524E+01 
    7.2426731013181005E+00 
    1.7670134665257358E+01 
    8.7319378493006443E+00 
    1.5609486623857148E+01 
    1.0861762616462066E+01 
    9.1837414992460893E+00 
    5.5741444908897169E+00 
    1.1163103327595262E+01 
    1.4874491693719394E+01 
    1.4873828529968597E+01 
    1.0800184792032812E+01 
    1.0856133393313318E+01 
    1.6570428593972174E+01 
    1.5930811496452382E+01 
    1.1126609952578972E+01 
    3.9574245832323158E+00 
    1.3896764167384061E+01 
    1.7920580059866374E+01 
    1.0867468439889434E+01 
    1.2813917376267725E+01 
    1.0393280993074514E+01 
    1.7529664012533697E+01 
    1.6013583922685083E+01 
    1.5766816126529505E+01 
    1.1148638871917690E+01 
    5.1404563739719764E+00 
    1.0354038325827679E+01 
    1.0416343341920648E+01 
    1.0457426713015895E+01 
    4.3052968696651179E+00 