# vtk DataFile Version 2.0
Pressure Field Data 
ASCII 
DATASET UNSTRUCTURED_GRID 

POINTS 2860 double 

    0.0000000000000000E+00     0.0000000000000000E+00     0.0000000000000000E+00 
    1.0000000000000000E+00     0.0000000000000000E+00     0.0000000000000000E+00 
    1.0000000000000000E+00     1.0000000000000000E+00     0.0000000000000000E+00 
    0.0000000000000000E+00     1.0000000000000000E+00     0.0000000000000000E+00 
    2.5000000000000000E-01     2.5000000000000000E-01     0.0000000000000000E+00 
    7.5000000000000000E-01     2.5000000000000000E-01     0.0000000000000000E+00 
    7.5000000000000000E-01     7.5000000000000000E-01     0.0000000000000000E+00 
    2.5000000000000000E-01     7.5000000000000000E-01     0.0000000000000000E+00 
    3.1249999999942091E-02     0.0000000000000000E+00     0.0000000000000000E+00 
    6.2499999999873469E-02     0.0000000000000000E+00     0.0000000000000000E+00 
    9.3749999999826514E-02     0.0000000000000000E+00     0.0000000000000000E+00 
    1.2499999999977961E-01     0.0000000000000000E+00     0.0000000000000000E+00 
    1.5624999999968961E-01     0.0000000000000000E+00     0.0000000000000000E+00 
    1.8749999999959971E-01     0.0000000000000000E+00     0.0000000000000000E+00 
    2.1874999999950970E-01     0.0000000000000000E+00     0.0000000000000000E+00 
    2.4999999999941969E-01     0.0000000000000000E+00     0.0000000000000000E+00 
    2.8124999999932920E-01     0.0000000000000000E+00     0.0000000000000000E+00 
    3.1249999999923850E-01     0.0000000000000000E+00     0.0000000000000000E+00 
    3.4374999999914790E-01     0.0000000000000000E+00     0.0000000000000000E+00 
    3.7499999999905720E-01     0.0000000000000000E+00     0.0000000000000000E+00 
    4.0624999999896660E-01     0.0000000000000000E+00     0.0000000000000000E+00 
    4.3749999999887590E-01     0.0000000000000000E+00     0.0000000000000000E+00 
    4.6874999999878530E-01     0.0000000000000000E+00     0.0000000000000000E+00 
    4.9999999999869471E-01     0.0000000000000000E+00     0.0000000000000000E+00 
    5.3124999999877620E-01     0.0000000000000000E+00     0.0000000000000000E+00 
    5.6249999999885780E-01     0.0000000000000000E+00     0.0000000000000000E+00 
    5.9374999999893940E-01     0.0000000000000000E+00     0.0000000000000000E+00 
    6.2499999999902101E-01     0.0000000000000000E+00     0.0000000000000000E+00 
    6.5624999999910261E-01     0.0000000000000000E+00     0.0000000000000000E+00 
    6.8749999999918421E-01     0.0000000000000000E+00     0.0000000000000000E+00 
    7.1874999999926570E-01     0.0000000000000000E+00     0.0000000000000000E+00 
    7.4999999999934730E-01     0.0000000000000000E+00     0.0000000000000000E+00 
    7.8124999999942890E-01     0.0000000000000000E+00     0.0000000000000000E+00 
    8.1249999999951039E-01     0.0000000000000000E+00     0.0000000000000000E+00 
    8.4374999999959199E-01     0.0000000000000000E+00     0.0000000000000000E+00 
    8.7499999999967359E-01     0.0000000000000000E+00     0.0000000000000000E+00 
    9.0624999999975520E-01     0.0000000000000000E+00     0.0000000000000000E+00 
    9.3749999999983680E-01     0.0000000000000000E+00     0.0000000000000000E+00 
    9.6874999999991840E-01     0.0000000000000000E+00     0.0000000000000000E+00 
    1.0000000000000000E+00     3.1249999999942091E-02     0.0000000000000000E+00 
    1.0000000000000000E+00     6.2499999999873469E-02     0.0000000000000000E+00 
    1.0000000000000000E+00     9.3749999999826514E-02     0.0000000000000000E+00 
    1.0000000000000000E+00     1.2499999999977961E-01     0.0000000000000000E+00 
    1.0000000000000000E+00     1.5624999999968961E-01     0.0000000000000000E+00 
    1.0000000000000000E+00     1.8749999999959971E-01     0.0000000000000000E+00 
    1.0000000000000000E+00     2.1874999999950970E-01     0.0000000000000000E+00 
    1.0000000000000000E+00     2.4999999999941969E-01     0.0000000000000000E+00 
    1.0000000000000000E+00     2.8124999999932920E-01     0.0000000000000000E+00 
    1.0000000000000000E+00     3.1249999999923850E-01     0.0000000000000000E+00 
    1.0000000000000000E+00     3.4374999999914790E-01     0.0000000000000000E+00 
    1.0000000000000000E+00     3.7499999999905720E-01     0.0000000000000000E+00 
    1.0000000000000000E+00     4.0624999999896660E-01     0.0000000000000000E+00 
    1.0000000000000000E+00     4.3749999999887590E-01     0.0000000000000000E+00 
    1.0000000000000000E+00     4.6874999999878530E-01     0.0000000000000000E+00 
    1.0000000000000000E+00     4.9999999999869471E-01     0.0000000000000000E+00 
    1.0000000000000000E+00     5.3124999999877620E-01     0.0000000000000000E+00 
    1.0000000000000000E+00     5.6249999999885780E-01     0.0000000000000000E+00 
    1.0000000000000000E+00     5.9374999999893940E-01     0.0000000000000000E+00 
    1.0000000000000000E+00     6.2499999999902101E-01     0.0000000000000000E+00 
    1.0000000000000000E+00     6.5624999999910261E-01     0.0000000000000000E+00 
    1.0000000000000000E+00     6.8749999999918421E-01     0.0000000000000000E+00 
    1.0000000000000000E+00     7.1874999999926570E-01     0.0000000000000000E+00 
    1.0000000000000000E+00     7.4999999999934730E-01     0.0000000000000000E+00 
    1.0000000000000000E+00     7.8124999999942890E-01     0.0000000000000000E+00 
    1.0000000000000000E+00     8.1249999999951039E-01     0.0000000000000000E+00 
    1.0000000000000000E+00     8.4374999999959199E-01     0.0000000000000000E+00 
    1.0000000000000000E+00     8.7499999999967359E-01     0.0000000000000000E+00 
    1.0000000000000000E+00     9.0624999999975520E-01     0.0000000000000000E+00 
    1.0000000000000000E+00     9.3749999999983680E-01     0.0000000000000000E+00 
    1.0000000000000000E+00     9.6874999999991840E-01     0.0000000000000000E+00 
    9.6875000000003686E-01     1.0000000000000000E+00     0.0000000000000000E+00 
    9.3750000000011691E-01     1.0000000000000000E+00     0.0000000000000000E+00 
    9.0625000000015765E-01     1.0000000000000000E+00     0.0000000000000000E+00 
    8.7500000000017863E-01     1.0000000000000000E+00     0.0000000000000000E+00 
    8.4375000000028044E-01     1.0000000000000000E+00     0.0000000000000000E+00 
    8.1250000000040856E-01     1.0000000000000000E+00     0.0000000000000000E+00 
    7.8125000000054956E-01     1.0000000000000000E+00     0.0000000000000000E+00 
    7.5000000000066480E-01     1.0000000000000000E+00     0.0000000000000000E+00 
    7.1875000000086831E-01     1.0000000000000000E+00     0.0000000000000000E+00 
    6.8750000000102829E-01     1.0000000000000000E+00     0.0000000000000000E+00 
    6.5625000000114431E-01     1.0000000000000000E+00     0.0000000000000000E+00 
    6.2500000000129829E-01     1.0000000000000000E+00     0.0000000000000000E+00 
    5.9375000000147926E-01     1.0000000000000000E+00     0.0000000000000000E+00 
    5.6250000000168354E-01     1.0000000000000000E+00     0.0000000000000000E+00 
    5.3125000000188671E-01     1.0000000000000000E+00     0.0000000000000000E+00 
    5.0000000000205835E-01     1.0000000000000000E+00     0.0000000000000000E+00 
    4.6875000000192979E-01     1.0000000000000000E+00     0.0000000000000000E+00 
    4.3750000000180111E-01     1.0000000000000000E+00     0.0000000000000000E+00 
    4.0625000000167238E-01     1.0000000000000000E+00     0.0000000000000000E+00 
    3.7500000000154382E-01     1.0000000000000000E+00     0.0000000000000000E+00 
    3.4375000000141509E-01     1.0000000000000000E+00     0.0000000000000000E+00 
    3.1250000000128642E-01     1.0000000000000000E+00     0.0000000000000000E+00 
    2.8125000000115769E-01     1.0000000000000000E+00     0.0000000000000000E+00 
    2.5000000000102918E-01     1.0000000000000000E+00     0.0000000000000000E+00 
    2.1875000000090050E-01     1.0000000000000000E+00     0.0000000000000000E+00 
    1.8750000000077180E-01     1.0000000000000000E+00     0.0000000000000000E+00 
    1.5625000000064329E-01     1.0000000000000000E+00     0.0000000000000000E+00 
    1.2500000000051459E-01     1.0000000000000000E+00     0.0000000000000000E+00 
    9.3750000000385914E-02     1.0000000000000000E+00     0.0000000000000000E+00 
    6.2500000000257239E-02     1.0000000000000000E+00     0.0000000000000000E+00 
    3.1250000000128557E-02     1.0000000000000000E+00     0.0000000000000000E+00 
    0.0000000000000000E+00     9.6875000000003686E-01     0.0000000000000000E+00 
    0.0000000000000000E+00     9.3750000000011691E-01     0.0000000000000000E+00 
    0.0000000000000000E+00     9.0625000000015765E-01     0.0000000000000000E+00 
    0.0000000000000000E+00     8.7500000000017863E-01     0.0000000000000000E+00 
    0.0000000000000000E+00     8.4375000000028044E-01     0.0000000000000000E+00 
    0.0000000000000000E+00     8.1250000000040856E-01     0.0000000000000000E+00 
    0.0000000000000000E+00     7.8125000000054956E-01     0.0000000000000000E+00 
    0.0000000000000000E+00     7.5000000000066480E-01     0.0000000000000000E+00 
    0.0000000000000000E+00     7.1875000000086831E-01     0.0000000000000000E+00 
    0.0000000000000000E+00     6.8750000000102829E-01     0.0000000000000000E+00 
    0.0000000000000000E+00     6.5625000000114431E-01     0.0000000000000000E+00 
    0.0000000000000000E+00     6.2500000000129829E-01     0.0000000000000000E+00 
    0.0000000000000000E+00     5.9375000000147926E-01     0.0000000000000000E+00 
    0.0000000000000000E+00     5.6250000000168354E-01     0.0000000000000000E+00 
    0.0000000000000000E+00     5.3125000000188671E-01     0.0000000000000000E+00 
    0.0000000000000000E+00     5.0000000000205835E-01     0.0000000000000000E+00 
    0.0000000000000000E+00     4.6875000000192979E-01     0.0000000000000000E+00 
    0.0000000000000000E+00     4.3750000000180111E-01     0.0000000000000000E+00 
    0.0000000000000000E+00     4.0625000000167238E-01     0.0000000000000000E+00 
[...]
CELL_DATA 2795 
SCALARS Pressure double 1 
LOOKUP_TABLE default 

    6.5497828653997168E+00 
    1.4197523537937478E+01 
    1.0052237526847488E+01 
    9.7185165274068233E+00 
    7.9021813840723176E+00 
    1.4064700259680007E+01 
    1.4775410936328658E+01 
    5.9078842822633737E+00 
    1.0618480806834651E+01 
    8.1063272934840978E+00 
    6.9186619654017978E+00 
    1.3816665844069323E+01 
    1.4121686993625236E+01 
    1.4035326622685554E+01 
    9.2545227124312053E+00 
    5.8159017977664487E+00 
    9.0208743397654914E+00 
    7.3619446872003582E+00 
    1.3465016657421449E+01 
    1.0039936174717857E+01 
    9.9328709207158141E+00 
    1.3971110259761327E+01 
    9.4742656602995350E+00 
    3.8867462815214160E-01 
    1.3828511660484162E+01 
    1.4077026538693566E+01 
    1.4806476958919133E+01 
    6.6734006164057389E+00 
    1.3739594439024838E+01 
    1.4793287331075867E+01 
    1.0143248922520046E+01 
    1.0259411042574438E+01 
    7.2047393881279413E+00 
    1.0013982576669662E+01 
    3.3564212879784217E+00 
    9.0220073620399166E+00 
    1.0002409133283203E+01 
    1.4831589230916041E+01 
    1.4753379719920940E+01 
    1.3829387102809619E+01 
    7.8558989211024119E+00 
    1.3794713795835467E+01 
    8.1531274757349881E-01 
    9.9471007435600463E+00 
    1.4608158419803209E+01 
    1.4404911063822277E+01 
    1.3806249634083374E+01 
    1.0956309132253859E+01 
    1.3874632581313310E+01 
    9.2128066517216993E+00 
    8.8141771983017989E+00 
    1.0224719806550203E+01 
    9.8458319422532359E+00 
    9.0741774385184293E+00 
    1.0211218892044320E+01 
    1.3261736078058750E+01 
    1.1899257169699686E+01 
    7.9417106349898017E+00 
    1.3975738408433337E+01 
    1.3901790357942243E+01 
    9.7239988924525900E+00 
    9.6645636992092658E+00 
    9.6295932018346342E+00 
    1.4699009982827379E+01 
    1.4978299190978175E+01 
    9.0340975275854394E+00 
    1.0223764935833030E+01 
    1.3714644001579591E+01 
    1.1752137533857997E+01 
    9.7042043031031309E+00 
    1.4961177179011539E+01 
    1.3932642930450815E+01 
    8.9164751522923957E+00 
    1.4509742114564002E+01 
    1.0432861692663897E+01 
    1.3679455044399367E+01 
    1.4850416350669509E+01 
    1.0464772574667103E+01 
    6.7167887712095133E+00 
    1.0242287050979549E+01 
    1.4761594364135583E+01 
    1.4982726187708622E+01 
    9.0424456492644154E+00 
    1.0159258664299777E+01 
    1.5028970187633579E+01 
    1.0004365274817468E+01 
    9.5530465174010928E+00 
    1.2163261415512583E+01 
    6.4181600616893304E+00 
    8.8391834696816662E+00 
    1.0158418119657396E+01 
    1.0772821556787020E+01 
    1.6443583576680268E+01 
    7.6966380677596788E+00 
    1.0231842063836490E+01 
    1.3785077988273345E+01 
    1.4072463608008752E+01 
    6.8553516383358062E+00 
    9.8727578455225640E+00 
    1.0189684362416875E+01 
    1.4092699530126108E+01 
    1.0188951478202457E+01 
    1.4024629463041292E+01 
    4.2409757449400702E+00 
    6.7233356629524348E+00 
    1.0456508190899383E+01 
    1.4204659946340547E+01 
    8.9897906685280375E+00 
    9.5232377834296411E+00 
    1.0172497379645421E+01 
    9.5261961607421917E+00 
    1.1522853952902986E+01 
    9.2840793498422247E+00 
    8.9221141743057313E+00 
    7.2137737657518288E+00 
    1.1926385242928754E+01 
    1.0261808429833675E+01 
    1.4616396038597829E+01 
    8.8044298073845138E+00 
    9.7034506011034569E+00 
    1.3916556170300096E+01 
    8.2496340899652161E+00 
    1.4363838744220944E+01 
    1.0082005053187224E+01 
    9.6389212955511585E+00 
    1.4074008268091049E+01 
    1.0254723464614459E+01 
    1.4856962510602299E+01 
    1.2177935378188767E+01 
    1.3111147189649245E+01 
    1.4822892155109782E+01 
    7.7106726617007117E+00 
    1.0484118670927160E+01 
    1.4064941875782015E+01 
    3.1685004083515222E+00 
    1.0190512645151287E+01 
    1.4790208157118172E+01 
    9.6664998024136199E+00 
    1.1098321188991497E+01 
    6.8393183370989306E+00 
    1.3783501285540586E+01 
    1.6914457297391497E+01 
    1.2636065689896993E+01 
    9.6643859974836381E+00 
    8.7436039191554560E+00 
    1.0817246663660571E+01 
    1.0099221621780419E+01 
    6.9894890398232574E+00 
    1.4816981726078600E+01 
    1.4120550864705395E+01 
    1.3786767748336066E+01 
    1.0764451764964623E+01 
    8.8948497944550144E+00 
    9.9306100552645997E+00 
    1.4535273665746953E+01 
    9.1117745776788190E+00 
    1.0108243439529003E+01 
    9.2596800427866555E+00 
    1.1680722078326591E+01 
    1.6903014301776182E+01 
    1.3778409089540085E+01 
    8.8762144451852532E+00 
    1.4262929943904821E+01 
    1.4165019966201136E+01 
    1.4243195090228513E+01 
    1.5220732825884905E+01 
    1.5746043733429923E+01 
    1.4406016217584529E+01 
    1.0215444858077770E+01 
    1.0974816717199118E+01 
    1.4239322622248560E+01 
    1.4630321093881253E+01 
    7.2701463826822090E+00 
    1.3805762044712004E+01 
    1.4498839283566641E+01 
    7.0995802022643613E+00 
    1.5139659513670905E+01 
    1.5122010137522917E+01 
    1.3531891505826845E+01 
    1.0551542606559028E+01 
    2.7391861871241452E+00 
    1.4789224917608671E+01 
    1.0393243345201427E+01 
    1.4914889736356578E+01 
    9.6050279790739790E+00 
    1.4633203583833588E+01 
    1.0070729043668245E+00 
    1.3123189251526988E+01 
    9.7080076735756951E+00 
    8.8565064264347289E+00 
    8.6509605366759228E+00 
    1.0051013505224628E+01 
    1.1173487261790031E+01 
    1.0489736303195057E+01 
    7.3150465127757540E+00 
    1.4621891765028554E+01 
    1.4086488709116876E+01 
    1.1875432485983566E+01 
    1.0452648495549617E+01 
    1.6124538806996704E+00 
    8.0377104787314675E+00 
    5.7662440740781920E+00 
    1.4805561351029034E+01 
    1.1264738407356214E+01 
    1.4139545199303882E+01 
    1.4153379494446073E+01 
    9.1905769007436735E+00 
    1.1781458500361031E+01 
    1.3781850243109819E+01 
    1.5108909109938386E+01 
    6.8020063489253300E+00 
    1.2477290105734877E+01 
    1.0508410484159155E+01 
    6.1326884507529442E+00 
    9.1770562410295380E+00 
    1.2360715469713435E+01 
    1.4114555847569276E+01 
    1.0105920130353738E+01 
    1.4222563339027378E+01 
    1.3993094538789231E+01 
    1.3942255138492474E+01 
    9.9364386259724764E+00 
    8.7874305418081988E+00 
    1.3794738337661055E+01 
    8.9123713775591789E+00 
    1.0194061482290840E+01 
    8.7565295924949673E+00 
    1.0055424774656117E+01 
    1.4163491833175675E+01 
    6.3391721296615691E+00 
    9.0969372127541170E+00 
    1.4724290026361141E+01 
    9.9486320922189666E+00 
    1.1166435599521957E+01 
    6.5069885272923527E+00 
    8.9656243194173655E+00 
    1.3972162485795872E+01 
    1.4276877496260377E+01 
    5.3288444448576282E+00 
    9.9549736779883826E+00 
    8.8014656412126637E+00 
    1.5519777275156367E+01 
    1.4993282220070522E+01 
    1.5771892563610374E+01 
    9.9757028851613985E+00 
    1.4135135537788207E+01 
    1.3739110977334928E+01 
    9.8462912691830766E+00 
    1.3786987692099643E+01 
    1.0453045667874768E+01 
    6.2155418419958703E+00 
    1.0227590529683619E+01 
    1.4710916058888932E+01 
    1.3783854565048410E+01 
    6.8863310944609868E+00 
    1.3812540238038494E+01 
    1.1190301475832912E+01 
    1.0172821146706761E+01 
    9.7376217049269673E+00 
    1.3654333118619480E+01 
    1.0662789288235381E+01 
    1.3799749243141127E+01 
    9.8858474246036394E+00 
    6.4056037843782434E+00 
    1.0266204275737476E+01 
    8.6576755027358541E+00 
    1.2643017560577531E+01 
    1.4905609568918853E+01 
    1.3793103776315879E+01 
    1.4783374886235221E+01 
    9.8954092240992022E+00 
    6.7197945291704384E+00 
    6.8053906626261709E+00 
    1.0347868715230408E+01 
    1.0169689104969038E+01 
    1.5449725519347721E+00 
    1.3306594961203217E+01 
    1.5258911896735260E+01 
    9.6160463595772878E+00 
    6.4298510391376436E+00 
    1.1629024625594873E+01 
    1.3811112603965686E+01 
    7.4815741675637906E+00 
    5.1772992110706326E+00 
    1.0146807576844463E+01 
    1.3890588646726528E+01 
    1.4530797418909183E+01 
    1.4426796411726791E+01 
    1.4278773339798683E+01 
    7.3405829669386939E+00 
    1.0165471119528320E+01 
    1.3348022340826944E+01 
    7.9597668287268206E+00 
    1.4108346635693925E+01 
    1.2012280854712888E+01 
    6.8972973910400004E+00 
    1.3916572735812609E+01 
    1.4809964791746642E+01 
    1.3946200727059825E+01 
    7.2268572615771287E+00 
    1.0219928748219109E+01 
    7.8797199792993249E+00 
    9.6432442911750424E+00 
    1.3802812791616889E+01 
    1.3791372030922167E+01 
    7.2662965754244144E+00 
    1.4668751591224808E+01 
    1.0759861103941271E+01 
    1.3824198600971222E+01 
    1.4648550708242309E+01 
    1.3811790786411006E+01 
    1.2873537233953527E+01 
    1.5571837202160198E+01 
    9.5789168831335978E+00 
    1.4753353072698676E+01 
    1.3851164161781023E+01 
    1.4824438257678967E+01 
    1.4661287916376418E+01 
    9.6692383415424477E+00 
    1.0043545125952079E+01 
    9.6070159067838734E+00 
    1.2387945021820380E+01 
    4.2478323774648628E+00 
    1.0287426008979331E+01 
    1.5694048805787819E+01 
    1.0452106470323505E+01 
    1.0637514275211482E+01 
    1.4797757102109783E+01 
    1.5027586195106847E+01 
    9.5229273125618743E+00 
    1.3816760419938362E+01 
    1.3787927377180567E+01 
    1.0625258747150804E+01 
    1.4616490279573185E+01 
    7.2448816338075179E+00 
    4.6560258072777838E+00 
    1.0902998086245510E+01 
    1.0467095647377073E+01 
    1.3793106022912262E+01 
    6.8381221555902423E+00 
    1.4343606124385344E+01 
    4.7444980483325248E+00 
    1.0399691133923493E+01 
    9.7125650267047643E+00 
    1.0196413028083064E+01 
    1.6952127163980322E+01 
    4.1318149049007280E+00 
    1.0207690637432167E+01 
    1.2128618169015716E+01 
    9.7981463138648461E+00 
    7.9735770129800487E+00 
    1.4450993597883894E+01 
    1.6533414160107924E+01 
    1.4603977746264860E+01 
    1.0151416036348470E+01 
    6.0916795492033451E+00 
    1.6384740959077263E+01 
    1.4078590320463986E+01 
    7.6332173910309722E+00 
    9.7996661045098090E+00 
    1.5203709069387243E+01 
    3.5058787767878221E+00 
    1.0516237293604808E+01 
    1.4585606983174221E+01 
    1.0209921334107898E+01 
    8.8894615297720918E+00 
    1.0246033828140870E+01 
    1.3568826999616206E+01 
    1.0190985769013128E+01 
    5.4478068647247557E+00 
    9.9485857820609214E-01 
    7.6021175747934189E+00 
    1.5415782667783452E+01 
    9.6052339259670472E+00 
    1.1445329627529981E+01 
    1.0959715540523613E+01 
    1.2652488210809926E+01 
    1.0223421974375059E+01 
    1.3989714561812489E+01 
    1.6965925507047810E+01 
    1.2075208237178742E+01 
    1.4726010586577322E+01 
    5.8044717881580488E-01 
    1.3793264670655219E+01 
    6.0061790259563468E+00 
    1.5857551056990244E+01 
    1.0220823864953706E+01 
    9.0379722519126222E+00 
    8.0218798539813747E+00 
    5.6772683248928182E+00 
    1.1403117044214300E+01 
    8.0484516131302470E+00 
    1.2539570236407293E+01 
    2.3150070790356754E+00 
    1.1224741047436092E+01 
    1.3726887719938322E+01 
    6.1769194732100239E+00 
    1.4272351966675988E+01 
    1.5675751837088278E+01 
    1.4105507143697386E+01 
    1.0093994110270662E+01 
    1.0191084590483523E+01 
    1.0213791493887788E+01 
    6.1503277093426343E+00 
    9.3578663497696848E+00 
    9.2165530825677635E+00 
    1.0203249436590216E+01 
    9.5463790645169837E+00 
    7.4641172650832077E-01 
    6.8366197542630189E+00 
    9.9125298033029310E+00 
    1.0179629581278739E+01 
    1.2878310926981060E+01 
    2.2977888127959174E+00 
    1.0585490357816287E+01 
    1.0471484918559339E+01 
    3.9698786372251162E+00 
    1.3974431621547778E+01 
    8.9282389148294019E+00 
    1.0327601569776631E+01 
    1.4080207132735669E+01 
    5.7249045039388031E+00 
    1.4091122724070226E+01 
    9.0300806256117383E+00 
    1.0483201145558148E+00 
    9.6626904674672716E+00 
    1.4680497683277691E+01 
    1.3793455510519911E+01 
    1.3812561557534464E+01 
    1.0546006148731848E+01 
    1.0402952760030423E+01 
    8.9092494538400633E+00 
    7.3524523637150674E+00 
    1.4197779333318453E+01 
    9.7969985717150010E+00 
    7.1440588742829085E+00 
    1.3807452242587123E+01 
    1.4494111630441397E+01 
    1.0369264785803006E+01 
    9.9963286771022446E+00 
    1.6849739228124136E+01 
    1.0626123757160320E+01 
    1.4204140293796266E+01 
    8.5102083986128747E+00 
    1.6993877374720942E+01 
    6.7640073000816940E+00 
    9.2864142292785630E+00 
    7.5457312827914471E+00 
    1.0853364932983459E+01 
    8.6622937111817002E+00 
    1.6977830104438542E+01 
    1.0673379435693695E+01 
    1.3507206235926240E+01 
    6.9552436861397453E+00 
    1.0219725595744499E+01 
    1.4043459169946997E+01 
    8.6764767971856891E+00 
    7.6124423484154615E+00 
    1.1294387850536857E+01 
    1.4263922746843896E+01 
    7.4509542416515302E+00 
    9.7313194695622141E+00 
    1.0027264487726210E+01 
    1.3769396404184651E+01 
    9.8236115686458323E+00 
    1.4240617281294103E+01 
    1.4852878450937380E+01 
    8.9339341658123779E+00 
    8.7755770958035164E+00 
    8.0796931410469082E+00 
    1.3912838444814813E+01 
    1.0487358687698380E+01 
    1.6569297437844529E+01 
    1.3031518259298904E+01 
    1.4005284728355823E+01 
    1.6262330684528287E+01 
    1.5678216297249746E+01 
    1.0266625785434224E+01 
    1.0188923484579272E+01 
    1.3558495530954149E+01 
    1.3830219496876664E+01 
    1.4376876514893254E+01 
    1.4101296699354734E+01 
    1.6869793959440212E+01 
    1.0625665635241690E+01 
    9.0284272715013056E+00 
    1.0633809403505625E+01 
    1.4767520487373925E+01 
    1.0365305791449719E+01 
    6.1011344096860505E+00 
    1.0078871225504827E+01 
    1.5177823289286774E+01 
    1.0506932161127652E+01 
    9.0331017653792571E+00 
    9.9673927104034465E+00 
    1.5281822729311259E+01 
    1.3846680192388838E+01 
    8.6376474603819542E+00 
    1.5416211961029333E+01 
    1.0296060263509705E+01 
    1.4344923287450417E+01 
    1.5295472252834516E+01 
    1.0785591487744366E+01 
    5.7402213666064377E+00 
    1.1245822987251733E+01 
    5.9271071271752298E+00 
    1.0421219678219167E+01 
    1.0211923236812344E+01 
    1.1833796608347853E+01 
    6.2351237892273250E+00 
    1.2548834781341126E+01 
    1.0231852527282530E+01 
    1.4090107559867981E+01 
    1.0813107965434968E+01 
    8.4674570474675139E+00 
    9.8397111286769405E+00 
    1.0694963146515589E+01 
    1.0728378101934402E+01 
    1.4911380926031876E+01 
    8.6682623926873035E+00 
    8.5307188225529593E+00 
    6.5264873547557558E+00 
    1.4395467431745452E+01 
    9.8819119603389218E+00 
    1.3649143632991821E+01 
    1.0181968525902610E+01 
    7.0832784667773305E+00 
    1.3881282139367089E+01 
    1.0157139295234408E+01 
    7.6659878606775633E+00 
    8.0798729407414296E+00 
    8.3395581052590959E+00 
    1.4124218186541087E+01 
    1.0205140358081497E+01 
    1.4737099473458969E+01 
    1.0115375264911053E+01 
    1.0052642776294860E+01 
    9.6544737331286559E+00 
    1.3962648706805034E+01 
    9.9682188593038834E+00 
    8.3784484492600519E+00 
    1.5665086749022219E+01 
    1.4044145570973027E+01 
    7.0808637649871216E+00 
    2.9060652573606007E+00 
    1.0194966465955350E+01 
    9.5627690047009768E+00 
    8.7724619260870309E+00 
    9.4712894758197219E+00 
    1.3992055136477706E+01 
    9.9209839200748799E+00 
    9.0760229978294724E+00 
    1.3852081942174737E+01 
    7.0204882846112326E+00 
    1.3520809814338952E+01 
    9.2333848331653261E+00 
    8.3448392941357188E+00 
    8.8464226585690273E+00 
    1.4428399922013046E+01 
    1.0199379924971264E+01 
    1.0207532150332469E+01 
    6.3113428984531303E+00 
    6.7744033047496668E+00 
    1.2875645949403889E+01 
    1.0217419075500004E+01 
    1.0233311489773815E+01 
    1.5400621963845730E+01 
    8.5274448206411559E+00 
    1.0229832119790899E+01 
    7.2611574793465739E+00 
    7.4929662255101537E+00 
    1.3961219846213311E+01 
    9.8537788626046279E+00 
    7.4054151179877037E+00 
    1.0777621931839057E+01 
    1.0102908734929777E+01 
    1.3962445204384156E+01 
    1.5491060998787242E+01 
    1.1118182877985494E+00 
    1.0199609189603434E+01 
    1.0465066433210536E+01 
    1.4022132905178951E+01 
    9.7289576648163418E+00 
    1.0172920735266111E+01 
    1.4973668260469578E+01 
    8.8758383551396065E+00 
    7.4659728073372591E+00 
    1.2266416839638039E+01 
    1.3806952122308360E+01 
    1.4824366573965268E+01 
    1.5080585986256891E+01 
    1.0050628185496222E+01 
    1.0191760335388691E+01 
    1.1470521739152108E+01 
    6.7438302672983799E+00 
    1.3931623974642962E+01 
    7.9947590247949663E+00 
    7.0100490451519644E+00 
    1.2751209198837822E+01 
    1.2027967796845168E+01 
    6.8787537216183336E+00 
    1.3842735839282398E+01 
    1.4809877799053572E+01 
    1.0641205066945011E+01 
    1.5589774750498345E+01 
    1.3875664529986572E+01 
    9.7969086657023592E+00 
    1.4549956925390795E+01 
    7.4931408145260683E+00 
    1.3824790024698080E+01 
    1.0198700467022983E+01 
    1.0161201221316130E+01 
    1.5566093363373573E+01 
    9.9166559339556279E+00 
    1.2493661375448280E+01 
    8.8277520399166622E+00 
    1.4924911318179792E+01 
    1.3733341837001271E+01 
    9.1756177219874786E+00 
    1.3783272587017883E+01 
    9.2259802461810789E+00 
    1.0182210233018660E+01 
    1.4769789942595960E+01 
    1.4103697320513882E+01 
    1.4813174979332059E+01 
    1.4026317713516713E+01 
    9.3680716873148153E+00 
    9.5728420283989042E+00 
    1.4819644371682617E+01 
    9.6881771161255639E+00 
    1.3663211187335765E+01 
    9.9043793440759220E+00 
    4.2920927371036059E+00 
    7.0765175242658040E+00 
    6.5641866285703729E+00 
    1.4773073777563319E+01 
    1.5496884225489190E+01 
    1.3801126627310925E+01 
    1.1737661765861999E+01 
    1.4089227580455686E+01 
    1.3849089276213233E+01 
    1.4425803552284693E+01 
    6.1134109932586593E+00 
    3.9949094653485697E+00 
    1.1528079503616924E+01 
    9.8775048343311109E+00 
    1.3993860604694733E+01 
    1.3991524630733155E+01 
    1.0490562889475292E+01 
    1.4027878781803965E+01 
    1.0186419634482327E+01 
    1.0095608670619104E+01 
    5.5381912793469139E+00 
    3.9775338403980673E+00 
    1.5277134185462234E+01 
    7.9586424251829495E+00 
    9.1119122601850506E+00 
    1.0378476931302501E+01 
    1.6850949468548027E+01 
    1.0474426528084534E+01 
    1.0473797313467518E+01 
    4.5191245691133686E+00 
    1.0476047297531139E+01 
    1.0490706928820451E+01 
    1.4312234612099536E+01 
    8.8528658573626586E+00 
    9.7540075327285436E+00 
    1.5442714760581412E+01 
    1.0207472231520262E+01 
    1.3816945401617200E+01 
    1.4066431114714604E+01 
    1.2497079413749809E+01 
    8.6544394203347359E+00 
    1.4027098638850735E+01 
    1.0010416917191886E+01 
    1.3991179078531626E+01 
    1.3756010652420423E+01 
    1.4792210218532393E+01 
    1.4021170438978002E+01 
    1.3161690875514131E+01 
    1.0196917042695343E+01 
    6.8213833834929494E+00 
    1.6727514714752246E+01 
    8.1482459032957983E+00 
    1.4714870961218786E+01 
    1.0194441300505469E+01 
    8.5768879369419082E+00 
    5.2222481241614487E+00 
    1.0528808893652936E+01 
    1.4012340866946420E+01 
    1.4011695417733804E+01 
    1.0162806709085933E+01 
    1.0188868611725058E+01 
    1.5646221114593491E+01 
    1.5024869886400518E+01 
    1.0492809497339083E+01 
    3.7138852250276977E+00 
    1.3114860440011027E+01 
    1.6975866456243317E+01 
    1.0200089637043629E+01 
    1.2105667131492526E+01 
    9.7265871808873570E+00 
    1.6589137511770954E+01 
    1.5104599174918434E+01 
    1.4868115876969680E+01 
    1.0514412268195617E+01 
    4.8434537104707678E+00 
    9.6879888179303766E+00 
    9.7497140971138538E+00 
    9.7917001432212878E+00 
    4.0420631431394867E+00 