# vtk DataFile Version 2.0
Pressure Field Data 
ASCII 
DATASET UNSTRUCTURED_GRID 

POINTS 2860 double 

    0.0000000000000000E+00     0.0000000000000000E+00     0.0000000000000000E+00 
    1.0000000000000000E+00     0.0000000000000000E+00     0.0000000000000000E+00 
    1.0000000000000000E+00     1.0000000000000000E+00     0.0000000000000000E+00 
    0.0000000000000000E+00     1.0000000000000000E+00     0.0000000000000000E+00 
    2.5000000000000000E-01     2.5000000000000000E-01     0.0000000000000000E+00 
    7.5000000000000000E-01     2.5000000000000000E-01     0.0000000000000000E+00 
    7.5000000000000000E-01     7.5000000000000000E-01     0.0000000000000000E+00 
    2.5000000000000000E-01     7.5000000000000000E-01     0.0000000000000000E+00 
    3.1249999999942091E-02     0.0000000000000000E+00     0.0000000000000000E+00 
    6.2499999999873469E-02     0.0000000000000000E+00     0.0000000000000000E+00 
    9.3749999999826514E-02     0.0000000000000000E+00     0.0000000000000000E+00 
    1.2499999999977961E-01     0.0000000000000000E+00     0.0000000000000000E+00 
    1.5624999999968961E-01     0.0000000000000000E+00     0.0000000000000000E+00 
    1.8749999999959971E-01     0.0000000000000000E+00     0.0000000000000000E+00 
    2.1874999999950970E-01     0.0000000000000000E+00     0.0000000000000000E+00 
    2.4999999999941969E-01     0.0000000000000000E+00     0.0000000000000000E+00 
    2.8124999999932920E-01     0.0000000000000000E+00     0.0000000000000000E+00 
    3.1249999999923850E-01     0.0000000000000000E+00     0.0000000000000000E+00 
    3.4374999999914790E-01     0.0000000000000000E+00     0.0000000000000000E+00 
    3.7499999999905720E-01     0.0000000000000000E+00     0.0000000000000000E+00 
    4.0624999999896660E-01     0.0000000000000000E+00     0.0000000000000000E+00 
    4.3749999999887590E-01     0.0000000000000000E+00     0.0000000000000000E+00 
    4.6874999999878530E-01     0.0000000000000000E+00     0.0000000000000000E+00 
    4.9999999999869471E-01     0.0000000000000000E+00     0.0000000000000000E+00 
    5.3124999999877620E-01     0.0000000000000000E+00     0.0000000000000000E+00 
    5.6249999999885780E-01     0.0000000000000000E+00     0.0000000000000000E+00 
    5.9374999999893940E-01     0.0000000000000000E+00     0.0000000000000000E+00 
    6.2499999999902101E-01     0.0000000000000000E+00     0.0000000000000000E+00 
    6.5624999999910261E-01     0.0000000000000000E+00     0.0000000000000000E+00 
    6.8749999999918421E-01     0.0000000000000000E+00     0.0000000000000000E+00 
    7.1874999999926570E-01     0.0000000000000000E+00     0.0000000000000000E+00 
    7.4999999999934730E-01     0.0000000000000000E+00     0.0000000000000000E+00 
    7.8124999999942890E-01     0.0000000000000000E+00     0.0000000000000000E+00 
    8.1249999999951039E-01     0.0000000000000000E+00     0.0000000000000000E+00 
    8.4374999999959199E-01     0.0000000000000000E+00     0.0000000000000000E+00 
    8.7499999999967359E-01     0.0000000000000000E+00     0.0000000000000000E+00 
    9.0624999999975520E-01     0.0000000000000000E+00     0.0000000000000000E+00 
    9.3749999999983680E-01     0.0000000000000000E+00     0.0000000000000000E+00 
    9.6874999999991840E-01     0.0000000000000000E+00     0.0000000000000000E+00 
    1.0000000000000000E+00     3.1249999999942091E-02     0.0000000000000000E+00 
    1.0000000000000000E+00     6.2499999999873469E-02     0.0000000000000000E+00 
    1.0000000000000000E+00     9.3749999999826514E-02     0.0000000000000000E+00 
    1.0000000000000000E+00     1.2499999999977961E-01     0.0000000000000000E+00 
    1.0000000000000000E+00     1.5624999999968961E-01     0.0000000000000000E+00 
    1.0000000000000000E+00     1.8749999999959971E-01     0.0000000000000000E+00 
    1.0000000000000000E+00     2.1874999999950970E-01     0.0000000000000000E+00 
    1.0000000000000000E+00     2.4999999999941969E-01     0.0000000000000000E+00 
    1.0000000000000000E+00     2.8124999999932920E-01     0.0000000000000000E+00 
    1.0000000000000000E+00     3.1249999999923850E-01     0.0000000000000000E+00 
    1.0000000000000000E+00     3.4374999999914790E-01     0.0000000000000000E+00 
    1.0000000000000000E+00     3.7499999999905720E-01     0.0000000000000000E+00 
    1.0000000000000000E+00     4.0624999999896660E-01     0.0000000000000000E+00 
    1.0000000000000000E+00     4.3749999999887590E-01     0.0000000000000000E+00 
    1.0000000000000000E+00     4.6874999999878530E-01     0.0000000000000000E+00 
    1.0000000000000000E+00     4.9999999999869471E-01     0.0000000000000000E+00 
    1.0000000000000000E+00     5.3124999999877620E-01     0.0000000000000000E+00 
    1.0000000000000000E+00     5.6249999999885780E-01     0.0000000000000000E+00 
    1.0000000000000000E+00     5.9374999999893940E-01     0.0000000000000000E+00 
    1.0000000000000000E+00     6.2499999999902101E-01     0.0000000000000000E+00 
    1.0000000000000000E+00     6.5624999999910261E-01     0.0000000000000000E+00 
    1.0000000000000000E+00     6.8749999999918421E-01     0.0000000000000000E+00 
    1.0000000000000000E+00     7.1874999999926570E-01     0.0000000000000000E+00 
    1.0000000000000000E+00     7.4999999999934730E-01     0.0000000000000000E+00 
    1.0000000000000000E+00     7.8124999999942890E-01     0.0000000000000000E+00 
    1.0000000000000000E+00     8.1249999999951039E-01     0.0000000000000000E+00 
    1.0000000000000000E+00     8.4374999999959199E-01     0.0000000000000000E+00 
    1.0000000000000000E+00     8.7499999999967359E-01     0.0000000000000000E+00 
    1.0000000000000000E+00     9.0624999999975520E-01     0.0000000000000000E+00 
    1.0000000000000000E+00     9.3749999999983680E-01     0.0000000000000000E+00 
    1.0000000000000000E+00     9.6874999999991840E-01     0.0000000000000000E+00 
    9.6875000000003686E-01     1.0000000000000000E+00     0.0000000000000000E+00 
    9.3750000000011691E-01     1.0000000000000000E+00     0.0000000000000000E+00 
    9.0625000000015765E-01     1.0000000000000000E+00     0.0000000000000000E+00 
    8.7500000000017863E-01     1.0000000000000000E+00     0.0000000000000000E+00 
    8.4375000000028044E-01     1.0000000000000000E+00     0.0000000000000000E+00 
    8.1250000000040856E-01     1.0000000000000000E+00     0.0000000000000000E+00 
    7.8125000000054956E-01     1.0000000000000000E+00     0.0000000000000000E+00 
    7.5000000000066480E-01     1.0000000000000000E+00     0.0000000000000000E+00 
    7.1875000000086831E-01     1.0000000000000000E+00     0.0000000000000000E+00 
    6.8750000000102829E-01     1.0000000000000000E+00     0.0000000000000000E+00 
    6.5625000000114431E-01     1.0000000000000000E+00     0.0000000000000000E+00 
    6.2500000000129829E-01     1.0000000000000000E+00     0.0000000000000000E+00 
    5.9375000000147926E-01     1.0000000000000000E+00     0.0000000000000000E+00 
    5.6250000000168354E-01     1.0000000000000000E+00     0.0000000000000000E+00 
    5.3125000000188671E-01     1.0000000000000000E+00     0.0000000000000000E+00 
    5.0000000000205835E-01     1.0000000000000000E+00     0.0000000000000000E+00 
    4.6875000000192979E-01     1.0000000000000000E+00     0.0000000000000000E+00 
    4.3750000000180111E-01     1.0000000000000000E+00     0.0000000000000000E+00 
    4.0625000000167238E-01     1.0000000000000000E+00     0.0000000000000000E+00 
    3.7500000000154382E-01     1.0000000000000000E+00     0.0000000000000000E+00 
    3.4375000000141509E-01     1.0000000000000000E+00     0.0000000000000000E+00 
    3.1250000000128642E-01     1.0000000000000000E+00     0.0000000000000000E+00 
    2.8125000000115769E-01     1.0000000000000000E+00     0.0000000000000000E+00 
    2.5000000000102918E-01     1.0000000000000000E+00     0.0000000000000000E+00 
    2.1875000000090050E-01     1.0000000000000000E+00     0.0000000000000000E+00 
    1.8750000000077180E-01     1.0000000000000000E+00     0.0000000000000000E+00 
    1.5625000000064329E-01     1.0000000000000000E+00     0.0000000000000000E+00 
    1.2500000000051459E-01     1.0000000000000000E+00     0.0000000000000000E+00 
    9.3750000000385914E-02     1.0000000000000000E+00     0.0000000000000000E+00 
    6.2500000000257239E-02     1.0000000000000000E+00     0.0000000000000000E+00 
    3.1250000000128557E-02     1.0000000000000000E+00     0.0000000000000000E+00 
    0.0000000000000000E+00     9.6875000000003686E-01     0.0000000000000000E+00 
    0.0000000000000000E+00     9.3750000000011691E-01     0.0000000000000000E+00 
    0.0000000000000000E+00     9.0625000000015765E-01     0.0000000000000000E+00 
    0.0000000000000000E+00     8.7500000000017863E-01     0.0000000000000000E+00 
    0.0000000000000000E+00     8.4375000000028044E-01     0.0000000000000000E+00 
    0.0000000000000000E+00     8.1250000000040856E-01     0.0000000000000000E+00 
    0.0000000000000000E+00     7.8125000000054956E-01     0.0000000000000000E+00 
    0.0000000000000000E+00     7.5000000000066480E-01     0.0000000000000000E+00 
    0.0000000000000000E+00     7.1875000000086831E-01     0.0000000000000000E+00 
    0.0000000000000000E+00     6.8750000000102829E-01     0.0000000000000000E+00 
    0.0000000000000000E+00     6.5625000000114431E-01     0.0000000000000000E+00 
    0.0000000000000000E+00     6.2500000000129829E-01     0.0000000000000000E+00 
    0.0000000000000000E+00     5.9375000000147926E-01     0.0000000000000000E+00 
    0.0000000000000000E+00     5.6250000000168354E-01     0.0000000000000000E+00 
    0.0000000000000000E+00     5.3125000000188671E-01     0.0000000000000000E+00 
    0.0000000000000000E+00     5.0000000000205835E-01     0.0000000000000000E+00 
    0.0000000000000000E+00     4.6875000000192979E-01     0.0000000000000000E+00 
    0.0000000000000000E+00     4.3750000000180111E-01     0.0000000000000000E+00 
    0.0000000000000000E+00     4.0625000000167238E-01     0.0000000000000000E+00 
[...]
CELL_DATA 2795 
SCALARS Pressure double 1 
LOOKUP_TABLE default 

    8.0965759014650533E+00 
    1.9293772736478051E+01 
    1.3302247699516839E+01 
    1.2980650748560057E+01 
    1.0167021861205621E+01 
    1.9045036884507461E+01 
    2.0159539119519533E+01 
    7.1268047969629817E+00 
    1.3885197219380334E+01 
    1.0492543130003224E+01 
    8.8242395150777391E+00 
    1.8604784783281517E+01 
    1.9081081587076781E+01 
    1.8987803552582154E+01 
    1.2213433948763607E+01 
    6.9895675656926901E+00 
    1.1924481091098492E+01 
    9.4430778856309576E+00 
    1.8015059762227882E+01 
    1.3279802357316504E+01 
    1.3171512051212432E+01 
    1.8872155362706827E+01 
    1.2625337703341486E+01 
    4.4741184297072878E-01 
    1.8562258593555978E+01 
    1.9110941472768946E+01 
    2.0209722002135003E+01 
    8.4590956649114801E+00 
    1.8470878986193572E+01 
    2.0186971191311265E+01 
    1.3514276543149055E+01 
    1.3493503394173983E+01 
    9.1995493384367908E+00 
    1.3263706971482808E+01 
    4.0530781722998546E+00 
    1.1933521669762843E+01 
    1.3247126766026641E+01 
    2.0241650779078821E+01 
    2.0132788973466813E+01 
    1.8626143556655297E+01 
    1.0036281116666890E+01 
    1.8645357587163065E+01 
    9.2903199351096610E-01 
    1.3270666754653282E+01 
    1.9812435326081847E+01 
    1.9494856692088707E+01 
    1.8587415078617827E+01 
    1.4327255936122315E+01 
    1.8640058961097388E+01 
    1.2187201527365724E+01 
    1.1617787611376583E+01 
    1.3453984100398706E+01 
    1.3155791742124627E+01 
    1.1980106503528837E+01 
    1.3598829844042502E+01 
    1.7689686228135670E+01 
    1.5596971679038424E+01 
    1.0229160606754967E+01 
    1.8887600307771006E+01 
    1.8736618230619595E+01 
    1.2924856952346579E+01 
    1.2774726148377635E+01 
    1.2856768340261215E+01 
    2.0048358902568840E+01 
    2.0380140597493700E+01 
    1.1932520146350402E+01 
    1.3451991724887250E+01 
    1.8301454501980935E+01 
    1.5405094323082889E+01 
    1.2857493742146305E+01 
    2.0422354126565079E+01 
    1.8813127367629509E+01 
    1.1775821111714848E+01 
    1.9640804483369376E+01 
    1.3891453580279524E+01 
    1.8396443440955892E+01 
    2.0267255564584026E+01 
    1.3931085606284707E+01 
    8.1797921025672071E+00 
    1.3472267146895941E+01 
    2.0138957203831982E+01 
    2.0459645535958575E+01 
    1.1954461635298934E+01 
    1.3395198655271923E+01 
    2.0533886190896730E+01 
    1.3244075048144506E+01 
    1.2742962295507022E+01 
    1.5983042314724855E+01 
    7.8053895668829112E+00 
    1.1653245744810274E+01 
    1.3391463496750863E+01 
    1.4051909798216782E+01 
    2.2361697446062553E+01 
    9.8501344600479666E+00 
    1.3460722675437079E+01 
    1.8556066281094282E+01 
    1.8993054195867103E+01 
    8.5489900561112222E+00 
    1.3091513733580005E+01 
    1.3428286451437511E+01 
    1.9034925326967880E+01 
    1.3414873359818877E+01 
    1.8915109334802619E+01 
    4.8690576439199935E+00 
    8.5680644925038987E+00 
    1.3703721365587993E+01 
    1.9311641003365654E+01 
    1.1893465627836250E+01 
    1.2619290753696642E+01 
    1.3387106775247132E+01 
    1.2701750740375195E+01 
    1.5144558574165607E+01 
    1.2269014455714782E+01 
    1.1786927216258416E+01 
    8.9775149190896286E+00 
    1.5981729035029334E+01 
    1.3499173689747645E+01 
    1.9926394729128276E+01 
    1.1472013388489589E+01 
    1.2953685365179904E+01 
    1.8824680653582902E+01 
    1.0687253351710533E+01 
    1.9531338004198190E+01 
    1.3320543146484576E+01 
    1.2867651328305023E+01 
    1.9004702966019849E+01 
    1.3486055261020182E+01 
    2.0285975215150557E+01 
    1.6014147415589161E+01 
    1.7436796183712257E+01 
    2.0233292311789402E+01 
    9.8716400869668526E+00 
    1.3725833296299616E+01 
    1.9060859107428758E+01 
    3.6032960971530987E+00 
    1.3572272424206268E+01 
    2.0186274398064683E+01 
    1.2899757960294593E+01 
    1.4799323401357267E+01 
    8.4136610105073881E+00 
    1.8570796396295876E+01 
    2.2928070353585444E+01 
    1.6678117557664812E+01 
    1.2903574026755978E+01 
    1.1504652823492451E+01 
    1.4398617478982125E+01 
    1.3338694258743182E+01 
    8.9173162242115929E+00 
    2.0228900844449395E+01 
    1.9068290123737633E+01 
    1.8559923992407480E+01 
    1.4052390696456163E+01 
    1.1723567774532983E+01 
    1.3164960241082323E+01 
    1.9678389492294741E+01 
    1.2082507407260630E+01 
    1.3468001311275399E+01 
    1.2303724598649040E+01 
    1.5753191985426765E+01 
    2.2914801397423965E+01 
    1.8540844112550005E+01 
    1.1544751058252947E+01 
    1.9310228215736608E+01 
    1.9246578101577846E+01 
    1.9370018193002686E+01 
    2.0805126294222084E+01 
    2.1510834473226339E+01 
    1.9463514704070118E+01 
    1.3442714549284457E+01 
    1.4570036404557271E+01 
    1.9203112222691896E+01 
    1.9922245341153801E+01 
    9.3313761520343892E+00 
    1.8583264793392072E+01 
    1.9613433480002886E+01 
    9.0712801519312070E+00 
    2.0713440576869530E+01 
    2.0662354435689714E+01 
    1.8115878927662664E+01 
    1.3806094618313599E+01 
    3.3583159115819279E+00 
    2.0185194226651060E+01 
    1.3634549218134971E+01 
    2.0352570758082141E+01 
    1.2807519741044157E+01 
    1.9864050408676444E+01 
    1.1649782424576456E+00 
    1.7431503171307252E+01 
    1.2830201694069054E+01 
    1.1677595797290428E+01 
    1.1357050530955410E+01 
    1.3285287265063122E+01 
    1.4658410836730591E+01 
    1.4009085807043650E+01 
    9.0883124263531379E+00 
    1.9927113613215386E+01 
    1.9112256388681580E+01 
    1.5558212706225135E+01 
    1.3693385153908984E+01 
    1.8113953320625615E+00 
    1.0380055743962416E+01 
    6.8833287534586329E+00 
    2.0201402118273826E+01 
    1.4988959852822855E+01 
    1.9076973290396552E+01 
    1.9209671228978948E+01 
    1.2170460989951483E+01 
    1.5665466181601273E+01 
    1.8539148179712232E+01 
    2.0640200660168077E+01 
    8.4086422696770260E+00 
    1.6711811624360042E+01 
    1.3971005193063640E+01 
    7.3907990204667469E+00 
    1.2178477082113588E+01 
    1.6397794094268548E+01 
    1.9152820812029976E+01 
    1.3339412707927099E+01 
    1.9332333318797740E+01 
    1.8952475418151739E+01 
    1.8882016068977173E+01 
    1.3167533344824605E+01 
    1.1523423591690987E+01 
    1.8574713856589220E+01 
    1.1762395985852470E+01 
    1.3425563537893584E+01 
    1.1523977851509958E+01 
    1.3412234244762628E+01 
    1.9218980031119511E+01 
    8.0627294230507101E+00 
    1.2056313931133376E+01 
    2.0084195182611595E+01 
    1.3174147701421667E+01 
    1.4858341679459842E+01 
    8.2712371143193497E+00 
    1.1858670974811597E+01 
    1.8915901541558124E+01 
    1.9418634965853819E+01 
    6.7454356193511158E+00 
    1.3192125531853561E+01 
    1.1548553567754677E+01 
    2.1218348233838491E+01 
    2.0475031921008430E+01 
    2.1554236857382271E+01 
    1.3213646613155673E+01 
    1.9183098693549841E+01 
    1.8455308080114360E+01 
    1.3049988048846604E+01 
    1.8557271744918939E+01 
    1.3693747101859957E+01 
    7.4690235896866151E+00 
    1.3633173215801039E+01 
    2.0063819442053124E+01 
    1.8551132828848161E+01 
    8.7703927407339499E+00 
    1.8596693154880636E+01 
    1.4693472867488927E+01 
    1.3545686317995649E+01 
    1.2989291238352017E+01 
    1.8328648867329683E+01 
    1.4195804695723908E+01 
    1.8580293123543647E+01 
    1.3194758927254341E+01 
    7.7216475065047812E+00 
    1.3510649508375247E+01 
    1.1364284391417179E+01 
    1.6708249621444619E+01 
    2.0355977280349144E+01 
    1.8577026751900675E+01 
    2.0175836886966870E+01 
    1.3105208092773422E+01 
    8.5407878630820182E+00 
    8.6682980865545360E+00 
    1.3779933531455862E+01 
    1.3392759560828473E+01 
    1.8352341672839667E+00 
    1.7735836527539256E+01 
    2.0851257526648084E+01 
    1.2830660196196899E+01 
    7.8562899294799733E+00 
    1.5480580548323989E+01 
    1.8589811572854643E+01 
    9.5124248388697676E+00 
    6.1754727757704391E+00 
    1.3378957744713635E+01 
    1.8728568292222455E+01 
    1.9800543277210178E+01 
    1.9505337180891683E+01 
    1.9427138137920839E+01 
    9.2237172599534496E+00 
    1.3540715258715959E+01 
    1.7989587988669967E+01 
    1.0284504266483076E+01 
    1.9059091779014381E+01 
    1.5961844613112062E+01 
    8.7988508985559761E+00 
    1.8720789666717813E+01 
    2.0195778154003786E+01 
    1.8755501092394979E+01 
    9.1292516512628090E+00 
    1.3447563483954688E+01 
    1.0132754884182706E+01 
    1.2647033903327067E+01 
    1.8580387990718254E+01 
    1.8562956928144352E+01 
    9.1892957329124805E+00 
    1.9928999869175556E+01 
    1.4110986236733233E+01 
    1.8638133298669562E+01 
    1.9962232904198750E+01 
    1.8607862284207172E+01 
    1.7017850990187434E+01 
    2.1313095070858015E+01 
    1.2755309168812056E+01 
    2.0132825253162665E+01 
    1.8663870488365085E+01 
    2.0237545467967077E+01 
    1.9918313495603709E+01 
    1.2889888889098325E+01 
    1.3289815245034177E+01 
    1.2820118906731324E+01 
    1.6286777520578823E+01 
    4.8994453522137906E+00 
    1.3699413084966533E+01 
    2.1459955618229522E+01 
    1.3700009878853281E+01 
    1.3945970102569790E+01 
    2.0196968178702782E+01 
    2.0507820797164452E+01 
    1.2615871892166259E+01 
    1.8602413389834027E+01 
    1.8563097463478286E+01 
    1.3929356727744116E+01 
    1.9846139139942483E+01 
    9.2672970365996559E+00 
    5.8677319737099971E+00 
    1.4303642368000473E+01 
    1.3715051184569674E+01 
    1.8555284187931729E+01 
    8.5310037388336273E+00 
    1.9395586150150272E+01 
    5.9808105678294714E+00 
    1.3641950018314532E+01 
    1.2889610495784458E+01 
    1.3421981246924915E+01 
    2.2967882456005174E+01 
    4.7392828328379242E+00 
    1.3594031325638641E+01 
    1.6323260253487902E+01 
    1.2982082851483804E+01 
    1.0122509095737039E+01 
    1.9668337135892493E+01 
    2.2469155901078963E+01 
    1.9833265723999538E+01 
    1.3515303327821183E+01 
    7.3595437137779891E+00 
    2.2305615205017801E+01 
    1.9079019494209504E+01 
    9.5478065645057466E+00 
    1.3089769996347105E+01 
    2.0780429355975269E+01 
    4.0047236901342247E+00 
    1.3783441185256120E+01 
    1.9855418948909545E+01 
    1.3439847626531279E+01 
    1.1590321415347830E+01 
    1.3644823706654110E+01 
    1.8095503259404055E+01 
    1.3420824283618957E+01 
    6.4633198753132248E+00 
    1.1519245579849968E+00 
    9.7691136214917442E+00 
    2.1117029123576835E+01 
    1.2820031128494231E+01 
    1.5227413951100621E+01 
    1.4586677401780292E+01 
    1.6758983455171471E+01 
    1.3454722673541292E+01 
    1.8930032300184966E+01 
    2.2983167632327902E+01 
    1.5871812825412118E+01 
    2.0091927008277825E+01 
    6.6999723467986227E-01 
    1.8564164806929526E+01 
    7.1816820807176462E+00 
    2.1663404130447276E+01 
    1.3611434689118953E+01 
    1.1859138893783545E+01 
    1.0356530891445637E+01 
    6.8361877632153751E+00 
    1.4916974918246250E+01 
    1.0418949041186080E+01 
    1.6557357055061999E+01 
    2.8168473937767735E+00 
    1.4743171112637993E+01 
    1.8440036872141064E+01 
    7.8530695431093207E+00 
    1.9259419694249871E+01 
    2.1364009166883847E+01 
    1.9067622424145942E+01 
    1.3433988620764303E+01 
    1.3414743661729741E+01 
    1.3602171111657022E+01 
    7.4838511983517053E+00 
    1.2452097688981034E+01 
    1.2241840526132203E+01 
    1.3588093020892698E+01 
    1.2726380988940962E+01 
    8.5979602193224958E-01 
    8.3297429131551191E+00 
    1.3225247541063251E+01 
    1.3555141543842927E+01 
    1.7059808134198043E+01 
    2.6163120540349070E+00 
    1.3876059764406273E+01 
    1.3724327107580482E+01 
    4.5458666832199484E+00 
    1.8856595770530696E+01 
    1.1771457903356135E+01 
    1.3564254757792297E+01 
    1.9052127214414341E+01 
    6.8637063263415863E+00 
    1.9011114309637055E+01 
    1.1957413313600986E+01 
    1.1785939462904615E+00 
    1.2899109914138354E+01 
    1.9983385596977481E+01 
    1.8570011484817069E+01 
    1.8603680032100932E+01 
    1.4040714694911292E+01 
    1.3645156752689253E+01 
    1.1771223085883978E+01 
    9.1165569375603521E+00 
    1.9206780338442375E+01 
    1.3082491771069972E+01 
    8.8180887499015110E+00 
    1.8593084656842958E+01 
    1.9657969300685284E+01 
    1.3809643986550030E+01 
    1.3228767035152828E+01 
    2.2849181869791604E+01 
    1.3930637960930682E+01 
    1.9275778581672597E+01 
    1.1121209661054031E+01 
    2.3011532685492519E+01 
    8.6175153712400583E+00 
    1.2269307240739865E+01 
    9.7083363130350886E+00 
    1.4238416848399915E+01 
    1.1299790471803602E+01 
    2.2994226340041312E+01 
    1.3994495553646020E+01 
    1.8081641679246378E+01 
    8.8661735104492614E+00 
    1.3448137930618994E+01 
    1.9032910740234321E+01 
    1.1343802101637531E+01 
    9.5500852892950387E+00 
    1.5147639314394212E+01 
    1.9351713396932464E+01 
    9.5697353053108021E+00 
    1.2919607018871096E+01 
    1.3272379181720011E+01 
    1.8527131638579917E+01 
    1.3005643779031612E+01 
    1.9370097907436897E+01 
    2.0278446919342425E+01 
    1.1801946703870369E+01 
    1.1543747069384880E+01 
    1.0453079751883269E+01 
    1.8752728085118950E+01 
    1.3745250534301876E+01 
    2.2512936752259005E+01 
    1.7246127857248254E+01 
    1.8957341841460270E+01 
    2.2152924524335667E+01 
    2.1370490676975095E+01 
    1.3500108322258692E+01 
    1.3568295459087095E+01 
    1.8136604079259474E+01 
    1.8626563394139843E+01 
    1.9462163321436631E+01 
    1.9104318141632753E+01 
    2.2876916451207144E+01 
    1.3929994561606561E+01 
    1.1948612178355384E+01 
    1.3894369237054166E+01 
    2.0152745448377335E+01 
    1.3605479934993982E+01 
    7.6498153922706900E+00 
    1.3412785997448445E+01 
    2.0737688737018701E+01 
    1.3770485552049781E+01 
    1.1960239808316102E+01 
    1.3208537539834509E+01 
    2.0894258718835363E+01 
    1.8747978376141276E+01 
    1.1247873846728975E+01 
    2.1077341511404413E+01 
    1.3531564171411944E+01 
    1.9523765372654310E+01 
    2.0911763973904062E+01 
    1.4339990313496868E+01 
    6.8697270161711765E+00 
    1.4910045180945591E+01 
    7.1321528211049658E+00 
    1.3661013362236309E+01 
    1.3445309545889627E+01 
    1.5717056980994139E+01 
    7.5916889079950360E+00 
    1.6750739184909953E+01 
    1.3462555379394392E+01 
    1.9092927503032840E+01 
    1.4522931832167044E+01 
    1.0855628822950843E+01 
    1.3046283135448476E+01 
    1.4237387768636808E+01 
    1.4067668663319200E+01 
    2.0327294296987411E+01 
    1.1379106569286224E+01 
    1.1161831843942327E+01 
    8.0269331837541671E+00 
    1.9554023141865525E+01 
    1.3099269968386340E+01 
    1.8402283302348142E+01 
    1.3410964043829713E+01 
    8.8647562691281525E+00 
    1.8759155217499796E+01 
    1.3386191788372036E+01 
    9.7731033083478120E+00 
    1.0438363675139835E+01 
    1.0860385990710729E+01 
    1.9131349708779759E+01 
    1.3590665700562509E+01 
    2.0102610660817668E+01 
    1.3344162991196676E+01 
    1.3278395520818577E+01 
    1.2814482235871008E+01 
    1.8885401757026170E+01 
    1.3181811973792099E+01 
    1.0923792695493297E+01 
    2.1359227733031254E+01 
    1.8998355699337900E+01 
    9.0401017848605445E+00 
    3.3021812787601097E+00 
    1.3577389902278760E+01 
    1.2635258034586730E+01 
    1.1543522741093742E+01 
    1.2549319679996810E+01 
    1.8908100305198673E+01 
    1.3193534465246412E+01 
    1.1986860011523280E+01 
    1.8665052442434376E+01 
    8.9595562038648513E+00 
    1.8084941126831517E+01 
    1.2132452265683316E+01 
    1.0736570038556236E+01 
    1.1667311482906220E+01 
    1.9648629207057741E+01 
    1.3424553571143253E+01 
    1.3434171165221857E+01 
    7.7301700795820834E+00 
    8.4365343750594359E+00 
    1.7095859145598524E+01 
    1.3445204253807523E+01 
    1.3628352127041882E+01 
    2.1066071145072602E+01 
    1.1161208368160514E+01 
    1.3458862778827450E+01 
    9.2942017429151136E+00 
    9.6203841433733999E+00 
    1.8827471600387856E+01 
    1.3032192099539529E+01 
    9.4026676726940845E+00 
    1.4054817224199802E+01 
    1.3346304304897350E+01 
    1.8850791054959771E+01 
    2.1185107184707647E+01 
    1.2469031526155496E+00 
    1.3583688419525215E+01 
    1.3713689740633290E+01 
    1.8976859568641110E+01 
    1.2989364414670781E+01 
    1.3393005149440585E+01 
    2.0374393479201427E+01 
    1.1714628197601314E+01 
    9.4938123435114292E+00 
    1.6144409591133822E+01 
    1.8589894518571825E+01 
    2.0233978309558342E+01 
    2.0602033809660821E+01 
    1.3380253296445463E+01 
    1.3572420316387973E+01 
    1.4983108554329830E+01 
    8.5657238256035448E+00 
    1.8813041250905350E+01 
    1.0313462380945612E+01 
    8.9415438313829192E+00 
    1.6799810558521681E+01 
    1.5742817617045398E+01 
    8.7590591458431017E+00 
    1.8647453467962965E+01 
    2.0214273914656530E+01 
    1.3950974455557004E+01 
    2.1318538899435971E+01 
    1.8701447234801091E+01 
    1.3054141469976500E+01 
    1.9750252920853082E+01 
    9.6027743033668536E+00 
    1.8614751297295975E+01 
    1.3582181950356109E+01 
    1.3534483587805052E+01 
    2.1302571403055232E+01 
    1.3150476084512503E+01 
    1.6416596602358588E+01 
    1.1634871607194100E+01 
    2.0382274814147490E+01 
    1.8455913932281039E+01 
    1.2142617524122063E+01 
    1.8565270785517068E+01 
    1.2171108107690179E+01 
    1.3399734208082204E+01 
    2.0156887821036012E+01 
    1.9057359005476595E+01 
    2.0218556592013268E+01 
    1.8978047642986120E+01 
    1.2469474428436847E+01 
    1.2730504861982340E+01 
    2.0229092859465418E+01 
    1.2898617888674057E+01 
    1.8308801400290996E+01 
    1.3125092155975810E+01 
    4.9538526459787260E+00 
    9.0453927878766862E+00 
    8.3580108376220004E+00 
    2.0161267441294395E+01 
    2.1198649625561156E+01 
    1.8585955124202876E+01 
    1.5429650533809536E+01 
    1.9040050261130926E+01 
    1.8661532409240301E+01 
    1.9626361851311803E+01 
    7.4270618073437795E+00 
    4.5835912785752813E+00 
    1.5134345604683388E+01 
    1.3183228431105686E+01 
    1.8924592221819864E+01 
    1.8919420424759693E+01 
    1.3735762544350878E+01 
    1.8982008217936293E+01 
    1.3565039636575380E+01 
    1.3464191571352179E+01 
    6.6200691900516757E+00 
    4.5458246618277292E+00 
    2.0886494502212070E+01 
    1.0256921413899509E+01 
    1.2082814174672862E+01 
    1.3618975006771604E+01 
    2.2852827852440559E+01 
    1.3725106677422861E+01 
    1.3954570002059008E+01 
    5.2802931778469162E+00 
    1.3724908597754530E+01 
    1.3741398769591420E+01 
    1.9310517785118620E+01 
    1.1666384012465199E+01 
    1.2865644074447985E+01 
    2.1118116881654529E+01 
    1.3594351693787456E+01 
    1.8608215776175633E+01 
    1.8958424442482848E+01 
    1.6508141429009484E+01 
    1.1278265031945873E+01 
    1.8972255421165809E+01 
    1.3342657483829580E+01 
    1.8867034472879954E+01 
    1.8503053787272609E+01 
    2.0189131807744232E+01 
    1.8987126772073513E+01 
    1.7466952149903889E+01 
    1.3579656009690078E+01 
    8.6947966782139581E+00 
    2.2709996773714028E+01 
    1.0553360738221217E+01 
    2.0070028953401351E+01 
    1.3576411388029486E+01 
    1.1220362361011247E+01 
    6.2866132938231098E+00 
    1.3784473620080373E+01 
    1.8958176185164394E+01 
    1.8936474206778716E+01 
    1.3376977057424014E+01 
    1.3569133615177895E+01 
    2.1373746640196522E+01 
    2.0523118724039097E+01 
    1.3748785592856851E+01 
    4.2648283959663731E+00 
    1.7344755647193249E+01 
    2.2989753324902935E+01 
    1.3583799142873566E+01 
    1.5945567368083971E+01 
    1.2989092277340847E+01 
    2.2545740788315047E+01 
    2.0640320910319801E+01 
    2.0235293982254468E+01 
    1.3775377110847842E+01 
    5.8877447346724363E+00 
    1.2937216926983064E+01 
    1.3017635910226003E+01 
    1.3064940627552495E+01 
    4.6891080909721365E+00 