# vtk DataFile Version 2.0
Pressure Field Data 
ASCII 
DATASET UNSTRUCTURED_GRID 

POINTS 2860 double 

    0.0000000000000000E+00     0.0000000000000000E+00     0.0000000000000000E+00 
    1.0000000000000000E+00     0.0000000000000000E+00     0.0000000000000000E+00 
    1.0000000000000000E+00     1.0000000000000000E+00     0.0000000000000000E+00 
    0.0000000000000000E+00     1.0000000000000000E+00     0.0000000000000000E+00 
    2.5000000000000000E-01     2.5000000000000000E-01     0.0000000000000000E+00 
    7.5000000000000000E-01     2.5000000000000000E-01     0.0000000000000000E+00 
    7.5000000000000000E-01     7.5000000000000000E-01     0.0000000000000000E+00 
    2.5000000000000000E-01     7.5000000000000000E-01     0.0000000000000000E+00 
    3.1249999999942091E-02     0.0000000000000000E+00     0.0000000000000000E+00 
    6.2499999999873469E-02     0.0000000000000000E+00     0.0000000000000000E+00 
    9.3749999999826514E-02     0.0000000000000000E+00     0.0000000000000000E+00 
    1.2499999999977961E-01     0.0000000000000000E+00     0.0000000000000000E+00 
    1.5624999999968961E-01     0.0000000000000000E+00     0.0000000000000000E+00 
    1.8749999999959971E-01     0.0000000000000000E+00     0.0000000000000000E+00 
    2.1874999999950970E-01     0.0000000000000000E+00     0.0000000000000000E+00 
    2.4999999999941969E-01     0.0000000000000000E+00     0.0000000000000000E+00 
    2.8124999999932920E-01     0.0000000000000000E+00     0.0000000000000000E+00 
    3.1249999999923850E-01     0.0000000000000000E+00     0.0000000000000000E+00 
    3.4374999999914790E-01     0.0000000000000000E+00     0.0000000000000000E+00 
    3.7499999999905720E-01     0.0000000000000000E+00     0.0000000000000000E+00 
    4.0624999999896660E-01     0.0000000000000000E+00     0.0000000000000000E+00 
    4.3749999999887590E-01     0.0000000000000000E+00     0.0000000000000000E+00 
    4.6874999999878530E-01     0.0000000000000000E+00     0.0000000000000000E+00 
    4.9999999999869471E-01     0.0000000000000000E+00     0.0000000000000000E+00 
    5.3124999999877620E-01     0.0000000000000000E+00     0.0000000000000000E+00 
    5.6249999999885780E-01     0.0000000000000000E+00     0.0000000000000000E+00 
    5.9374999999893940E-01     0.0000000000000000E+00     0.0000000000000000E+00 
    6.2499999999902101E-01     0.0000000000000000E+00     0.0000000000000000E+00 
    6.5624999999910261E-01     0.0000000000000000E+00     0.0000000000000000E+00 
    6.8749999999918421E-01     0.0000000000000000E+00     0.0000000000000000E+00 
    7.1874999999926570E-01     0.0000000000000000E+00     0.0000000000000000E+00 
    7.4999999999934730E-01     0.0000000000000000E+00     0.0000000000000000E+00 
    7.8124999999942890E-01     0.0000000000000000E+00     0.0000000000000000E+00 
    8.1249999999951039E-01     0.0000000000000000E+00     0.0000000000000000E+00 
    8.4374999999959199E-01     0.0000000000000000E+00     0.0000000000000000E+00 
    8.7499999999967359E-01     0.0000000000000000E+00     0.0000000000000000E+00 
    9.0624999999975520E-01     0.0000000000000000E+00     0.0000000000000000E+00 
    9.3749999999983680E-01     0.0000000000000000E+00     0.0000000000000000E+00 
    9.6874999999991840E-01     0.0000000000000000E+00     0.0000000000000000E+00 
    1.0000000000000000E+00     3.1249999999942091E-02     0.0000000000000000E+00 
    1.0000000000000000E+00     6.2499999999873469E-02     0.0000000000000000E+00 
    1.0000000000000000E+00     9.3749999999826514E-02     0.0000000000000000E+00 
    1.0000000000000000E+00     1.2499999999977961E-01     0.0000000000000000E+00 
    1.0000000000000000E+00     1.5624999999968961E-01     0.0000000000000000E+00 
    1.0000000000000000E+00     1.8749999999959971E-01     0.0000000000000000E+00 
    1.0000000000000000E+00     2.1874999999950970E-01     0.0000000000000000E+00 
    1.0000000000000000E+00     2.4999999999941969E-01     0.0000000000000000E+00 
    1.0000000000000000E+00     2.8124999999932920E-01     0.0000000000000000E+00 
    1.0000000000000000E+00     3.1249999999923850E-01     0.0000000000000000E+00 
    1.0000000000000000E+00     3.4374999999914790E-01     0.0000000000000000E+00 
    1.0000000000000000E+00     3.7499999999905720E-01     0.0000000000000000E+00 
    1.0000000000000000E+00     4.0624999999896660E-01     0.0000000000000000E+00 
    1.0000000000000000E+00     4.3749999999887590E-01     0.0000000000000000E+00 
    1.0000000000000000E+00     4.6874999999878530E-01     0.0000000000000000E+00 
    1.0000000000000000E+00     4.9999999999869471E-01     0.0000000000000000E+00 
    1.0000000000000000E+00     5.3124999999877620E-01     0.0000000000000000E+00 
    1.0000000000000000E+00     5.6249999999885780E-01     0.0000000000000000E+00 
    1.0000000000000000E+00     5.9374999999893940E-01     0.0000000000000000E+00 
    1.0000000000000000E+00     6.2499999999902101E-01     0.0000000000000000E+00 
    1.0000000000000000E+00     6.5624999999910261E-01     0.0000000000000000E+00 
    1.0000000000000000E+00     6.8749999999918421E-01     0.0000000000000000E+00 
    1.0000000000000000E+00     7.1874999999926570E-01     0.0000000000000000E+00 
    1.0000000000000000E+00     7.4999999999934730E-01     0.0000000000000000E+00 
    1.0000000000000000E+00     7.8124999999942890E-01     0.0000000000000000E+00 
    1.0000000000000000E+00     8.1249999999951039E-01     0.0000000000000000E+00 
    1.0000000000000000E+00     8.4374999999959199E-01     0.0000000000000000E+00 
    1.0000000000000000E+00     8.7499999999967359E-01     0.0000000000000000E+00 
    1.0000000000000000E+00     9.0624999999975520E-01     0.0000000000000000E+00 
    1.0000000000000000E+00     9.3749999999983680E-01     0.0000000000000000E+00 
    1.0000000000000000E+00     9.6874999999991840E-01     0.0000000000000000E+00 
    9.6875000000003686E-01     1.0000000000000000E+00     0.0000000000000000E+00 
    9.3750000000011691E-01     1.0000000000000000E+00     0.0000000000000000E+00 
    9.0625000000015765E-01     1.0000000000000000E+00     0.0000000000000000E+00 
    8.7500000000017863E-01     1.0000000000000000E+00     0.0000000000000000E+00 
    8.4375000000028044E-01     1.0000000000000000E+00     0.0000000000000000E+00 
    8.1250000000040856E-01     1.0000000000000000E+00     0.0000000000000000E+00 
    7.8125000000054956E-01     1.0000000000000000E+00     0.0000000000000000E+00 
    7.5000000000066480E-01     1.0000000000000000E+00     0.0000000000000000E+00 
    7.1875000000086831E-01     1.0000000000000000E+00     0.0000000000000000E+00 
    6.8750000000102829E-01     1.0000000000000000E+00     0.0000000000000000E+00 
    6.5625000000114431E-01     1.0000000000000000E+00     0.0000000000000000E+00 
    6.2500000000129829E-01     1.0000000000000000E+00     0.0000000000000000E+00 
    5.9375000000147926E-01     1.0000000000000000E+00     0.0000000000000000E+00 
    5.6250000000168354E-01     1.0000000000000000E+00     0.0000000000000000E+00 
    5.3125000000188671E-01     1.0000000000000000E+00     0.0000000000000000E+00 
    5.0000000000205835E-01     1.0000000000000000E+00     0.0000000000000000E+00 
    4.6875000000192979E-01     1.0000000000000000E+00     0.0000000000000000E+00 
    4.3750000000180111E-01     1.0000000000000000E+00     0.0000000000000000E+00 
    4.0625000000167238E-01     1.0000000000000000E+00     0.0000000000000000E+00 
    3.7500000000154382E-01     1.0000000000000000E+00     0.0000000000000000E+00 
    3.4375000000141509E-01     1.0000000000000000E+00     0.0000000000000000E+00 
    3.1250000000128642E-01     1.0000000000000000E+00     0.0000000000000000E+00 
    2.8125000000115769E-01     1.0000000000000000E+00     0.0000000000000000E+00 
    2.5000000000102918E-01     1.0000000000000000E+00     0.0000000000000000E+00 
    2.1875000000090050E-01     1.0000000000000000E+00     0.0000000000000000E+00 
    1.8750000000077180E-01     1.0000000000000000E+00     0.0000000000000000E+00 
    1.5625000000064329E-01     1.0000000000000000E+00     0.0000000000000000E+00 
    1.2500000000051459E-01     1.0000000000000000E+00     0.0000000000000000E+00 
    9.3750000000385914E-02     1.0000000000000000E+00     0.0000000000000000E+00 
    6.2500000000257239E-02     1.0000000000000000E+00     0.0000000000000000E+00 
    3.1250000000128557E-02     1.0000000000000000E+00     0.0000000000000000E+00 
    0.0000000000000000E+00     9.6875000000003686E-01     0.0000000000000000E+00 
    0.0000000000000000E+00     9.3750000000011691E-01     0.0000000000000000E+00 
    0.0000000000000000E+00     9.0625000000015765E-01     0.0000000000000000E+00 
    0.0000000000000000E+00     8.7500000000017863E-01     0.0000000000000000E+00 
    0.0000000000000000E+00     8.4375000000028044E-01     0.0000000000000000E+00 
    0.0000000000000000E+00     8.1250000000040856E-01     0.0000000000000000E+00 
    0.0000000000000000E+00     7.8125000000054956E-01     0.0000000000000000E+00 
    0.0000000000000000E+00     7.5000000000066480E-01     0.0000000000000000E+00 
    0.0000000000000000E+00     7.1875000000086831E-01     0.0000000000000000E+00 
    0.0000000000000000E+00     6.8750000000102829E-01     0.0000000000000000E+00 
    0.0000000000000000E+00     6.5625000000114431E-01     0.0000000000000000E+00 
    0.0000000000000000E+00     6.2500000000129829E-01     0.0000000000000000E+00 
    0.0000000000000000E+00     5.9375000000147926E-01     0.0000000000000000E+00 
    0.0000000000000000E+00     5.6250000000168354E-01     0.0000000000000000E+00 
    0.0000000000000000E+00     5.3125000000188671E-01     0.0000000000000000E+00 
    0.0000000000000000E+00     5.0000000000205835E-01     0.0000000000000000E+00 
    0.0000000000000000E+00     4.6875000000192979E-01     0.0000000000000000E+00 
    0.0000000000000000E+00     4.3750000000180111E-01     0.0000000000000000E+00 
    0.0000000000000000E+00     4.0625000000167238E-01     0.0000000000000000E+00 
[...]
CELL_DATA 2795 
SCALARS Pressure double 1 
LOOKUP_TABLE default 

    8.6719194856113706E+00 
    1.9543809696406058E+01 
    1.3722482296298763E+01 
    1.3418260767292864E+01 
    1.0710615596591786E+01 
    1.9316130840188610E+01 
    2.0378976237267686E+01 
    7.7251227602884516E+00 
    1.4290487052093546E+01 
    1.0921917523713464E+01 
    9.2556248570003543E+00 
    1.8903421818629450E+01 
    1.9351375453478862E+01 
    1.9263075415334253E+01 
    1.2697991750773387E+01 
    7.5893749057211242E+00 
    1.2407163225563327E+01 
    9.8752499909173661E+00 
    1.8323648323037403E+01 
    1.3700317711153245E+01 
    1.3595951137491515E+01 
    1.9154505526676864E+01 
    1.3079683065376100E+01 
    5.2537989749571257E-01 
    1.8842357917107194E+01 
    1.9367058835227581E+01 
    2.0425396536683358E+01 
    8.9153654283534074E+00 
    1.8769068781909851E+01 
    2.0404508628008614E+01 
    1.3938516849756979E+01 
    1.3907065403449504E+01 
    9.6843549289129278E+00 
    1.3685160075458686E+01 
    4.4317434358903105E+00 
    1.2415182720803617E+01 
    1.3668959178933276E+01 
    2.0457600632922130E+01 
    2.0351223975609358E+01 
    1.8923145128756211E+01 
    1.0571180176580512E+01 
    1.8919850946689028E+01 
    1.0758404516660687E+00 
    1.3699800021885009E+01 
    2.0046501385109593E+01 
    1.9743365467179174E+01 
    1.8886329229576084E+01 
    1.4721300555542399E+01 
    1.8925115815551557E+01 
    1.2657034513002818E+01 
    1.2113859449400296E+01 
    1.3868308625580982E+01 
    1.3586925318045326E+01 
    1.2459283370790528E+01 
    1.4021086420067700E+01 
    1.8005728001912168E+01 
    1.5961028980363212E+01 
    1.0771218740568337E+01 
    1.9168833823937590E+01 
    1.9027881054246269E+01 
    1.3369610517166262E+01 
    1.3205569725257073E+01 
    1.3299951775872238E+01 
    2.0270712241380636E+01 
    2.0601929345841867E+01 
    1.2414572141089362E+01 
    1.3866294383091551E+01 
    1.8595062236143566E+01 
    1.5774187849452762E+01 
    1.3295401592165073E+01 
    2.0631608876824636E+01 
    1.9084118630577148E+01 
    1.2266242382803114E+01 
    1.9883641735704636E+01 
    1.4305213788017422E+01 
    1.8678581225808813E+01 
    2.0482739067601354E+01 
    1.4342158836723799E+01 
    8.7449402050701206E+00 
    1.3886109119179608E+01 
    2.0359821102484517E+01 
    2.0668655602501794E+01 
    1.2435937630784705E+01 
    1.3811777128248986E+01 
    2.0738996650845372E+01 
    1.3665820236508312E+01 
    1.3190601392829750E+01 
    1.6338754102177219E+01 
    8.3844153061543576E+00 
    1.2149718599965817E+01 
    1.3807965788902285E+01 
    1.4453101051933256E+01 
    2.2518763070825276E+01 
    1.0397252585339757E+01 
    1.3874819895383224E+01 
    1.8851735782767445E+01 
    1.9261999176628208E+01 
    9.1185188459004642E+00 
    1.3519028449137879E+01 
    1.3844062553765166E+01 
    1.9304677035152743E+01 
    1.3830120467330573E+01 
    1.9185779601391669E+01 
    5.4811254686220510E+00 
    8.9919347781022321E+00 
    1.4112212341626233E+01 
    1.9560418736153682E+01 
    1.2376355641431694E+01 
    1.3076095419520248E+01 
    1.3802189988596899E+01 
    1.3150421390550974E+01 
    1.5518858992800308E+01 
    1.2738762269762908E+01 
    1.2275054768457883E+01 
    9.5295364233658084E+00 
    1.6336876516760849E+01 
    1.3912808790288267E+01 
    2.0153089263001711E+01 
    1.1896262995488826E+01 
    1.3392952986166222E+01 
    1.9094133570313463E+01 
    1.1210206162003601E+01 
    1.9776077712012576E+01 
    1.3739628943883980E+01 
    1.3310165839680616E+01 
    1.9273575326422282E+01 
    1.3899588723765671E+01 
    2.0499002036334598E+01 
    1.6369158606805975E+01 
    1.7758921818544675E+01 
    2.0448209086576025E+01 
    1.0419120799411857E+01 
    1.4133839998971544E+01 
    1.9321798496988098E+01 
    4.0828084703208045E+00 
    1.3995232484488703E+01 
    2.0402626574848817E+01 
    1.3341263334546015E+01 
    1.5188402502263262E+01 
    8.9777702602953315E+00 
    1.8862398423665216E+01 
    2.3072316590604821E+01 
    1.7017779844259081E+01 
    1.3344508772411599E+01 
    1.2004841616902741E+01 
    1.4797691161361879E+01 
    1.3757243902906415E+01 
    9.3610449528944777E+00 
    2.0443761186608480E+01 
    1.9336196141774213E+01 
    1.8855402956248788E+01 
    1.4452954810286732E+01 
    1.2213441714127066E+01 
    1.3589535176934149E+01 
    1.9920085719724558E+01 
    1.2555264205017972E+01 
    1.3891705849708149E+01 
    1.2771969847996733E+01 
    1.6110231481756220E+01 
    2.3059261216869057E+01 
    1.8837309010935744E+01 
    1.2034204690868595E+01 
    1.9572980800518394E+01 
    1.9498080279099320E+01 
    1.9616631350696739E+01 
    2.1003235812255404E+01 
    2.1685922393950676E+01 
    1.9714495106001319E+01 
    1.3857217057294742E+01 
    1.4962702311494320E+01 
    1.9468319466181185E+01 
    2.0151653859516479E+01 
    9.7979485503891954E+00 
    1.8881685665042664E+01 
    1.9858488738976504E+01 
    9.5222825072391259E+00 
    2.0925671458626162E+01 
    2.0864815983099344E+01 
    1.8422376910526410E+01 
    1.4212245859866512E+01 
    3.6172635616313933E+00 
    2.0402823868998869E+01 
    1.4044699147591331E+01 
    2.0565480800189594E+01 
    1.3252943127489781E+01 
    2.0097309390511167E+01 
    1.3371094702909918E+00 
    1.7753842655298772E+01 
    1.3258152825714983E+01 
    1.2172597628352994E+01 
    1.1865638608194997E+01 
    1.3705337723478134E+01 
    1.5044360880589862E+01 
    1.4417373372267011E+01 
    9.6331320543464880E+00 
    2.0155999755343952E+01 
    1.9369557869787155E+01 
    1.5923695994874269E+01 
    1.4102134838561945E+01 
    2.0755250199554602E+00 
    1.0918671991852213E+01 
    7.4756310170453091E+00 
    2.0419081696011482E+01 
    1.5370981560604918E+01 
    1.9349283963020923E+01 
    1.9465412903776780E+01 
    1.2643013801321295E+01 
    1.6028010283112110E+01 
    1.8836269236538694E+01 
    2.0844708375588272E+01 
    8.9762776976083263E+00 
    1.7051540796248197E+01 
    1.4380588560144540E+01 
    7.9786535071277891E+00 
    1.2650406695927412E+01 
    1.6739307637304837E+01 
    1.9409077142428586E+01 
    1.3757607792590582E+01 
    1.9581033353676418E+01 
    1.9216853051084325E+01 
    1.9148325310784188E+01 
    1.3591770973147193E+01 
    1.2021060587040331E+01 
    1.8869820084801905E+01 
    1.2250850959385218E+01 
    1.3840918434723235E+01 
    1.2026005608151225E+01 
    1.3837653065371885E+01 
    1.9477124447283440E+01 
    8.4779628282533981E+00 
    1.2532977031346217E+01 
    2.0306888696193933E+01 
    1.3597661774394210E+01 
    1.5244033000325993E+01 
    8.6963876983474542E+00 
    1.2343592342393714E+01 
    1.9181987719143045E+01 
    1.9664002968686233E+01 
    7.1145110441280188E+00 
    1.3615678406838922E+01 
    1.2043513218806972E+01 
    2.1401639153771693E+01 
    2.0684014197588912E+01 
    2.1726743216275608E+01 
    1.3636409711409307E+01 
    1.9438654257671548E+01 
    1.8754713180392304E+01 
    1.3479001405328150E+01 
    1.8853289207677935E+01 
    1.4102508359982432E+01 
    8.0482095564944327E+00 
    1.4052354767281209E+01 
    2.0285845329990057E+01 
    1.8847396805964038E+01 
    9.2158658406652609E+00 
    1.8896624070812965E+01 
    1.5078477833586840E+01 
    1.3969702205264374E+01 
    1.3428302358696433E+01 
    1.8629901262685042E+01 
    1.4600542950221653E+01 
    1.8876163328628635E+01 
    1.3626142998870728E+01 
    8.2851837083588311E+00 
    1.3924454910865904E+01 
    1.1868768172512052E+01 
    1.7047218471344543E+01 
    2.0566754116179919E+01 
    1.8870789541740749E+01 
    2.0392918014690032E+01 
    1.3530430233913219E+01 
    8.9760407711597399E+00 
    9.0997653091387232E+00 
    1.4196836317648305E+01 
    1.3808462554371911E+01 
    2.0505771661874017E+00 
    1.8051162031455100E+01 
    2.1055456252799949E+01 
    1.3274791054154665E+01 
    8.4361934047800951E+00 
    1.5852336689873299E+01 
    1.8888034509985339E+01 
    1.0066615427246836E+01 
    6.7862934852868628E+00 
    1.3795791284150145E+01 
    1.9013168758559395E+01 
    2.0031566740779208E+01 
    1.9756027451341613E+01 
    1.9671328601767559E+01 
    9.7737791047991038E+00 
    1.3964462360268039E+01 
    1.8284346236833581E+01 
    1.0713606005271512E+01 
    1.9329945572478266E+01 
    1.6315942418101635E+01 
    9.2282065100334769E+00 
    1.9000487497202748E+01 
    2.0431048457330398E+01 
    1.9030703180440145E+01 
    9.6837134618425615E+00 
    1.3861950407489930E+01 
    1.0677289929207330E+01 
    1.3065679409193514E+01 
    1.8878888616624721E+01 
    1.8859559302806179E+01 
    9.7460467347259154E+00 
    2.0159867890681969E+01 
    1.4509818518925833E+01 
    1.8925255422856566E+01 
    2.0185070405992576E+01 
    1.8899628393692929E+01 
    1.7349576770826506E+01 
    2.1490468178231691E+01 
    1.3203670650683469E+01 
    2.0351234575261518E+01 
    1.8953645174980842E+01 
    2.0452170103218993E+01 
    2.0149485699774743E+01 
    1.3332782947681265E+01 
    1.3710277214637724E+01 
    1.3264661143825114E+01 
    1.6635384722086375E+01 
    5.5097076638830771E+00 
    1.4118755010081225E+01 
    2.1634367073917346E+01 
    1.4108584139493688E+01 
    1.4348717398627423E+01 
    2.0413828599825766E+01 
    2.0714594453727997E+01 
    1.3072947080897926E+01 
    1.8902431734797737E+01 
    1.8858385245954590E+01 
    1.4332498647134608E+01 
    2.0080460500280054E+01 
    9.7468752924930442E+00 
    6.2025826524932066E+00 
    1.4697908757263651E+01 
    1.4123279164302943E+01 
    1.8852740095083892E+01 
    9.1022889676958432E+00 
    1.9652417203451456E+01 
    6.3368734452577336E+00 
    1.4051872846714669E+01 
    1.3336805855655884E+01 
    1.3836975022088138E+01 
    2.3111602078491817E+01 
    5.3420620511596866E+00 
    1.4016440801625819E+01 
    1.6661348851385959E+01 
    1.3414182674867135E+01 
    1.0647217355138002E+01 
    1.9909382074464776E+01 
    2.2624633052682032E+01 
    2.0066955768810693E+01 
    1.3940384682073653E+01 
    7.9508684806784364E+00 
    2.2460984365062036E+01 
    1.9339871070921681E+01 
    1.0069479216480952E+01 
    1.3523492897793114E+01 
    2.0978447069818419E+01 
    4.5394088449808194E+00 
    1.4190042695536508E+01 
    2.0080643714374965E+01 
    1.3854655101149369E+01 
    1.2013711844952093E+01 
    1.4065741495864010E+01 
    1.8388959319095960E+01 
    1.3836199347916397E+01 
    7.0723643536041330E+00 
    1.3144472781730174E+00 
    1.0232145589253127E+01 
    2.1305006446826134E+01 
    1.3264733003102684E+01 
    1.5602615275876749E+01 
    1.4980352112046340E+01 
    1.7090266906651831E+01 
    1.3869197069996904E+01 
    1.9196754748087969E+01 
    2.3126704379876912E+01 
    1.6230126925320473E+01 
    2.0312175016476484E+01 
    7.8512876870264703E-01 
    1.8861023867186731E+01 
    7.7547803357891789E+00 
    2.1832985346057061E+01 
    1.4033333009425540E+01 
    1.2294467653676524E+01 
    1.0895654182267849E+01 
    7.4424761733886822E+00 
    1.5297339494532253E+01 
    1.0863426399523007E+01 
    1.6899786978242453E+01 
    3.0449568162226091E+00 
    1.5126962366117585E+01 
    1.8739378495878892E+01 
    8.2545712787934384E+00 
    1.9519952660408165E+01 
    2.1548417365610472E+01 
    1.9334247783754684E+01 
    1.3861907425989324E+01 
    1.3829795590417227E+01 
    1.4024336064062281E+01 
    8.0749155690397494E+00 
    1.2913186522128372E+01 
    1.2708316057342094E+01 
    1.4010681752843530E+01 
    1.3174814108042055E+01 
    9.9978872934939755E-01 
    8.8852616330008107E+00 
    1.3655219854955142E+01 
    1.3978841415334076E+01 
    1.7390674114916607E+01 
    2.9864526533196596E+00 
    1.4280465429561181E+01 
    1.4132328393629676E+01 
    5.1410309835106265E+00 
    1.9134193020914847E+01 
    1.2260478753810458E+01 
    1.3975972551203062E+01 
    1.9317815226145452E+01 
    7.4660374204233770E+00 
    1.9283114479875142E+01 
    1.2436876863121881E+01 
    1.3653201890107161E+00 
    1.3340326832172435E+01 
    2.0210786339317671E+01 
    1.8865818553730232E+01 
    1.8897541256980762E+01 
    1.4450171871710404E+01 
    1.4055011788129100E+01 
    1.2260362517922612E+01 
    9.6571959291139695E+00 
    1.9471203353955342E+01 
    1.3516690107437549E+01 
    9.3529767655558000E+00 
    1.8888654250157774E+01 
    1.9898821541539554E+01 
    1.4225515705818067E+01 
    1.3650675948291747E+01 
    2.2994753440643546E+01 
    1.4333749028842812E+01 
    1.9536060766057428E+01 
    1.1632948875893618E+01 
    2.3154955806664908E+01 
    9.0463096191794001E+00 
    1.2739142068725329E+01 
    1.0218899280765164E+01 
    1.4634215260725108E+01 
    1.1843987890824192E+01 
    2.3137800380890695E+01 
    1.4396090298920070E+01 
    1.8373824817678678E+01 
    9.3017738303589343E+00 
    1.3862570580097376E+01 
    1.9294189047553512E+01 
    1.1912488528711430E+01 
    1.0086151227457034E+01 
    1.5518742810106962E+01 
    1.9612334213653455E+01 
    1.0000348760673571E+01 
    1.3365548948447113E+01 
    1.3693367611708132E+01 
    1.8823644316564131E+01 
    1.3433072777430445E+01 
    1.9616369855696256E+01 
    2.0491831016256480E+01 
    1.2289069589871078E+01 
    1.2040426176543864E+01 
    1.0880995328176514E+01 
    1.9042557708658844E+01 
    1.4153487338302245E+01 
    2.2667158881912947E+01 
    1.7569457687788091E+01 
    1.9222942832935676E+01 
    2.2312128730366116E+01 
    2.1554271600391491E+01 
    1.3913426329067921E+01 
    1.3991536834549843E+01 
    1.8443030460476560E+01 
    1.8925165957648044E+01 
    1.9714601915501515E+01 
    1.9366846797891235E+01 
    2.3022027746492164E+01 
    1.4333120990786849E+01 
    1.2430170837009280E+01 
    1.4298975918274291E+01 
    2.0370782899231227E+01 
    1.4016284677096291E+01 
    8.1019701883195641E+00 
    1.3841430236428115E+01 
    2.0940506081306481E+01 
    1.4177395461452928E+01 
    1.2441247556919270E+01 
    1.3631616984029632E+01 
    2.1089802465373985E+01 
    1.9018227621522975E+01 
    1.1749667733636143E+01 
    2.1265110442027879E+01 
    1.3944109464518402E+01 
    1.9764397493350405E+01 
    2.1104639723266775E+01 
    1.4739486751304819E+01 
    7.4698538178690397E+00 
    1.5293419598602478E+01 
    7.7282716716622488E+00 
    1.4070512186429626E+01 
    1.3860218416103001E+01 
    1.6079812975089393E+01 
    8.1792150809052764E+00 
    1.7085766746051775E+01 
    1.3876748042383163E+01 
    1.9354336316760360E+01 
    1.4913222318707716E+01 
    1.1359695780441713E+01 
    1.3475815749012151E+01 
    1.4641055819831172E+01 
    1.4467533655877311E+01 
    2.0541248578362509E+01 
    1.1886861704886497E+01 
    1.1678544352844257E+01 
    8.6047221180237070E+00 
    1.9796726867106567E+01 
    1.3526261601462165E+01 
    1.8684058522396548E+01 
    1.3826577554391790E+01 
    9.4240226099594100E+00 
    1.9030835107998289E+01 
    1.3802588666123029E+01 
    1.0317723986107044E+01 
    1.0971452872519690E+01 
    1.1381457703395284E+01 
    1.9396635148998111E+01 
    1.4013172785437190E+01 
    2.0326048637204060E+01 
    1.3761901913869174E+01 
    1.3698115847281594E+01 
    1.3263892430731175E+01 
    1.9153726742195143E+01 
    1.3603991604750528E+01 
    1.1446319683608015E+01 
    2.1542557756699640E+01 
    1.9264397289637206E+01 
    9.4842111160146807E+00 
    3.7508649954266162E+00 
    1.4000270091366543E+01 
    1.3085969777992107E+01 
    1.2043411568987903E+01 
    1.3008420530817796E+01 
    1.9189129746732398E+01 
    1.3629550685119685E+01 
    1.2467044120744134E+01 
    1.8960234113436137E+01 
    9.3941078603082548E+00 
    1.8392403639279429E+01 
    1.2562808442575788E+01 
    1.1249012851922695E+01 
    1.2161218367692857E+01 
    1.9884367072680934E+01 
    1.3839432450385550E+01 
    1.3848880784903121E+01 
    8.3157854753460008E+00 
    9.0084842487039722E+00 
    1.7416907972128506E+01 
    1.3859674364162268E+01 
    1.4049713222579211E+01 
    2.1253886304697641E+01 
    1.1674714300930205E+01 
    1.3873023112534909E+01 
    9.7373193798797626E+00 
    1.0065393651681905E+01 
    1.9099298489570206E+01 
    1.3457046983222215E+01 
    9.9581625494113464E+00 
    1.4455438411687101E+01 
    1.3764832999590835E+01 
    1.9121176495931500E+01 
    2.1368840858160624E+01 
    1.4308280989525166E+00 
    1.4006369061030245E+01 
    1.4121947500935283E+01 
    1.9242452345727816E+01 
    1.3427267861479477E+01 
    1.3808428486365061E+01 
    2.0603120999554196E+01 
    1.2206854655035741E+01 
    1.0048698691393243E+01 
    1.6495201679564801E+01 
    1.8886949905882208E+01 
    2.0448580886208159E+01 
    2.0806015233718078E+01 
    1.3809502322317483E+01 
    1.3995509346757105E+01 
    1.5361846873499170E+01 
    9.0089995001641050E+00 
    1.9097508572876052E+01 
    1.0853664125159574E+01 
    9.3764320159072376E+00 
    1.7135486358251320E+01 
    1.6103886012604914E+01 
    9.1968482969644185E+00 
    1.8942675153531081E+01 
    2.0429786684152326E+01 
    1.4353602836734398E+01 
    2.1497829825820872E+01 
    1.8994679333167987E+01 
    1.3492361161487473E+01 
    1.9989433629214826E+01 
    1.0122607829115726E+01 
    1.8914191618674696E+01 
    1.4004934400318525E+01 
    1.3958471992082377E+01 
    2.1480364899812734E+01 
    1.3575692374130186E+01 
    1.6762003786541957E+01 
    1.2128465543138267E+01 
    2.0592255824542324E+01 
    1.8754716074594160E+01 
    1.2616572671401634E+01 
    1.8858319493116838E+01 
    1.2690581427742929E+01 
    1.3814686322213552E+01 
    2.0374325662834799E+01 
    1.9326507414465883E+01 
    2.0433875318105667E+01 
    1.9244054295433450E+01 
    1.2927737992947923E+01 
    1.3180876209022518E+01 
    2.0444131460781215E+01 
    1.3342553395223455E+01 
    1.8611241650885070E+01 
    1.3550635668955991E+01 
    5.5566511673416654E+00 
    9.4765502899583591E+00 
    8.7776665221379115E+00 
    2.0378723813335831E+01 
    2.1381250595815985E+01 
    1.8880589654483980E+01 
    1.5797272176120346E+01 
    1.9314104417341795E+01 
    1.8957345224314590E+01 
    1.9868613344212637E+01 
    8.0187276690563678E+00 
    5.1641535445033959E+00 
    1.5509069366736858E+01 
    1.3615161312037928E+01 
    1.9202489101124236E+01 
    1.9197694740080280E+01 
    1.4143527264245161E+01 
    1.9258492005634647E+01 
    1.3988372534881112E+01 
    1.3888356649526152E+01 
    7.2253834826723011E+00 
    5.1398908096375058E+00 
    2.1081029321773624E+01 
    1.0787092432440387E+01 
    1.2557485563971943E+01 
    1.4029433756912795E+01 
    2.2998275528206875E+01 
    1.4133096650695085E+01 
    1.4365118834798430E+01 
    5.8563683515440541E+00 
    1.4132907605545576E+01 
    1.4149014530825319E+01 
    1.9569636161216696E+01 
    1.2160059083045534E+01 
    1.3289357754348687E+01 
    2.1304204430943823E+01 
    1.4016693995561633E+01 
    1.8903178384468418E+01 
    1.9235468399116758E+01 
    1.6849428526602495E+01 
    1.1766135088569325E+01 
    1.9238970763262810E+01 
    1.3771658455343621E+01 
    1.9146553404072286E+01 
    1.8800205240734844E+01 
    2.0405537308365229E+01 
    1.9251194357115519E+01 
    1.7788325592082682E+01 
    1.4002497227715150E+01 
    9.1235924574656817E+00 
    2.2858081663341654E+01 
    1.1086804416155083E+01 
    2.0292060108153606E+01 
    1.3999345354291657E+01 
    1.1730572173935139E+01 
    6.8248779812163436E+00 
    1.4191088257235268E+01 
    1.9224564496380346E+01 
    1.9204654370301860E+01 
    1.3792360611179658E+01 
    1.3992273783546826E+01 
    2.1553595608600773E+01 
    2.0729306612060718E+01 
    1.4156217786062339E+01 
    4.8012290937376250E+00 
    1.7667644392585501E+01 
    2.3133568507539444E+01 
    1.4006523449424916E+01 
    1.6300792835286440E+01 
    1.3426675268955979E+01 
    2.2696847690099126E+01 
    2.0842232616193240E+01 
    2.0469491233443840E+01 
    1.4182186618736583E+01 
    6.3667165640556433E+00 
    1.3376696787429445E+01 
    1.3454523376763065E+01 
    1.3501223641749679E+01 
    5.2432223804298221E+00 