# vtk DataFile Version 2.0
Pressure Field Data 
ASCII 
DATASET UNSTRUCTURED_GRID 

POINTS 2860 double 

    0.0000000000000000E+00     0.0000000000000000E+00     0.0000000000000000E+00 
    1.0000000000000000E+00     0.0000000000000000E+00     0.0000000000000000E+00 
    1.0000000000000000E+00     1.0000000000000000E+00     0.0000000000000000E+00 
    0.0000000000000000E+00     1.0000000000000000E+00     0.0000000000000000E+00 
    2.5000000000000000E-01     2.5000000000000000E-01     0.0000000000000000E+00 
    7.5000000000000000E-01     2.5000000000000000E-01     0.0000000000000000E+00 
    7.5000000000000000E-01     7.5000000000000000E-01     0.0000000000000000E+00 
    2.5000000000000000E-01     7.5000000000000000E-01     0.0000000000000000E+00 
    3.1249999999942091E-02     0.0000000000000000E+00     0.0000000000000000E+00 
    6.2499999999873469E-02     0.0000000000000000E+00     0.0000000000000000E+00 
    9.3749999999826514E-02     0.0000000000000000E+00     0.0000000000000000E+00 
    1.2499999999977961E-01     0.0000000000000000E+00     0.0000000000000000E+00 
    1.5624999999968961E-01     0.0000000000000000E+00     0.0000000000000000E+00 
    1.8749999999959971E-01     0.0000000000000000E+00     0.0000000000000000E+00 
    2.1874999999950970E-01     0.0000000000000000E+00     0.0000000000000000E+00 
    2.4999999999941969E-01     0.0000000000000000E+00     0.0000000000000000E+00 
    2.8124999999932920E-01     0.0000000000000000E+00     0.0000000000000000E+00 
    3.1249999999923850E-01     0.0000000000000000E+00     0.0000000000000000E+00 
    3.4374999999914790E-01     0.0000000000000000E+00     0.0000000000000000E+00 
    3.7499999999905720E-01     0.0000000000000000E+00     0.0000000000000000E+00 
    4.0624999999896660E-01     0.0000000000000000E+00     0.0000000000000000E+00 
    4.3749999999887590E-01     0.0000000000000000E+00     0.0000000000000000E+00 
    4.6874999999878530E-01     0.0000000000000000E+00     0.0000000000000000E+00 
    4.9999999999869471E-01     0.0000000000000000E+00     0.0000000000000000E+00 
    5.3124999999877620E-01     0.0000000000000000E+00     0.0000000000000000E+00 
    5.6249999999885780E-01     0.0000000000000000E+00     0.0000000000000000E+00 
    5.9374999999893940E-01     0.0000000000000000E+00     0.0000000000000000E+00 
    6.2499999999902101E-01     0.0000000000000000E+00     0.0000000000000000E+00 
    6.5624999999910261E-01     0.0000000000000000E+00     0.0000000000000000E+00 
    6.8749999999918421E-01     0.0000000000000000E+00     0.0000000000000000E+00 
    7.1874999999926570E-01     0.0000000000000000E+00     0.0000000000000000E+00 
    7.4999999999934730E-01     0.0000000000000000E+00     0.0000000000000000E+00 
    7.8124999999942890E-01     0.0000000000000000E+00     0.0000000000000000E+00 
    8.1249999999951039E-01     0.0000000000000000E+00     0.0000000000000000E+00 
    8.4374999999959199E-01     0.0000000000000000E+00     0.0000000000000000E+00 
    8.7499999999967359E-01     0.0000000000000000E+00     0.0000000000000000E+00 
    9.0624999999975520E-01     0.0000000000000000E+00     0.0000000000000000E+00 
    9.3749999999983680E-01     0.0000000000000000E+00     0.0000000000000000E+00 
    9.6874999999991840E-01     0.0000000000000000E+00     0.0000000000000000E+00 
    1.0000000000000000E+00     3.1249999999942091E-02     0.0000000000000000E+00 
    1.0000000000000000E+00     6.2499999999873469E-02     0.0000000000000000E+00 
    1.0000000000000000E+00     9.3749999999826514E-02     0.0000000000000000E+00 
    1.0000000000000000E+00     1.2499999999977961E-01     0.0000000000000000E+00 
    1.0000000000000000E+00     1.5624999999968961E-01     0.0000000000000000E+00 
    1.0000000000000000E+00     1.8749999999959971E-01     0.0000000000000000E+00 
    1.0000000000000000E+00     2.1874999999950970E-01     0.0000000000000000E+00 
    1.0000000000000000E+00     2.4999999999941969E-01     0.0000000000000000E+00 
    1.0000000000000000E+00     2.8124999999932920E-01     0.0000000000000000E+00 
    1.0000000000000000E+00     3.1249999999923850E-01     0.0000000000000000E+00 
    1.0000000000000000E+00     3.4374999999914790E-01     0.0000000000000000E+00 
    1.0000000000000000E+00     3.7499999999905720E-01     0.0000000000000000E+00 
    1.0000000000000000E+00     4.0624999999896660E-01     0.0000000000000000E+00 
    1.0000000000000000E+00     4.3749999999887590E-01     0.0000000000000000E+00 
    1.0000000000000000E+00     4.6874999999878530E-01     0.0000000000000000E+00 
    1.0000000000000000E+00     4.9999999999869471E-01     0.0000000000000000E+00 
    1.0000000000000000E+00     5.3124999999877620E-01     0.0000000000000000E+00 
    1.0000000000000000E+00     5.6249999999885780E-01     0.0000000000000000E+00 
    1.0000000000000000E+00     5.9374999999893940E-01     0.0000000000000000E+00 
    1.0000000000000000E+00     6.2499999999902101E-01     0.0000000000000000E+00 
    1.0000000000000000E+00     6.5624999999910261E-01     0.0000000000000000E+00 
    1.0000000000000000E+00     6.8749999999918421E-01     0.0000000000000000E+00 
    1.0000000000000000E+00     7.1874999999926570E-01     0.0000000000000000E+00 
    1.0000000000000000E+00     7.4999999999934730E-01     0.0000000000000000E+00 
    1.0000000000000000E+00     7.8124999999942890E-01     0.0000000000000000E+00 
    1.0000000000000000E+00     8.1249999999951039E-01     0.0000000000000000E+00 
    1.0000000000000000E+00     8.4374999999959199E-01     0.0000000000000000E+00 
    1.0000000000000000E+00     8.7499999999967359E-01     0.0000000000000000E+00 
    1.0000000000000000E+00     9.0624999999975520E-01     0.0000000000000000E+00 
    1.0000000000000000E+00     9.3749999999983680E-01     0.0000000000000000E+00 
    1.0000000000000000E+00     9.6874999999991840E-01     0.0000000000000000E+00 
    9.6875000000003686E-01     1.0000000000000000E+00     0.0000000000000000E+00 
    9.3750000000011691E-01     1.0000000000000000E+00     0.0000000000000000E+00 
    9.0625000000015765E-01     1.0000000000000000E+00     0.0000000000000000E+00 
    8.7500000000017863E-01     1.0000000000000000E+00     0.0000000000000000E+00 
    8.4375000000028044E-01     1.0000000000000000E+00     0.0000000000000000E+00 
    8.1250000000040856E-01     1.0000000000000000E+00     0.0000000000000000E+00 
    7.8125000000054956E-01     1.0000000000000000E+00     0.0000000000000000E+00 
    7.5000000000066480E-01     1.0000000000000000E+00     0.0000000000000000E+00 
    7.1875000000086831E-01     1.0000000000000000E+00     0.0000000000000000E+00 
    6.8750000000102829E-01     1.0000000000000000E+00     0.0000000000000000E+00 
    6.5625000000114431E-01     1.0000000000000000E+00     0.0000000000000000E+00 
    6.2500000000129829E-01     1.0000000000000000E+00     0.0000000000000000E+00 
    5.9375000000147926E-01     1.0000000000000000E+00     0.0000000000000000E+00 
    5.6250000000168354E-01     1.0000000000000000E+00     0.0000000000000000E+00 
    5.3125000000188671E-01     1.0000000000000000E+00     0.0000000000000000E+00 
    5.0000000000205835E-01     1.0000000000000000E+00     0.0000000000000000E+00 
    4.6875000000192979E-01     1.0000000000000000E+00     0.0000000000000000E+00 
    4.3750000000180111E-01     1.0000000000000000E+00     0.0000000000000000E+00 
    4.0625000000167238E-01     1.0000000000000000E+00     0.0000000000000000E+00 
    3.7500000000154382E-01     1.0000000000000000E+00     0.0000000000000000E+00 
    3.4375000000141509E-01     1.0000000000000000E+00     0.0000000000000000E+00 
    3.1250000000128642E-01     1.0000000000000000E+00     0.0000000000000000E+00 
    2.8125000000115769E-01     1.0000000000000000E+00     0.0000000000000000E+00 
    2.5000000000102918E-01     1.0000000000000000E+00     0.0000000000000000E+00 
    2.1875000000090050E-01     1.0000000000000000E+00     0.0000000000000000E+00 
    1.8750000000077180E-01     1.0000000000000000E+00     0.0000000000000000E+00 
    1.5625000000064329E-01     1.0000000000000000E+00     0.0000000000000000E+00 
    1.2500000000051459E-01     1.0000000000000000E+00     0.0000000000000000E+00 
    9.3750000000385914E-02     1.0000000000000000E+00     0.0000000000000000E+00 
    6.2500000000257239E-02     1.0000000000000000E+00     0.0000000000000000E+00 
    3.1250000000128557E-02     1.0000000000000000E+00     0.0000000000000000E+00 
    0.0000000000000000E+00     9.6875000000003686E-01     0.0000000000000000E+00 
    0.0000000000000000E+00     9.3750000000011691E-01     0.0000000000000000E+00 
    0.0000000000000000E+00     9.0625000000015765E-01     0.0000000000000000E+00 
    0.0000000000000000E+00     8.7500000000017863E-01     0.0000000000000000E+00 
    0.0000000000000000E+00     8.4375000000028044E-01     0.0000000000000000E+00 
    0.0000000000000000E+00     8.1250000000040856E-01     0.0000000000000000E+00 
    0.0000000000000000E+00     7.8125000000054956E-01     0.0000000000000000E+00 
    0.0000000000000000E+00     7.5000000000066480E-01     0.0000000000000000E+00 
    0.0000000000000000E+00     7.1875000000086831E-01     0.0000000000000000E+00 
    0.0000000000000000E+00     6.8750000000102829E-01     0.0000000000000000E+00 
    0.0000000000000000E+00     6.5625000000114431E-01     0.0000000000000000E+00 
    0.0000000000000000E+00     6.2500000000129829E-01     0.0000000000000000E+00 
    0.0000000000000000E+00     5.9375000000147926E-01     0.0000000000000000E+00 
    0.0000000000000000E+00     5.6250000000168354E-01     0.0000000000000000E+00 
    0.0000000000000000E+00     5.3125000000188671E-01     0.0000000000000000E+00 
    0.0000000000000000E+00     5.0000000000205835E-01     0.0000000000000000E+00 
    0.0000000000000000E+00     4.6875000000192979E-01     0.0000000000000000E+00 
    0.0000000000000000E+00     4.3750000000180111E-01     0.0000000000000000E+00 
    0.0000000000000000E+00     4.0625000000167238E-01     0.0000000000000000E+00 
[...]
CELL_DATA 2795 
SCALARS Pressure double 1 
LOOKUP_TABLE default 

    6.8011663467438037E+00 
    1.4667164448202643E+01 
    1.0401260798788185E+01 
    1.0074677910630529E+01 
    8.2042586020872346E+00 
    1.4532031755496147E+01 
    1.5259105329330771E+01 
    6.1337733362673799E+00 
    1.0961852758100799E+01 
    8.3792426233750454E+00 
    7.1512370088455892E+00 
    1.4277499791763237E+01 
    1.4589556326239602E+01 
    1.4502109885428917E+01 
    9.5763469240432979E+00 
    6.0374953543309058E+00 
    9.3592442496929333E+00 
    7.6090070344378757E+00 
    1.3916762623046170E+01 
    1.0387724960060439E+01 
    1.0281767365119718E+01 
    1.4435933354777863E+01 
    9.8263503562923962E+00 
    4.0274321593966234E-01 
    1.4285682407989613E+01 
    1.4543495090765141E+01 
    1.5290739834204022E+01 
    6.9152551864735416E+00 
    1.4198532870424586E+01 
    1.5276639650405928E+01 
    1.0498865155625934E+01 
    1.0603548774859956E+01 
    7.5142329220283459E+00 
    1.0363416166815833E+01 
    3.4913542006086953E+00 
    9.3604425298979450E+00 
    1.0351306315135458E+01 
    1.5315605106813551E+01 
    1.5236530047739562E+01 
    1.4290465497472786E+01 
    8.1598496051742835E+00 
    1.4252944367570581E+01 
    8.4437915213045112E-01 
    1.0301257191445801E+01 
    1.5086808603418358E+01 
    1.4870961064312690E+01 
    1.4266834294301203E+01 
    1.1318973884835613E+01 
    1.4335608020153000E+01 
    9.5564302329001301E+00 
    9.1469994860281307E+00 
    1.0568697454034188E+01 
    1.0205051131709657E+01 
    9.4142482310161597E+00 
    1.0566678142313437E+01 
    1.3708235826662314E+01 
    1.2266943428182444E+01 
    8.2450709046219295E+00 
    1.4440933841639497E+01 
    1.4364760209359840E+01 
    1.0073516199515563E+01 
    1.0002089340641959E+01 
    9.9845695460362727E+00 
    1.5180436729785198E+01 
    1.5465677039881236E+01 
    9.3730089033401036E+00 
    1.0567554074474396E+01 
    1.4161646168257684E+01 
    1.2145293462158664E+01 
    1.0045827727213815E+01 
    1.5448093175741151E+01 
    1.4394491156329794E+01 
    9.2520232134916860E+00 
    1.4983344410686417E+01 
    1.0789477365120389E+01 
    1.4133331813696167E+01 
    1.5335234131684318E+01 
    1.0835263305947052E+01 
    7.0028637556086339E+00 
    1.0585923607902744E+01 
    1.5245005017122230E+01 
    1.5469625206108024E+01 
    9.3803761887850516E+00 
    1.0505026192219329E+01 
    1.5517253427286443E+01 
    1.0352589421806785E+01 
    9.9069005411429689E+00 
    1.2571027987936459E+01 
    6.6820650164741036E+00 
    9.1727655348007069E+00 
    1.0503786639767503E+01 
    1.1125235055946495E+01 
    1.6949489137025790E+01 
    7.9916001111955870E+00 
    1.0575531517743299E+01 
    1.4245109346590551E+01 
    1.4538428446813624E+01 
    7.1199900473196838E+00 
    1.0219920226882303E+01 
    1.0535496174106060E+01 
    1.4559491755506166E+01 
    1.0532991324612608E+01 
    1.4489020746756420E+01 
    4.4006799472277258E+00 
    6.9509492472332326E+00 
    1.0795731379991018E+01 
    1.4674674051477812E+01 
    9.3276979458346911E+00 
    9.8673751902451219E+00 
    1.0515406619900544E+01 
    9.8788657460736360E+00 
    1.1888020332050937E+01 
    9.6232559394809094E+00 
    9.2580788932860809E+00 
    7.5085798543501019E+00 
    1.2335609628132804E+01 
    1.0606668437437332E+01 
    1.5096037005811134E+01 
    9.1011849020246363E+00 
    1.0058771082248246E+01 
    1.4378028413340768E+01 
    8.5655226466987777E+00 
    1.4837093546644599E+01 
    1.0429083758239818E+01 
    9.9937677858976492E+00 
    1.4540160158184031E+01 
    1.0598375175754175E+01 
    1.5342084802646026E+01 
    1.2586891098277757E+01 
    1.3551837355436513E+01 
    1.5307472593442789E+01 
    8.0062663997004364E+00 
    1.0824310541962120E+01 
    1.4530502055000008E+01 
    3.2850596962327474E+00 
    1.0545940937030334E+01 
    1.5274109546926695E+01 
    1.0021073099331142E+01 
    1.1485808245404385E+01 
    7.1265660487702860E+00 
    1.4243268602966324E+01 
    1.7423472977857735E+01 
    1.3059968601299095E+01 
    1.0019621167778016E+01 
    9.0742226146038387E+00 
    1.1175813534568370E+01 
    1.0446210607234709E+01 
    7.2302352823599056E+00 
    1.5301427817951026E+01 
    1.4581665411096377E+01 
    1.4246823213161532E+01 
    1.1125978152770053E+01 
    9.2299601502387585E+00 
    1.0279075650642488E+01 
    1.5012926766912038E+01 
    9.4530880773282888E+00 
    1.0462571864518290E+01 
    9.6057538537041616E+00 
    1.2088980851301919E+01 
    1.7411944769337762E+01 
    1.4238315036231018E+01 
    9.2158834295854870E+00 
    1.4734552756435411E+01 
    1.4633898755069080E+01 
    1.4714179027308878E+01 
    1.5712338651865583E+01 
    1.6244910597588195E+01 
    1.4871930823624750E+01 
    1.0559255523457596E+01 
    1.1350179874210010E+01 
    1.4703427275765419E+01 
    1.5111052196314184E+01 
    7.5296619720742699E+00 
    1.4266351122531320E+01 
    1.4977331895115894E+01 
    7.3417698412945978E+00 
    1.5626987805015755E+01 
    1.5611684652557583E+01 
    1.3985041928990162E+01 
    1.0898762808836183E+01 
    2.8524641920092950E+00 
    1.5273139415651601E+01 
    1.0734970329971651E+01 
    1.5401420394200070E+01 
    9.9581190880736017E+00 
    1.5113289752501606E+01 
    1.0457707538131489E+00 
    1.3562678395011265E+01 
    1.0046223938241752E+01 
    9.1901263465892917E+00 
    8.9789520769824520E+00 
    1.0397947755040498E+01 
    1.1528751684142438E+01 
    1.0863542130858686E+01 
    7.6314433321339141E+00 
    1.5101802049072875E+01 
    1.4552973345863453E+01 
    1.2273005733170992E+01 
    1.0790410278165117E+01 
    1.6690830587600358E+00 
    8.3440415060589146E+00 
    5.9819438134050147E+00 
    1.5289039559796143E+01 
    1.1625569941930548E+01 
    1.4603896195477789E+01 
    1.4621370388790345E+01 
    9.5317215089515841E+00 
    1.2140951246939670E+01 
    1.4241778744125227E+01 
    1.5598625568677148E+01 
    7.0744928487234615E+00 
    1.2899901185604794E+01 
    1.0856571600537803E+01 
    6.3710615684106324E+00 
    9.5207200244325296E+00 
    1.2712223172983716E+01 
    1.4581746762265871E+01 
    1.0452029239331955E+01 
    1.4692786868305133E+01 
    1.4456716757868451E+01 
    1.4404588772160219E+01 
    1.0284467247484445E+01 
    9.1144545152028087E+00 
    1.4254922859557700E+01 
    9.2478450470775151E+00 
    1.0538766165851559E+01 
    9.0877740013046946E+00 
    1.0418431079950896E+01 
    1.4631525601952843E+01 
    6.5646955805750471E+00 
    9.4379161749727558E+00 
    1.5206601459980485E+01 
    1.0295852367411225E+01 
    1.1526970503615367E+01 
    6.7327468073471710E+00 
    9.3025655753127410E+00 
    1.4435171251160313E+01 
    1.4748537000719228E+01 
    5.5215852712368561E+00 
    1.0303499822570169E+01 
    9.1343381213230490E+00 
    1.6015998106366787E+01 
    1.5480599965343581E+01 
    1.6271235699895133E+01 
    1.0324069873564895E+01 
    1.4602796198680689E+01 
    1.4197504838919668E+01 
    1.0192168398073964E+01 
    1.4247085794633884E+01 
    1.0791040285065421E+01 
    6.4506260118726102E+00 
    1.0581500310283980E+01 
    1.5192639693434833E+01 
    1.4243885883776388E+01 
    7.1277668496152016E+00 
    1.4273304516178795E+01 
    1.1547192505773493E+01 
    1.0527810010895260E+01 
    1.0092126147038053E+01 
    1.4111181929148643E+01 
    1.1021046630063569E+01 
    1.4260077581328224E+01 
    1.0242091563334091E+01 
    6.6565000368335783E+00 
    1.0612097432180143E+01 
    8.9855930360613741E+00 
    1.3068260292936696E+01 
    1.5391743623539574E+01 
    1.4253155252678475E+01 
    1.5267202573054217E+01 
    1.0241456088297495E+01 
    6.9453210628948110E+00 
    7.0361519272563839E+00 
    1.0704202812502892E+01 
    1.0513651105425900E+01 
    1.6074719657252681E+00 
    1.3752645051406521E+01 
    1.5752481533639019E+01 
    9.9701170066446725E+00 
    6.6902355783924827E+00 
    1.2029202776465130E+01 
    1.4271818215586540E+01 
    7.7695634761444907E+00 
    5.3823241984795116E+00 
    1.0492206155895886E+01 
    1.4350966208522376E+01 
    1.5008653473733331E+01 
    1.4904980953931020E+01 
    1.4750747849622025E+01 
    7.6295305388673018E+00 
    1.0520916130049899E+01 
    1.3794637430015463E+01 
    8.2274711768860467E+00 
    1.4575718994211392E+01 
    1.2365836876637212E+01 
    7.1294857329721362E+00 
    1.4378888131000377E+01 
    1.5288683270204963E+01 
    1.4406532260604203E+01 
    7.5045019512099325E+00 
    1.0563700220171638E+01 
    8.1809312080858270E+00 
    9.9683942517327608E+00 
    1.4263327083494822E+01 
    1.4251591221295788E+01 
    7.5455242671204177E+00 
    1.5150407825467894E+01 
    1.1106193585035161E+01 
    1.4284277327859590E+01 
    1.5129646918032307E+01 
    1.4271973167097853E+01 
    1.3303827342795042E+01 
    1.6068962926573700E+01 
    9.9299697534412665E+00 
    1.5236493285288223E+01 
    1.4311630408566563E+01 
    1.5309075669107180E+01 
    1.5143044805119830E+01 
    1.0022402652072341E+01 
    1.0392150832022747E+01 
    9.9612002651541296E+00 
    1.2802818795266925E+01 
    4.4090235639197184E+00 
    1.0643270669370935E+01 
    1.6192642225982976E+01 
    1.0791571566916060E+01 
    1.0980905027051916E+01 
    1.5281887394062981E+01 
    1.5515490208078848E+01 
    9.8667493833817428E+00 
    1.4277640189589793E+01 
    1.4247995453422547E+01 
    1.0968345928223041E+01 
    1.5097789185601997E+01 
    7.4894782721078714E+00 
    4.8251196017518492E+00 
    1.1252731598617125E+01 
    1.0806248730719933E+01 
    1.4253266781203811E+01 
    7.1014615817958235E+00 
    1.4820523025966741E+01 
    4.9371592198970555E+00 
    1.0739987190786673E+01 
    1.0059899631315286E+01 
    1.0540304223737598E+01 
    1.7461109260888410E+01 
    4.2856254089359282E+00 
    1.0563114263130965E+01 
    1.2545730431527383E+01 
    1.0142611333249409E+01 
    8.2901264001589308E+00 
    1.4927383941077119E+01 
    1.7040214905993050E+01 
    1.5083454425191476E+01 
    1.0506062468937557E+01 
    6.3316942273637018E+00 
    1.6889704783633491E+01 
    1.4544450110821748E+01 
    7.9799045564607018E+00 
    1.0157496380740978E+01 
    1.5694857062469682E+01 
    3.6372453570037266E+00 
    1.0856831778346535E+01 
    1.5065156362917701E+01 
    1.0554186894076011E+01 
    9.1890133988400891E+00 
    1.0601679140650772E+01 
    1.4011103243806305E+01 
    1.0535497351812236E+01 
    5.6528857918936062E+00 
    1.0336893941519769E+00 
    7.8584219292219109E+00 
    1.5909216571261819E+01 
    9.9596341202368954E+00 
    1.1806487223117989E+01 
    1.1318851728673669E+01 
    1.3012239922576082E+01 
    1.0567693424944803E+01 
    1.4453168639358925E+01 
    1.7474969817681924E+01 
    1.2481259495748080E+01 
    1.5208562185697311E+01 
    6.0166688878068586E-01 
    1.4253539097535475E+01 
    6.2362957145243900E+00 
    1.6357815091458903E+01 
    1.0576322830431797E+01 
    9.3493387076969690E+00 
    8.3277500107005924E+00 
    5.8999543504276026E+00 
    1.1784168565117453E+01 
    8.3176947999939532E+00 
    1.2962161791277644E+01 
    2.4118453617050997E+00 
    1.1582785405487053E+01 
    1.4185222121955052E+01 
    6.3898529560309374E+00 
    1.4732520012919158E+01 
    1.6173062622258282E+01 
    1.4569902857708787E+01 
    1.0447742213952640E+01 
    1.0534819068241504E+01 
    1.0569257262530167E+01 
    6.3854846863817212E+00 
    9.7063755843907380E+00 
    9.5608855005543649E+00 
    1.0558641485700797E+01 
    9.8988758695321462E+00 
    7.7384297658878565E-01 
    7.1350007565209648E+00 
    1.0269339125421123E+01 
    1.0534705217986355E+01 
    1.3311035843132638E+01 
    2.3815129196895417E+00 
    1.0927659251521430E+01 
    1.0811157835476935E+01 
    4.1194021891244006E+00 
    1.4434942149067698E+01 
    9.2622198564757934E+00 
    1.0669506398368434E+01 
    1.4545704604506152E+01 
    5.9433276542121458E+00 
    1.4549586321260566E+01 
    9.3691356604839964E+00 
    1.0839858391277213E+00 
    1.0017697106421664E+01 
    1.5162519248964799E+01 
    1.4253669563825307E+01 
    1.4272964362571162E+01 
    1.0903143611915077E+01 
    1.0743178127725042E+01 
    9.2445337213598080E+00 
    7.6830621469040095E+00 
    1.4664738120249996E+01 
    1.0153680048936979E+01 
    7.4742296565945709E+00 
    1.4267903188339764E+01 
    1.4965477418215427E+01 
    1.0725952876729750E+01 
    1.0343760459738975E+01 
    1.7357960925150021E+01 
    1.0969244116342580E+01 
    1.4673000942728139E+01 
    8.8338685479075743E+00 
    1.7502910644916394E+01 
    6.9948090661260602E+00 
    9.6253178774901933E+00 
    7.8000731885053769E+00 
    1.1202081805080750E+01 
    8.9610258442577209E+00 
    1.7486808983273722E+01 
    1.1017648232328577E+01 
    1.3951413596930754E+01 
    7.1898159708736484E+00 
    1.0563643089355871E+01 
    1.4508512184746731E+01 
    8.9696974889805805E+00 
    7.9261645648181709E+00 
    1.1689682200116437E+01 
    1.4736676707030725E+01 
    7.7012705742619483E+00 
    1.0079308154719545E+01 
    1.0375911870470784E+01 
    1.4229081229737325E+01 
    1.0167333055864747E+01 
    1.4711652057276199E+01 
    1.5338055334475992E+01 
    9.2700825956617159E+00 
    9.1071251509014051E+00 
    8.3515328188857030E+00 
    1.4374352718392693E+01 
    1.0831584436727125E+01 
    1.7076234539575744E+01 
    1.3433534854874301E+01 
    1.4469148914634962E+01 
    1.6766151894058016E+01 
    1.6175439401136895E+01 
    1.0610376703253131E+01 
    1.0544143773605823E+01 
    1.4010911425292697E+01 
    1.4291440225924486E+01 
    1.4848613845355489E+01 
    1.4567494619077705E+01 
    1.7378559889225365E+01 
    1.0968772160473492E+01 
    9.3672400973719494E+00 
    1.0975493623866454E+01 
    1.5251015324808451E+01 
    1.0707221786971115E+01 
    6.2990681621005074E+00 
    1.0432405155985329E+01 
    1.5669030180600972E+01 
    1.0847251785987950E+01 
    9.3722147619320708E+00 
    1.0316259742320018E+01 
    1.5774621521314444E+01 
    1.4306603466591786E+01 
    8.9668330244141359E+00 
    1.5910963387358711E+01 
    1.0639461708123470E+01 
    1.4818392270083434E+01 
    1.5788358938789431E+01 
    1.1133348850403973E+01 
    5.9554944701668573E+00 
    1.1608995876671521E+01 
    6.1529864037944266E+00 
    1.0758367000634063E+01 
    1.0556697748064103E+01 
    1.2231937104085739E+01 
    6.4812586926653779E+00 
    1.2969288793853853E+01 
    1.0575887240261771E+01 
    1.4556177440079557E+01 
    1.1198930154356077E+01 
    8.8023857986466290E+00 
    1.0185905170593069E+01 
    1.1053081420554040E+01 
    1.1073864413928039E+01 
    1.5398194183337896E+01 
    8.9958365654661119E+00 
    8.8543069305079634E+00 
    6.7827731665643221E+00 
    1.4869461601016546E+01 
    1.0228939380338389E+01 
    1.4103433370270889E+01 
    1.0526489736022826E+01 
    7.3592747303191235E+00 
    1.4341868703541971E+01 
    1.0502002536157262E+01 
    7.9616252489988346E+00 
    8.3894276399862004E+00 
    8.6573089096875773E+00 
    1.4590668972071750E+01 
    1.0560550910328669E+01 
    1.5220004578246192E+01 
    1.0460770567658519E+01 
    1.0398516073576815E+01 
    1.0001646593442143E+01 
    1.4425404045886992E+01 
    1.0313767000048527E+01 
    8.6968648515066338E+00 
    1.6162252452751463E+01 
    1.4509086765108746E+01 
    7.3195404281419219E+00 
    3.0135021949309211E+00 
    1.0550338656549631E+01 
    9.8991147314251453E+00 
    9.1029157566820764E+00 
    9.8149860023639004E+00 
    1.4457434729741603E+01 
    1.0272503201893324E+01 
    9.4131038333374910E+00 
    1.4313759629299810E+01 
    7.2553939351770005E+00 
    1.3972880076499932E+01 
    9.5513734608759115E+00 
    8.6677135279491377E+00 
    9.1795819800491518E+00 
    1.4904023494262342E+01 
    1.0543178792413203E+01 
    1.0551392106572100E+01 
    6.5530445765223737E+00 
    7.0347657950041595E+00 
    1.3266458917972271E+01 
    1.0561274712189382E+01 
    1.0588937252520056E+01 
    1.5895548671282780E+01 
    8.8511519704069226E+00 
    1.0573646299844233E+01 
    7.5047255867525324E+00 
    7.7444169413232737E+00 
    1.4423877594048967E+01 
    1.0196678909981417E+01 
    7.6901188723941836E+00 
    1.1134090133215292E+01 
    1.0450402038875332E+01 
    1.4425145801125668E+01 
    1.5987005410764715E+01 
    1.1498535372775409E+00 
    1.0555025469578538E+01 
    1.0804308598670303E+01 
    1.4486443408581025E+01 
    1.0084633295397181E+01 
    1.0516479312729794E+01 
    1.5459529894094153E+01 
    9.2104794698280639E+00 
    7.7531542958393231E+00 
    1.2646875741030239E+01 
    1.4267493298246526E+01 
    1.5308879676631848E+01 
    1.5569366307618433E+01 
    1.0404507049901344E+01 
    1.0547036473374773E+01 
    1.1846807671432835E+01 
    6.9736707580328323E+00 
    1.4395558546873756E+01 
    8.2998515739275227E+00 
    7.2459013370869600E+00 
    1.3149583092614018E+01 
    1.2425769353654522E+01 
    7.1122587504573120E+00 
    1.4303920714059466E+01 
    1.5294188448813332E+01 
    1.0984687316914444E+01 
    1.6087045337658065E+01 
    1.4337610132335403E+01 
    1.0150321066032610E+01 
    1.5030084483523055E+01 
    7.7466356871719881E+00 
    1.4285870753639438E+01 
    1.0554078491361903E+01 
    1.0516561339882797E+01 
    1.6063068954648838E+01 
    1.0265128563943414E+01 
    1.2908118331393775E+01 
    9.1607787560715721E+00 
    1.5411417371310336E+01 
    1.4192032688596075E+01 
    9.5181859136107505E+00 
    1.4243094090246370E+01 
    9.5403550119507639E+00 
    1.0525330450870989E+01 
    1.5253274242912999E+01 
    1.4570801091082259E+01 
    1.5297520655202394E+01 
    1.4490751907915413E+01 
    9.7174156103659293E+00 
    9.9220732805293288E+00 
    1.5304175832295694E+01 
    1.0039722718789593E+01 
    1.4118455837936123E+01 
    1.0251575605012576E+01 
    4.4495547599683620E+00 
    7.3142281580830586E+00 
    6.7892121021720229E+00 
    1.5256663638992539E+01 
    1.5993163513201592E+01 
    1.4261386531028247E+01 
    1.2107476648859933E+01 
    1.4557057438240124E+01 
    1.4310807324006241E+01 
    1.4901582749683723E+01 
    6.3491026670112589E+00 
    4.1416179135735485E+00 
    1.1891928736098356E+01 
    1.0233640813455585E+01 
    1.4459412221745616E+01 
    1.4457040542544711E+01 
    1.0832627062883660E+01 
    1.4494287928812509E+01 
    1.0541631517483635E+01 
    1.0451693267423858E+01 
    5.7511821470105451E+00 
    4.1261628679377225E+00 
    1.5769671058037275E+01 
    8.2318634373786832E+00 
    9.4534004445437940E+00 
    1.0719319106178938E+01 
    1.7359354312422660E+01 
    1.0813796432616018E+01 
    1.0830539306659597E+01 
    4.6805499585179389E+00 
    1.0815341229646599E+01 
    1.0830359024985672E+01 
    1.4778052763178275E+01 
    9.1855905032564671E+00 
    1.0090313631084394E+01 
    1.5937934672433018E+01 
    1.0562964169168099E+01 
    1.4277577972441465E+01 
    1.4522070468232675E+01 
    1.2890121527658863E+01 
    8.9572679496208600E+00 
    1.4491613652410006E+01 
    1.0365707645778226E+01 
    1.4451604123381490E+01 
    1.4215383369001030E+01 
    1.5276184490501835E+01 
    1.4485479805007099E+01 
    1.3600358162572631E+01 
    1.0552266893172327E+01 
    7.0518163956472906E+00 
    1.7235227072718530E+01 
    8.4582225455151843E+00 
    1.5196503577523437E+01 
    1.0549780164722378E+01 
    8.8999394162534937E+00 
    5.4087362699654022E+00 
    1.0869259541624855E+01 
    1.4476410379802783E+01 
    1.4475862425902367E+01 
    1.0505798718039751E+01 
    1.0544185156256390E+01 
    1.6143974536559764E+01 
    1.5512678579630693E+01 
    1.0832511223020239E+01 
    3.8494350545133833E+00 
    1.3538121963108267E+01 
    1.7484709523102872E+01 
    1.0555451665499247E+01 
    1.2486729826062740E+01 
    1.0082555864794042E+01 
    1.7095709154067304E+01 
    1.5594066166652242E+01 
    1.5350037484550766E+01 
    1.0854383070507822E+01 
    5.0030072070762923E+00 
    1.0043630981402732E+01 
    1.0105595387456107E+01 
    1.0146952456929908E+01 
    4.1859184779113559E+00 