# vtk DataFile Version 2.0
Pressure Field Data 
ASCII 
DATASET UNSTRUCTURED_GRID 

POINTS 2860 double 

    0.0000000000000000E+00     0.0000000000000000E+00     0.0000000000000000E+00 
    1.0000000000000000E+00     0.0000000000000000E+00     0.0000000000000000E+00 
    1.0000000000000000E+00     1.0000000000000000E+00     0.0000000000000000E+00 
    0.0000000000000000E+00     1.0000000000000000E+00     0.0000000000000000E+00 
    2.5000000000000000E-01     2.5000000000000000E-01     0.0000000000000000E+00 
    7.5000000000000000E-01     2.5000000000000000E-01     0.0000000000000000E+00 
    7.5000000000000000E-01     7.5000000000000000E-01     0.0000000000000000E+00 
    2.5000000000000000E-01     7.5000000000000000E-01     0.0000000000000000E+00 
    3.1249999999942091E-02     0.0000000000000000E+00     0.0000000000000000E+00 
    6.2499999999873469E-02     0.0000000000000000E+00     0.0000000000000000E+00 
    9.3749999999826514E-02     0.0000000000000000E+00     0.0000000000000000E+00 
    1.2499999999977961E-01     0.0000000000000000E+00     0.0000000000000000E+00 
    1.5624999999968961E-01     0.0000000000000000E+00     0.0000000000000000E+00 
    1.8749999999959971E-01     0.0000000000000000E+00     0.0000000000000000E+00 
    2.1874999999950970E-01     0.0000000000000000E+00     0.0000000000000000E+00 
    2.4999999999941969E-01     0.0000000000000000E+00     0.0000000000000000E+00 
    2.8124999999932920E-01     0.0000000000000000E+00     0.0000000000000000E+00 
    3.1249999999923850E-01     0.0000000000000000E+00     0.0000000000000000E+00 
    3.4374999999914790E-01     0.0000000000000000E+00     0.0000000000000000E+00 
    3.7499999999905720E-01     0.0000000000000000E+00     0.0000000000000000E+00 
    4.0624999999896660E-01     0.0000000000000000E+00     0.0000000000000000E+00 
    4.3749999999887590E-01     0.0000000000000000E+00     0.0000000000000000E+00 
    4.6874999999878530E-01     0.0000000000000000E+00     0.0000000000000000E+00 
    4.9999999999869471E-01     0.0000000000000000E+00     0.0000000000000000E+00 
    5.3124999999877620E-01     0.0000000000000000E+00     0.0000000000000000E+00 
    5.6249999999885780E-01     0.0000000000000000E+00     0.0000000000000000E+00 
    5.9374999999893940E-01     0.0000000000000000E+00     0.0000000000000000E+00 
    6.2499999999902101E-01     0.0000000000000000E+00     0.0000000000000000E+00 
    6.5624999999910261E-01     0.0000000000000000E+00     0.0000000000000000E+00 
    6.8749999999918421E-01     0.0000000000000000E+00     0.0000000000000000E+00 
    7.1874999999926570E-01     0.0000000000000000E+00     0.0000000000000000E+00 
    7.4999999999934730E-01     0.0000000000000000E+00     0.0000000000000000E+00 
    7.8124999999942890E-01     0.0000000000000000E+00     0.0000000000000000E+00 
    8.1249999999951039E-01     0.0000000000000000E+00     0.0000000000000000E+00 
    8.4374999999959199E-01     0.0000000000000000E+00     0.0000000000000000E+00 
    8.7499999999967359E-01     0.0000000000000000E+00     0.0000000000000000E+00 
    9.0624999999975520E-01     0.0000000000000000E+00     0.0000000000000000E+00 
    9.3749999999983680E-01     0.0000000000000000E+00     0.0000000000000000E+00 
    9.6874999999991840E-01     0.0000000000000000E+00     0.0000000000000000E+00 
    1.0000000000000000E+00     3.1249999999942091E-02     0.0000000000000000E+00 
    1.0000000000000000E+00     6.2499999999873469E-02     0.0000000000000000E+00 
    1.0000000000000000E+00     9.3749999999826514E-02     0.0000000000000000E+00 
    1.0000000000000000E+00     1.2499999999977961E-01     0.0000000000000000E+00 
    1.0000000000000000E+00     1.5624999999968961E-01     0.0000000000000000E+00 
    1.0000000000000000E+00     1.8749999999959971E-01     0.0000000000000000E+00 
    1.0000000000000000E+00     2.1874999999950970E-01     0.0000000000000000E+00 
    1.0000000000000000E+00     2.4999999999941969E-01     0.0000000000000000E+00 
    1.0000000000000000E+00     2.8124999999932920E-01     0.0000000000000000E+00 
    1.0000000000000000E+00     3.1249999999923850E-01     0.0000000000000000E+00 
    1.0000000000000000E+00     3.4374999999914790E-01     0.0000000000000000E+00 
    1.0000000000000000E+00     3.7499999999905720E-01     0.0000000000000000E+00 
    1.0000000000000000E+00     4.0624999999896660E-01     0.0000000000000000E+00 
    1.0000000000000000E+00     4.3749999999887590E-01     0.0000000000000000E+00 
    1.0000000000000000E+00     4.6874999999878530E-01     0.0000000000000000E+00 
    1.0000000000000000E+00     4.9999999999869471E-01     0.0000000000000000E+00 
    1.0000000000000000E+00     5.3124999999877620E-01     0.0000000000000000E+00 
    1.0000000000000000E+00     5.6249999999885780E-01     0.0000000000000000E+00 
    1.0000000000000000E+00     5.9374999999893940E-01     0.0000000000000000E+00 
    1.0000000000000000E+00     6.2499999999902101E-01     0.0000000000000000E+00 
    1.0000000000000000E+00     6.5624999999910261E-01     0.0000000000000000E+00 
    1.0000000000000000E+00     6.8749999999918421E-01     0.0000000000000000E+00 
    1.0000000000000000E+00     7.1874999999926570E-01     0.0000000000000000E+00 
    1.0000000000000000E+00     7.4999999999934730E-01     0.0000000000000000E+00 
    1.0000000000000000E+00     7.8124999999942890E-01     0.0000000000000000E+00 
    1.0000000000000000E+00     8.1249999999951039E-01     0.0000000000000000E+00 
    1.0000000000000000E+00     8.4374999999959199E-01     0.0000000000000000E+00 
    1.0000000000000000E+00     8.7499999999967359E-01     0.0000000000000000E+00 
    1.0000000000000000E+00     9.0624999999975520E-01     0.0000000000000000E+00 
    1.0000000000000000E+00     9.3749999999983680E-01     0.0000000000000000E+00 
    1.0000000000000000E+00     9.6874999999991840E-01     0.0000000000000000E+00 
    9.6875000000003686E-01     1.0000000000000000E+00     0.0000000000000000E+00 
    9.3750000000011691E-01     1.0000000000000000E+00     0.0000000000000000E+00 
    9.0625000000015765E-01     1.0000000000000000E+00     0.0000000000000000E+00 
    8.7500000000017863E-01     1.0000000000000000E+00     0.0000000000000000E+00 
    8.4375000000028044E-01     1.0000000000000000E+00     0.0000000000000000E+00 
    8.1250000000040856E-01     1.0000000000000000E+00     0.0000000000000000E+00 
    7.8125000000054956E-01     1.0000000000000000E+00     0.0000000000000000E+00 
    7.5000000000066480E-01     1.0000000000000000E+00     0.0000000000000000E+00 
    7.1875000000086831E-01     1.0000000000000000E+00     0.0000000000000000E+00 
    6.8750000000102829E-01     1.0000000000000000E+00     0.0000000000000000E+00 
    6.5625000000114431E-01     1.0000000000000000E+00     0.0000000000000000E+00 
    6.2500000000129829E-01     1.0000000000000000E+00     0.0000000000000000E+00 
    5.9375000000147926E-01     1.0000000000000000E+00     0.0000000000000000E+00 
    5.6250000000168354E-01     1.0000000000000000E+00     0.0000000000000000E+00 
    5.3125000000188671E-01     1.0000000000000000E+00     0.0000000000000000E+00 
    5.0000000000205835E-01     1.0000000000000000E+00     0.0000000000000000E+00 
    4.6875000000192979E-01     1.0000000000000000E+00     0.0000000000000000E+00 
    4.3750000000180111E-01     1.0000000000000000E+00     0.0000000000000000E+00 
    4.0625000000167238E-01     1.0000000000000000E+00     0.0000000000000000E+00 
    3.7500000000154382E-01     1.0000000000000000E+00     0.0000000000000000E+00 
    3.4375000000141509E-01     1.0000000000000000E+00     0.0000000000000000E+00 
    3.1250000000128642E-01     1.0000000000000000E+00     0.0000000000000000E+00 
    2.8125000000115769E-01     1.0000000000000000E+00     0.0000000000000000E+00 
    2.5000000000102918E-01     1.0000000000000000E+00     0.0000000000000000E+00 
    2.1875000000090050E-01     1.0000000000000000E+00     0.0000000000000000E+00 
    1.8750000000077180E-01     1.0000000000000000E+00     0.0000000000000000E+00 
    1.5625000000064329E-01     1.0000000000000000E+00     0.0000000000000000E+00 
    1.2500000000051459E-01     1.0000000000000000E+00     0.0000000000000000E+00 
    9.3750000000385914E-02     1.0000000000000000E+00     0.0000000000000000E+00 
    6.2500000000257239E-02     1.0000000000000000E+00     0.0000000000000000E+00 
    3.1250000000128557E-02     1.0000000000000000E+00     0.0000000000000000E+00 
    0.0000000000000000E+00     9.6875000000003686E-01     0.0000000000000000E+00 
    0.0000000000000000E+00     9.3750000000011691E-01     0.0000000000000000E+00 
    0.0000000000000000E+00     9.0625000000015765E-01     0.0000000000000000E+00 
    0.0000000000000000E+00     8.7500000000017863E-01     0.0000000000000000E+00 
    0.0000000000000000E+00     8.4375000000028044E-01     0.0000000000000000E+00 
    0.0000000000000000E+00     8.1250000000040856E-01     0.0000000000000000E+00 
    0.0000000000000000E+00     7.8125000000054956E-01     0.0000000000000000E+00 
    0.0000000000000000E+00     7.5000000000066480E-01     0.0000000000000000E+00 
    0.0000000000000000E+00     7.1875000000086831E-01     0.0000000000000000E+00 
    0.0000000000000000E+00     6.8750000000102829E-01     0.0000000000000000E+00 
    0.0000000000000000E+00     6.5625000000114431E-01     0.0000000000000000E+00 
    0.0000000000000000E+00     6.2500000000129829E-01     0.0000000000000000E+00 
    0.0000000000000000E+00     5.9375000000147926E-01     0.0000000000000000E+00 
    0.0000000000000000E+00     5.6250000000168354E-01     0.0000000000000000E+00 
    0.0000000000000000E+00     5.3125000000188671E-01     0.0000000000000000E+00 
    0.0000000000000000E+00     5.0000000000205835E-01     0.0000000000000000E+00 
    0.0000000000000000E+00     4.6875000000192979E-01     0.0000000000000000E+00 
    0.0000000000000000E+00     4.3750000000180111E-01     0.0000000000000000E+00 
    0.0000000000000000E+00     4.0625000000167238E-01     0.0000000000000000E+00 
[...]
CELL_DATA 2795 
SCALARS Pressure double 1 
LOOKUP_TABLE default 

    5.3160072672674445E+00 
    1.1850286871096193E+01 
    8.4012279638555185E+00 
    8.0202006432776951E+00 
    6.4567562608424627E+00 
    1.1741883111703730E+01 
    1.2357026753899927E+01 
    4.7706040468470006E+00 
    8.8678138736940983E+00 
    6.7574505781590704E+00 
    5.7488253153726339E+00 
    1.1531111844972219E+01 
    1.1776514150128770E+01 
    1.1716381696962060E+01 
    7.7199402397216241E+00 
    4.6904403744328507E+00 
    7.4050353251240848E+00 
    6.1250328992171115E+00 
    1.1232025052460488E+01 
    8.3960668196930772E+00 
    8.2872037522695781E+00 
    1.1661792571473127E+01 
    7.8014954070739835E+00 
    3.1066571342814953E-01 
    1.1529197946512296E+01 
    1.1746213839909863E+01 
    1.2385077749081786E+01 
    5.5338296946217334E+00 
    1.1465068142187249E+01 
    1.2376647794243324E+01 
    8.4651384414411925E+00 
    8.6184585937944345E+00 
    5.9533680957718689E+00 
    8.3625090398493818E+00 
    2.7374685753953845E+00 
    7.4067678739120257E+00 
    8.3545474050584385E+00 
    1.2411399747011489E+01 
    1.2338437350558063E+01 
    1.1541975155057825E+01 
    6.3944520256419626E+00 
    1.1505761294749727E+01 
    6.5212017711791448E-01 
    8.2325254142897037E+00 
    1.2193018412560846E+01 
    1.2030297470804038E+01 
    1.1522195255891726E+01 
    9.1709713243797406E+00 
    1.1580181058316265E+01 
    7.5681454480108217E+00 
    7.2259094275448508E+00 
    8.5845193008890597E+00 
    8.1286750236670802E+00 
    7.4471233839012072E+00 
    8.5369274997487210E+00 
    1.1059325105852906E+01 
    1.0002520374729167E+01 
    6.4895636080607906E+00 
    1.1665555540544464E+01 
    1.1602836040778804E+01 
    8.0666779451542876E+00 
    8.0688743192236529E+00 
    7.9399961155002226E+00 
    1.2292831480524166E+01 
    1.2521126910203989E+01 
    7.4147328654979416E+00 
    8.5826797989781607E+00 
    1.1447238459607382E+01 
    9.8146970405406613E+00 
    8.0940948957959531E+00 
    1.2524814419259449E+01 
    1.1620888877584575E+01 
    7.3129834792623480E+00 
    1.2112911706439801E+01 
    8.7697650368091846E+00 
    1.1402796647940093E+01 
    1.2425465643321346E+01 
    8.6585895669188506E+00 
    5.3441223614548763E+00 
    8.5986151726811659E+00 
    1.2344959882611871E+01 
    1.2547120931316579E+01 
    7.4291064256586568E+00 
    8.5177455323664955E+00 
    1.2585535184608741E+01 
    8.3598561086430081E+00 
    7.8712027465488976E+00 
    1.0151949628401987E+01 
    5.1465833369275238E+00 
    7.2465070624603456E+00 
    8.5188194156645132E+00 
    8.9838929070046767E+00 
    1.3906217232934228E+01 
    6.2831720520110546E+00 
    8.5895393387522692E+00 
    1.1504276457612166E+01 
    1.1735782835194209E+01 
    5.5668020495690040E+00 
    8.2352235451421389E+00 
    8.5483397999579651E+00 
    1.1752861067005082E+01 
    8.5506233718131934E+00 
    1.1696004594563297E+01 
    3.3909138380830806E+00 
    5.5863278899624635E+00 
    8.7756220379875014E+00 
    1.1856693001982146E+01 
    7.3777950893817579E+00 
    7.8899400322168933E+00 
    8.5361966633899069E+00 
    7.8487501927598435E+00 
    9.7278298960676324E+00 
    7.6709465532557068E+00 
    7.3191288879583505E+00 
    5.8145072113467480E+00 
    9.9122040882517357E+00 
    8.6205941705607643E+00 
    1.2219439151576260E+01 
    7.3568765217915892E+00 
    8.0106671213282237E+00 
    1.1609004561064861E+01 
    6.7386715595543594E+00 
    1.1989852875144633E+01 
    8.4393857948499722E+00 
    7.9489707226431365E+00 
    1.1737527426216468E+01 
    8.6098345866130117E+00 
    1.2430695743596948E+01 
    1.0161988687618239E+01 
    1.0935544481642868E+01 
    1.2399697178753954E+01 
    6.2949077915386233E+00 
    8.7900941264834529E+00 
    1.1735338996035324E+01 
    2.5340430406619827E+00 
    8.5156036986365411E+00 
    1.2370870113713398E+01 
    7.9775909526099467E+00 
    9.2014260340685432E+00 
    5.4911479004729813E+00 
    1.1505096120368815E+01 
    1.4361301285599446E+01 
    1.0543076773351478E+01 
    7.9715681074814855E+00 
    7.1657079144613922E+00 
    9.1648394960882733E+00 
    8.4562376944271165E+00 
    5.8120932984923739E+00 
    1.2394422340449786E+01 
    1.1810001633391247E+01 
    1.1505858117962322E+01 
    8.9994352904258808E+00 
    7.2940362826095022E+00 
    8.2870955003771343E+00 
    1.2135954019774941E+01 
    7.4844156180480317E+00 
    8.3598035802912829E+00 
    7.6137954699187222E+00 
    9.7027358126427199E+00 
    1.4350333249442071E+01 
    1.1498315817310944E+01 
    7.2192264732400426E+00 
    1.1899426838044706E+01 
    1.1822281296055344E+01 
    1.1890165021843272E+01 
    1.2759790547060124E+01 
    1.3246446977883435E+01 
    1.2024408599180660E+01 
    8.5754266109850370E+00 
    9.0943735162346560E+00 
    1.1879495327579399E+01 
    1.2229235172659378E+01 
    6.0578442555176322E+00 
    1.1521534989690480E+01 
    1.2103056418247093E+01 
    5.9064480428426833E+00 
    1.2678957631530899E+01 
    1.2671512370748653E+01 
    1.1289458556318579E+01 
    8.8431869811647577E+00 
    2.2662833281926766E+00 
    1.2369550567699958E+01 
    8.7246908475636005E+00 
    1.2479739768785961E+01 
    7.9236173389209155E+00 
    1.2223422543611123E+01 
    7.9731853841668809E-01 
    1.0949852405405688E+01 
    8.1035260080999922E+00 
    7.2612577327512104E+00 
    7.0857151311784925E+00 
    8.4100865126370294E+00 
    9.4267170475644892E+00 
    8.6818117536065564E+00 
    5.8572915516966111E+00 
    1.2224076572709775E+01 
    1.1754131909382910E+01 
    9.9174377262612285E+00 
    8.7678698561729718E+00 
    1.2881472372169274E+00 
    6.5706560519308308E+00 
    4.5961807107365367E+00 
    1.2388082660212412E+01 
    9.5524292921528460E+00 
    1.1795933084587961E+01 
    1.1811704387435585E+01 
    7.5638300543851260E+00 
    9.9585384459417146E+00 
    1.1501148530996092E+01 
    1.2657471922296452E+01 
    5.4935519510153519E+00 
    1.0379831828093302E+01 
    8.7192367379959688E+00 
    4.9090045951415986E+00 
    7.5417899282932739E+00 
    1.0381407729564032E+01 
    1.1778264141933587E+01 
    8.4660071715465506E+00 
    1.1871911629243568E+01 
    1.1674026341510150E+01 
    1.1630870770304524E+01 
    8.2951525126622148E+00 
    7.2267580463324084E+00 
    1.1513377504780777E+01 
    7.3106987327690307E+00 
    8.5551345518388668E+00 
    7.1755500795487466E+00 
    8.3084322776580635E+00 
    1.1820074169581941E+01 
    5.2684967383857222E+00 
    7.4725564074877999E+00 
    1.2313308562909713E+01 
    8.3105546989187982E+00 
    9.4536177688402532E+00 
    5.4063872205053087E+00 
    7.3560454090681029E+00 
    1.1656173775564069E+01 
    1.1919218236231456E+01 
    4.4253866365143617E+00 
    8.3107648808988870E+00 
    7.2086207009190506E+00 
    1.3034160886828081E+01 
    1.2555125791522007E+01 
    1.3269437620731226E+01 
    8.3315920719737573E+00 
    1.1796014138208607E+01 
    1.1465340041216461E+01 
    8.2143179909652879E+00 
    1.1505781786110786E+01 
    8.7677187195205430E+00 
    4.9329153525452201E+00 
    8.5098133492295105E+00 
    1.2302779470919850E+01 
    1.1503035869413580E+01 
    5.7223324133949047E+00 
    1.1527412447563348E+01 
    9.4284057852531298E+00 
    8.4998558240972084E+00 
    8.0509741242014208E+00 
    1.1392346687221936E+01 
    9.0071933992117046E+00 
    1.1517260353447345E+01 
    8.1860521480117860E+00 
    5.0461122822747706E+00 
    8.6186184214091313E+00 
    7.0923331532506353E+00 
    1.0545486797162370E+01 
    1.2473820329878695E+01 
    1.1513008987336145E+01 
    1.2364416334306689E+01 
    8.2634300908834106E+00 
    5.5752366117348577E+00 
    5.6527642473027369E+00 
    8.6828129972474244E+00 
    8.5321872396567784E+00 
    1.2372532277740631E+00 
    1.1100962236958530E+01 
    1.2783751195374782E+01 
    7.9297109635244114E+00 
    5.1788796044664664E+00 
    9.6529243190289602E+00 
    1.1526016215171740E+01 
    6.0969614872913631E+00 
    4.1586540832028502E+00 
    8.5077379517528602E+00 
    1.1615902147312534E+01 
    1.2143207874874777E+01 
    1.2041522398370459E+01 
    1.1921387035323237E+01 
    5.9503830479489004E+00 
    8.4894116376852846E+00 
    1.1124516098458795E+01 
    6.6350334345357629E+00 
    1.1765500659974675E+01 
    1.0144035133038374E+01 
    5.7316208347604940E+00 
    1.1614919636759881E+01 
    1.2385465230275896E+01 
    1.1629414032264751E+01 
    5.8870891986452847E+00 
    8.5792084206060117E+00 
    6.4374224299641458E+00 
    8.0790873162376524E+00 
    1.1519119961251054E+01 
    1.1509441988700869E+01 
    5.9198783731424145E+00 
    1.2257980387449400E+01 
    9.0455017659384147E+00 
    1.1549520787426321E+01 
    1.2240998803289781E+01 
    1.1532944728993064E+01 
    1.0745611844804928E+01 
    1.3079913689404965E+01 
    7.9081058176491554E+00 
    1.2338464126853033E+01 
    1.1574246669992933E+01 
    1.2400868566568949E+01 
    1.2252315244860226E+01 
    7.9886504828451752E+00 
    8.3953639863460872E+00 
    7.9203281205729006E+00 
    1.0340517189089836E+01 
    3.3997854105795229E+00 
    8.6134790077832388E+00 
    1.3195263936585292E+01 
    8.7722652328649939E+00 
    8.9367217130674952E+00 
    1.2376948926177063E+01 
    1.2585625078837257E+01 
    7.8914258737593332E+00 
    1.1530897357194283E+01 
    1.1507056862422708E+01 
    8.9258442889121081E+00 
    1.2213521545876691E+01 
    6.0270827513946683E+00 
    3.8689546255439606E+00 
    9.1730668129978028E+00 
    8.7842384552501542E+00 
    1.1510718468655027E+01 
    5.5548249261137199E+00 
    1.1971579016701828E+01 
    3.9426430394800249E+00 
    8.7287075510699861E+00 
    8.0674911845613337E+00 
    8.5578821857304259E+00 
    1.4399265389871633E+01 
    3.3037211360649179E+00 
    8.5334606693038495E+00 
    1.0087931874693796E+01 
    8.1729515425867749E+00 
    6.4498115234843238E+00 
    1.2075677105340407E+01 
    1.3991039526455307E+01 
    1.2198475256826637E+01 
    8.4796691296006710E+00 
    4.8983725684665078E+00 
    1.3852969522266289E+01 
    1.1746998056772201E+01 
    6.0521520811346301E+00 
    8.0892865806205396E+00 
    1.2745309771025303E+01 
    2.8015983681851799E+00 
    8.8289450931324929E+00 
    1.2181061838068359E+01 
    8.5712387696874881E+00 
    7.4313425156412869E+00 
    8.5718449226590891E+00 
    1.1310375685463647E+01 
    8.5525410344275983E+00 
    4.3846150043304020E+00 
    7.8285522835216137E-01 
    6.3290632199587540E+00 
    1.2935422981004999E+01 
    7.9185725495805226E+00 
    9.7096243188979869E+00 
    9.3016691217040623E+00 
    1.0597143570355364E+01 
    8.5849896497807983E+00 
    1.1670767843633367E+01 
    1.4412735613612121E+01 
    1.0075369349097020E+01 
    1.2314588456483062E+01 
    4.6211923106787534E-01 
    1.1510960007451308E+01 
    4.7307675397226294E+00 
    1.3350168694280685E+01 
    8.5466153234062325E+00 
    7.5377372307291521E+00 
    6.5570756447937759E+00 
    4.5674554878325857E+00 
    9.5318643257966524E+00 
    6.7011238905156576E+00 
    1.0457256728177313E+01 
    1.9247282449000815E+00 
    9.4566291693281528E+00 
    1.1454624746161256E+01 
    5.1322179971462365E+00 
    1.1917401100700058E+01 
    1.3182905292030769E+01 
    1.1799432318705959E+01 
    8.4253958629895997E+00 
    8.5528947952511132E+00 
    8.5395416116198568E+00 
    4.9758238339894962E+00 
    7.6996653719997115E+00 
    7.5760874769977091E+00 
    8.5290439178251027E+00 
    7.8680772771957441E+00 
    5.8607543645454863E-01 
    5.4053414580522716E+00 
    8.1872605339132729E+00 
    8.5064077001869087E+00 
    1.0742189133823123E+01 
    1.8346914492447060E+00 
    8.8904956659231633E+00 
    8.7892040691678339E+00 
    3.1749009204993168E+00 
    1.1692259191857076E+01 
    7.3323790969667879E+00 
    8.6693477542724811E+00 
    1.1746953287471761E+01 
    4.6170244774009968E+00 
    1.1782090212149690E+01 
    7.4126744559446127E+00 
    8.3614167830353592E-01 
    7.9712852174886342E+00 
    1.2271392047214530E+01 
    1.1511606300219553E+01 
    1.1531165809929211E+01 
    8.8859373731153024E+00 
    8.7315749427616165E+00 
    7.3072091802997425E+00 
    5.8583057854108969E+00 
    1.1843255308354852E+01 
    8.0895657797393703E+00 
    5.6508208884523787E+00 
    1.1524536526547962E+01 
    1.2104905677021359E+01 
    8.7051297085244599E+00 
    8.3556893714525913E+00 
    1.4300928697281593E+01 
    8.9266014858465201E+00 
    1.1854185125818029E+01 
    6.9650824021455522E+00 
    1.4440768977802334E+01 
    5.6194547785550508E+00 
    7.6749193343171394E+00 
    6.2892576297203373E+00 
    9.1281022925251669E+00 
    7.2210704088136524E+00 
    1.4425009907414831E+01 
    8.9685433056083141E+00 
    1.1254695636376542E+01 
    5.7795491746376912E+00 
    8.5796919810988133E+00 
    1.1717019738702700E+01 
    7.2408915326588223E+00 
    6.1259657022509506E+00 
    9.3732103531175728E+00 
    1.1912455574281632E+01 
    6.2019193415546496E+00 
    8.0831310544688417E+00 
    8.3793976446337588E+00 
    1.1490629833305285E+01 
    8.2024245100304967E+00 
    1.1888089809477856E+01 
    1.2426367339677599E+01 
    7.3297292365510662E+00 
    7.1924582095904466E+00 
    6.7384034239577746E+00 
    1.1609876474166182E+01 
    8.7871448303223723E+00 
    1.4026515715456728E+01 
    1.0956257331662865E+01 
    1.1684053172916999E+01 
    1.3736542805574965E+01 
    1.3186391355871029E+01 
    8.6235285481859982E+00 
    8.5151964459365175E+00 
    1.1314606377752018E+01 
    1.1542284963628299E+01 
    1.1994241243993027E+01 
    1.1766022621531285E+01 
    1.4317983817360490E+01 
    8.9261966927966494E+00 
    7.4118336715483952E+00 
    8.8916826363152683E+00 
    1.2350543486432322E+01 
    8.7032138831101786E+00 
    5.0261391398149593E+00 
    8.4109707290414946E+00 
    1.2717247136828368E+01 
    8.8206797706465121E+00 
    7.4148536412738357E+00 
    8.3210796060743224E+00 
    1.2814190059434640E+01 
    1.1549939405704475E+01 
    7.0562756927611616E+00 
    1.2938245018196632E+01 
    8.6475400024238436E+00 
    1.1978352487311433E+01 
    1.2827429470551417E+01 
    9.0035924663001090E+00 
    4.6102540390060520E+00 
    9.3478337969140277E+00 
    4.7671930562766649E+00 
    8.7444626389882032E+00 
    8.5737055408852676E+00 
    9.8328901162095352E+00 
    5.0323614283421847E+00 
    1.0440596981417626E+01 
    8.5921581553176321E+00 
    1.1756755753188065E+01 
    8.9617819935933021E+00 
    6.8377517856954411E+00 
    8.2074202878411331E+00 
    9.0432162248960974E+00 
    9.0177110607816005E+00 
    1.2470850980367477E+01 
    7.1000223741883861E+00 
    6.9834779322788147E+00 
    5.2788374543684045E+00 
    1.2013322853974069E+01 
    8.2449485838113841E+00 
    1.1380047645921742E+01 
    8.5436097460687055E+00 
    5.7480697660144884E+00 
    1.1578536517813275E+01 
    8.5187978408123772E+00 
    6.2442971194219554E+00 
    6.5995778050263532E+00 
    6.8222480828102139E+00 
    1.1784810926469399E+01 
    8.5308978188847320E+00 
    1.2323571873762392E+01 
    8.4771344678816281E+00 
    8.4161283213636349E+00 
    8.0082889365982126E+00 
    1.1647657085914059E+01 
    8.3352867946862883E+00 
    6.8558601882027315E+00 
    1.3173331273299823E+01 
    1.1716223455686222E+01 
    5.8872242584187946E+00 
    2.3212334717553778E+00 
    8.5205670638040392E+00 
    7.9736952933401533E+00 
    7.1891897310823589E+00 
    7.8387389189458316E+00 
    1.1679535803382711E+01 
    8.2590899570590750E+00 
    7.4679080332717520E+00 
    1.1560744962828124E+01 
    5.8338025919354006E+00 
    1.1281556182050561E+01 
    7.7005644415071322E+00 
    6.7865042471082564E+00 
    7.2526319515201783E+00 
    1.2051372886006062E+01 
    8.5607264676538914E+00 
    8.5682209457519480E+00 
    5.1125964277395894E+00 
    5.5033484724819122E+00 
    1.0725364843026618E+01 
    8.5773574594474535E+00 
    8.5589799109980564E+00 
    1.2922626446888806E+01 
    6.9818999225838967E+00 
    8.5882291197949172E+00 
    6.0375245852744532E+00 
    6.2261490322671795E+00 
    1.1643333513546104E+01 
    8.2297462617988799E+00 
    6.0358469206244312E+00 
    9.0004588184032066E+00 
    8.4568839418638113E+00 
    1.1645705265603157E+01 
    1.3007027191182186E+01 
    8.9787418214043879E-01 
    8.5251319038963231E+00 
    8.7829666226777228E+00 
    1.1698220640239009E+01 
    8.0343518081064165E+00 
    8.5358475437987540E+00 
    1.2516107063877309E+01 
    7.2786970288896979E+00 
    6.0855879295423270E+00 
    1.0344684713349254E+01 
    1.1523040150891587E+01 
    1.2401496078091665E+01 
    1.2634889284513513E+01 
    8.3796207933298756E+00 
    8.5178098811626803E+00 
    9.5872473628607420E+00 
    5.5956112249368060E+00 
    1.1628239627185055E+01 
    6.5348265772998468E+00 
    5.8260213569959065E+00 
    1.0687386104192385E+01 
    1.0045724033404651E+01 
    5.7136348912991437E+00 
    1.1553590723533878E+01 
    1.2388201037840156E+01 
    8.9399944143020509E+00 
    1.3098557464345745E+01 
    1.1580096143418624E+01 
    8.1190887491605750E+00 
    1.2156611420764655E+01 
    6.2344134322357609E+00 
    1.1537639819567460E+01 
    8.5244116357332533E+00 
    8.4854988197344152E+00 
    1.3075115148894636E+01 
    8.2730971711412682E+00 
    1.0434582084148945E+01 
    7.2381686994983205E+00 
    1.2491053324727615E+01 
    1.1459840425154376E+01 
    7.5380462695048251E+00 
    1.1504249640238607E+01 
    7.7036171810449634E+00 
    8.5452695458319692E+00 
    1.2352884436230205E+01 
    1.1762486337708838E+01 
    1.2391285715260306E+01 
    1.1701555886373008E+01 
    7.7094299790901282E+00 
    7.9121388374301196E+00 
    1.2396704359833432E+01 
    8.0177338269848164E+00 
    1.1402647229390560E+01 
    8.2674665977633879E+00 
    3.4283140704886312E+00 
    5.8831570253159997E+00 
    5.4534754651650728E+00 
    1.2355554643140533E+01 
    1.3011810835105091E+01 
    1.1519837015945024E+01 
    9.9231979138912685E+00 
    1.1758083681585649E+01 
    1.1558229295680356E+01 
    1.2054033079612744E+01 
    4.9405946646064134E+00 
    3.1934596813644847E+00 
    9.7392811422150860E+00 
    8.1815786428064978E+00 
    1.1681185608643966E+01 
    1.1679181970971468E+01 
    8.7972709798035638E+00 
    1.1710185387527110E+01 
    8.5126473827806368E+00 
    8.4053653018901944E+00 
    4.4621095563427540E+00 
    3.1806610037479737E+00 
    1.2811265893885960E+01 
    6.6232203813579718E+00 
    7.4843785132449714E+00 
    8.7112920380062953E+00 
    1.4301141686518459E+01 
    8.7914787253902436E+00 
    8.7711921427066404E+00 
    3.6041302424263959E+00 
    8.7918927519435126E+00 
    8.8034846959880184E+00 
    1.1943884324863536E+01 
    7.2611082720276867E+00 
    8.1439444246521386E+00 
    1.2962522922566038E+01 
    8.5328660009660844E+00 
    1.1533477747653281E+01 
    1.1745341523618903E+01 
    1.0573915639155336E+01 
    7.2005585260491989E+00 
    1.1701755187407594E+01 
    8.3290385440361501E+00 
    1.1700535339954270E+01 
    1.1479099426909368E+01 
    1.2372454039266213E+01 
    1.1697747007256430E+01 
    1.0987965852955369E+01 
    8.5227258091094953E+00 
    5.6674499638103786E+00 
    1.4181312696645174E+01 
    6.6637227606002787E+00 
    1.2307590023503661E+01 
    8.5202203644861640E+00 
    7.0302494945960712E+00 
    4.2137306505019207E+00 
    8.8323850657583574E+00 
    1.1689806860817532E+01 
    1.1687879781676289E+01 
    8.5266040104067997E+00 
    8.5145629809670300E+00 
    1.3151884993575955E+01 
    1.2584236891451599E+01 
    8.8079180588059618E+00 
    2.9717515490643920E+00 
    1.0967732296394878E+01 
    1.4423783237349511E+01 
    8.5259441685290369E+00 
    1.0240496678751034E+01 
    8.0296676756931653E+00 
    1.4048962214550611E+01 
    1.2654911804155953E+01 
    1.2427144685180631E+01 
    8.8266529704373742E+00 
    3.9386083203949420E+00 
    7.9929923468165276E+00 
    8.0540680652301795E+00 
    8.1020504754337974E+00 
    3.2330716097332828E+00 