# vtk DataFile Version 2.0
Pressure Field Data 
ASCII 
DATASET UNSTRUCTURED_GRID 

POINTS 2860 double 

    0.0000000000000000E+00     0.0000000000000000E+00     0.0000000000000000E+00 
    1.0000000000000000E+00     0.0000000000000000E+00     0.0000000000000000E+00 
    1.0000000000000000E+00     1.0000000000000000E+00     0.0000000000000000E+00 
    0.0000000000000000E+00     1.0000000000000000E+00     0.0000000000000000E+00 
    2.5000000000000000E-01     2.5000000000000000E-01     0.0000000000000000E+00 
    7.5000000000000000E-01     2.5000000000000000E-01     0.0000000000000000E+00 
    7.5000000000000000E-01     7.5000000000000000E-01     0.0000000000000000E+00 
    2.5000000000000000E-01     7.5000000000000000E-01     0.0000000000000000E+00 
    3.1249999999942091E-02     0.0000000000000000E+00     0.0000000000000000E+00 
    6.2499999999873469E-02     0.0000000000000000E+00     0.0000000000000000E+00 
    9.3749999999826514E-02     0.0000000000000000E+00     0.0000000000000000E+00 
    1.2499999999977961E-01     0.0000000000000000E+00     0.0000000000000000E+00 
    1.5624999999968961E-01     0.0000000000000000E+00     0.0000000000000000E+00 
    1.8749999999959971E-01     0.0000000000000000E+00     0.0000000000000000E+00 
    2.1874999999950970E-01     0.0000000000000000E+00     0.0000000000000000E+00 
    2.4999999999941969E-01     0.0000000000000000E+00     0.0000000000000000E+00 
    2.8124999999932920E-01     0.0000000000000000E+00     0.0000000000000000E+00 
    3.1249999999923850E-01     0.0000000000000000E+00     0.0000000000000000E+00 
    3.4374999999914790E-01     0.0000000000000000E+00     0.0000000000000000E+00 
    3.7499999999905720E-01     0.0000000000000000E+00     0.0000000000000000E+00 
    4.0624999999896660E-01     0.0000000000000000E+00     0.0000000000000000E+00 
    4.3749999999887590E-01     0.0000000000000000E+00     0.0000000000000000E+00 
    4.6874999999878530E-01     0.0000000000000000E+00     0.0000000000000000E+00 
    4.9999999999869471E-01     0.0000000000000000E+00     0.0000000000000000E+00 
    5.3124999999877620E-01     0.0000000000000000E+00     0.0000000000000000E+00 
    5.6249999999885780E-01     0.0000000000000000E+00     0.0000000000000000E+00 
    5.9374999999893940E-01     0.0000000000000000E+00     0.0000000000000000E+00 
    6.2499999999902101E-01     0.0000000000000000E+00     0.0000000000000000E+00 
    6.5624999999910261E-01     0.0000000000000000E+00     0.0000000000000000E+00 
    6.8749999999918421E-01     0.0000000000000000E+00     0.0000000000000000E+00 
    7.1874999999926570E-01     0.0000000000000000E+00     0.0000000000000000E+00 
    7.4999999999934730E-01     0.0000000000000000E+00     0.0000000000000000E+00 
    7.8124999999942890E-01     0.0000000000000000E+00     0.0000000000000000E+00 
    8.1249999999951039E-01     0.0000000000000000E+00     0.0000000000000000E+00 
    8.4374999999959199E-01     0.0000000000000000E+00     0.0000000000000000E+00 
    8.7499999999967359E-01     0.0000000000000000E+00     0.0000000000000000E+00 
    9.0624999999975520E-01     0.0000000000000000E+00     0.0000000000000000E+00 
    9.3749999999983680E-01     0.0000000000000000E+00     0.0000000000000000E+00 
    9.6874999999991840E-01     0.0000000000000000E+00     0.0000000000000000E+00 
    1.0000000000000000E+00     3.1249999999942091E-02     0.0000000000000000E+00 
    1.0000000000000000E+00     6.2499999999873469E-02     0.0000000000000000E+00 
    1.0000000000000000E+00     9.3749999999826514E-02     0.0000000000000000E+00 
    1.0000000000000000E+00     1.2499999999977961E-01     0.0000000000000000E+00 
    1.0000000000000000E+00     1.5624999999968961E-01     0.0000000000000000E+00 
    1.0000000000000000E+00     1.8749999999959971E-01     0.0000000000000000E+00 
    1.0000000000000000E+00     2.1874999999950970E-01     0.0000000000000000E+00 
    1.0000000000000000E+00     2.4999999999941969E-01     0.0000000000000000E+00 
    1.0000000000000000E+00     2.8124999999932920E-01     0.0000000000000000E+00 
    1.0000000000000000E+00     3.1249999999923850E-01     0.0000000000000000E+00 
    1.0000000000000000E+00     3.4374999999914790E-01     0.0000000000000000E+00 
    1.0000000000000000E+00     3.7499999999905720E-01     0.0000000000000000E+00 
    1.0000000000000000E+00     4.0624999999896660E-01     0.0000000000000000E+00 
    1.0000000000000000E+00     4.3749999999887590E-01     0.0000000000000000E+00 
    1.0000000000000000E+00     4.6874999999878530E-01     0.0000000000000000E+00 
    1.0000000000000000E+00     4.9999999999869471E-01     0.0000000000000000E+00 
    1.0000000000000000E+00     5.3124999999877620E-01     0.0000000000000000E+00 
    1.0000000000000000E+00     5.6249999999885780E-01     0.0000000000000000E+00 
    1.0000000000000000E+00     5.9374999999893940E-01     0.0000000000000000E+00 
    1.0000000000000000E+00     6.2499999999902101E-01     0.0000000000000000E+00 
    1.0000000000000000E+00     6.5624999999910261E-01     0.0000000000000000E+00 
    1.0000000000000000E+00     6.8749999999918421E-01     0.0000000000000000E+00 
    1.0000000000000000E+00     7.1874999999926570E-01     0.0000000000000000E+00 
    1.0000000000000000E+00     7.4999999999934730E-01     0.0000000000000000E+00 
    1.0000000000000000E+00     7.8124999999942890E-01     0.0000000000000000E+00 
    1.0000000000000000E+00     8.1249999999951039E-01     0.0000000000000000E+00 
    1.0000000000000000E+00     8.4374999999959199E-01     0.0000000000000000E+00 
    1.0000000000000000E+00     8.7499999999967359E-01     0.0000000000000000E+00 
    1.0000000000000000E+00     9.0624999999975520E-01     0.0000000000000000E+00 
    1.0000000000000000E+00     9.3749999999983680E-01     0.0000000000000000E+00 
    1.0000000000000000E+00     9.6874999999991840E-01     0.0000000000000000E+00 
    9.6875000000003686E-01     1.0000000000000000E+00     0.0000000000000000E+00 
    9.3750000000011691E-01     1.0000000000000000E+00     0.0000000000000000E+00 
    9.0625000000015765E-01     1.0000000000000000E+00     0.0000000000000000E+00 
    8.7500000000017863E-01     1.0000000000000000E+00     0.0000000000000000E+00 
    8.4375000000028044E-01     1.0000000000000000E+00     0.0000000000000000E+00 
    8.1250000000040856E-01     1.0000000000000000E+00     0.0000000000000000E+00 
    7.8125000000054956E-01     1.0000000000000000E+00     0.0000000000000000E+00 
    7.5000000000066480E-01     1.0000000000000000E+00     0.0000000000000000E+00 
    7.1875000000086831E-01     1.0000000000000000E+00     0.0000000000000000E+00 
    6.8750000000102829E-01     1.0000000000000000E+00     0.0000000000000000E+00 
    6.5625000000114431E-01     1.0000000000000000E+00     0.0000000000000000E+00 
    6.2500000000129829E-01     1.0000000000000000E+00     0.0000000000000000E+00 
    5.9375000000147926E-01     1.0000000000000000E+00     0.0000000000000000E+00 
    5.6250000000168354E-01     1.0000000000000000E+00     0.0000000000000000E+00 
    5.3125000000188671E-01     1.0000000000000000E+00     0.0000000000000000E+00 
    5.0000000000205835E-01     1.0000000000000000E+00     0.0000000000000000E+00 
    4.6875000000192979E-01     1.0000000000000000E+00     0.0000000000000000E+00 
    4.3750000000180111E-01     1.0000000000000000E+00     0.0000000000000000E+00 
    4.0625000000167238E-01     1.0000000000000000E+00     0.0000000000000000E+00 
    3.7500000000154382E-01     1.0000000000000000E+00     0.0000000000000000E+00 
    3.4375000000141509E-01     1.0000000000000000E+00     0.0000000000000000E+00 
    3.1250000000128642E-01     1.0000000000000000E+00     0.0000000000000000E+00 
    2.8125000000115769E-01     1.0000000000000000E+00     0.0000000000000000E+00 
    2.5000000000102918E-01     1.0000000000000000E+00     0.0000000000000000E+00 
    2.1875000000090050E-01     1.0000000000000000E+00     0.0000000000000000E+00 
    1.8750000000077180E-01     1.0000000000000000E+00     0.0000000000000000E+00 
    1.5625000000064329E-01     1.0000000000000000E+00     0.0000000000000000E+00 
    1.2500000000051459E-01     1.0000000000000000E+00     0.0000000000000000E+00 
    9.3750000000385914E-02     1.0000000000000000E+00     0.0000000000000000E+00 
    6.2500000000257239E-02     1.0000000000000000E+00     0.0000000000000000E+00 
    3.1250000000128557E-02     1.0000000000000000E+00     0.0000000000000000E+00 
    0.0000000000000000E+00     9.6875000000003686E-01     0.0000000000000000E+00 
    0.0000000000000000E+00     9.3750000000011691E-01     0.0000000000000000E+00 
    0.0000000000000000E+00     9.0625000000015765E-01     0.0000000000000000E+00 
    0.0000000000000000E+00     8.7500000000017863E-01     0.0000000000000000E+00 
    0.0000000000000000E+00     8.4375000000028044E-01     0.0000000000000000E+00 
    0.0000000000000000E+00     8.1250000000040856E-01     0.0000000000000000E+00 
    0.0000000000000000E+00     7.8125000000054956E-01     0.0000000000000000E+00 
    0.0000000000000000E+00     7.5000000000066480E-01     0.0000000000000000E+00 
    0.0000000000000000E+00     7.1875000000086831E-01     0.0000000000000000E+00 
    0.0000000000000000E+00     6.8750000000102829E-01     0.0000000000000000E+00 
    0.0000000000000000E+00     6.5625000000114431E-01     0.0000000000000000E+00 
    0.0000000000000000E+00     6.2500000000129829E-01     0.0000000000000000E+00 
    0.0000000000000000E+00     5.9375000000147926E-01     0.0000000000000000E+00 
    0.0000000000000000E+00     5.6250000000168354E-01     0.0000000000000000E+00 
    0.0000000000000000E+00     5.3125000000188671E-01     0.0000000000000000E+00 
    0.0000000000000000E+00     5.0000000000205835E-01     0.0000000000000000E+00 
    0.0000000000000000E+00     4.6875000000192979E-01     0.0000000000000000E+00 
    0.0000000000000000E+00     4.3750000000180111E-01     0.0000000000000000E+00 
    0.0000000000000000E+00     4.0625000000167238E-01     0.0000000000000000E+00 
[...]
CELL_DATA 2795 
SCALARS Pressure double 1 
LOOKUP_TABLE default 

    5.8037272490039191E+00 
    1.2882162693886158E+01 
    9.0812499982571566E+00 
    8.7240206265695672E+00 
    7.0450709272902596E+00 
    1.2758368845192852E+01 
    1.3422594570425010E+01 
    5.2107816681107586E+00 
    9.6113103369914938E+00 
    7.3048906452979159E+00 
    6.2104581372206153E+00 
    1.2528505360589595E+01 
    1.2809664213782611E+01 
    1.2730881510781895E+01 
    8.3444583420613370E+00 
    5.1234759409369035E+00 
    8.0731545973777372E+00 
    6.6182085664845829E+00 
    1.2202842579240606E+01 
    9.0717178337053710E+00 
    8.9624326929621798E+00 
    1.2671520739151727E+01 
    8.4915423339330243E+00 
    3.3801141085740716E-01 
    1.2541729781312860E+01 
    1.2770366896853776E+01 
    1.3452091905930487E+01 
    5.9622367622655057E+00 
    1.2456863502415167E+01 
    1.3441416954531524E+01 
    9.1518425735704536E+00 
    9.3035407272231865E+00 
    6.3872467524005003E+00 
    9.0415829643743795E+00 
    2.9770782812352903E+00 
    8.0743721405308069E+00 
    9.0314688922781414E+00 
    1.3477896591630021E+01 
    1.3402166086547863E+01 
    1.2540358123072906E+01 
    6.9912005360812479E+00 
    1.2510154253743819E+01 
    7.0826266743747590E-01 
    8.9513296471186514E+00 
    1.3259279825805301E+01 
    1.3088004435013548E+01 
    1.2518809404618576E+01 
    9.9266870352294738E+00 
    1.2583540088813075E+01 
    8.2494182102694520E+00 
    7.8818035587391941E+00 
    9.2716028257193628E+00 
    8.8422993715527234E+00 
    8.1208706908457717E+00 
    9.2204761919391736E+00 
    1.2014671721727661E+01 
    1.0828328878790108E+01 
    7.0811386115175159E+00 
    1.2675553301745831E+01 
    1.2607306633352403E+01 
    8.7474539834260181E+00 
    8.7197394962090851E+00 
    8.6388567004672101E+00 
    1.3352458501994112E+01 
    1.3607581918690027E+01 
    8.0845612688322284E+00 
    9.2694874169348278E+00 
    1.2442150480487520E+01 
    1.0641615332087598E+01 
    8.7537001669061514E+00 
    1.3599288813668215E+01 
    1.2636836379728081E+01 
    7.9762051066046835E+00 
    1.3172683856574785E+01 
    9.4395826286647004E+00 
    1.2401140108416756E+01 
    1.3494278096702716E+01 
    9.4197844997753197E+00 
    5.8727967653878403E+00 
    9.2871686601417842E+00 
    1.3409622506541849E+01 
    1.3621130327363897E+01 
    8.0952956536129843E+00 
    9.1978355436858426E+00 
    1.3663480767279717E+01 
    9.0351277727426602E+00 
    8.5660251315628386E+00 
    1.1013873598963059E+01 
    5.6381467550593154E+00 
    7.9050220686978463E+00 
    9.1975681255674520E+00 
    9.7407891357193588E+00 
    1.5029957644742138E+01 
    6.8563024628033791E+00 
    9.2770792293621298E+00 
    1.2499230238186962E+01 
    1.2765272349030544E+01 
    6.0797098088140604E+00 
    8.9070422515995897E+00 
    9.2284370206090518E+00 
    1.2783776617357422E+01 
    9.2330424054892859E+00 
    1.2721508973171682E+01 
    3.7005612064921678E+00 
    6.0350740538103311E+00 
    9.4842871642943383E+00 
    1.2888578081757290E+01 
    8.0437856086816684E+00 
    8.5603070930361387E+00 
    9.2195603531122838E+00 
    8.5412461249177536E+00 
    1.0482452813938167E+01 
    8.3335188886355311E+00 
    7.9814914706023963E+00 
    6.3796677908493145E+00 
    1.0777688391135460E+01 
    9.3050420934065379E+00 
    1.3274599068702347E+01 
    7.9515715244742102E+00 
    8.7112425642615801E+00 
    1.2622930393237668E+01 
    7.3583981047727560E+00 
    1.3035748102302557E+01 
    9.1158073453574797E+00 
    8.6480865531390716E+00 
    1.2766746925633102E+01 
    9.2996717706301428E+00 
    1.3500189499479282E+01 
    1.1026226822843379E+01 
    1.1877779319304933E+01 
    1.3467615258505608E+01 
    6.8690006502133629E+00 
    9.5036691821007775E+00 
    1.2759893695844339E+01 
    2.7633165362014274E+00 
    9.1997871821862223E+00 
    1.3436836709734457E+01 
    8.6762529701743141E+00 
    1.0008078450133281E+01 
    6.0255742827249570E+00 
    1.2498540683220343E+01 
    1.5492616684119012E+01 
    1.1444737990750149E+01 
    8.6723258938037571E+00 
    7.8165459726424045E+00 
    9.8196756886056207E+00 
    9.1337066546725474E+00 
    6.2729993381545688E+00 
    1.3462070812261558E+01 
    1.2842912141244884E+01 
    1.2500854809341661E+01 
    9.7438113484699578E+00 
    7.9555551007394394E+00 
    8.9611039480754791E+00 
    1.3195069538120999E+01 
    8.1565479758034805E+00 
    9.0944941012650808E+00 
    8.2922044154746768E+00 
    1.0549128171346739E+01 
    1.5481412091920486E+01 
    1.2492919606559806E+01 
    7.9231660128364858E+00 
    1.2941251322214971E+01 
    1.2851895409619226E+01 
    1.2924479862777687E+01 
    1.3846252417826237E+01 
    1.4351742840125759E+01 
    1.3081474975519367E+01 
    9.2612576274725811E+00 
    9.8968519470874607E+00 
    1.2921259131142381E+01 
    1.3286325168255846E+01 
    6.5349095693384811E+00 
    1.2518259156225435E+01 
    1.3158731217986773E+01 
    6.3760242690422766E+00 
    1.3767297846459448E+01 
    1.3752818681023230E+01 
    1.2265172329247891E+01 
    9.5631434316499480E+00 
    2.4597099890827003E+00 
    1.3435781723537131E+01 
    9.4327148952421140E+00 
    1.3553686439770928E+01 
    8.6186395147406483E+00 
    1.3285321150770125E+01 
    8.6966827639122379E-01 
    1.1891735533872975E+01 
    8.7613354610660075E+00 
    7.9213244389368898E+00 
    7.7307109740976401E+00 
    9.0848297273245429E+00 
    1.0157099726081357E+01 
    9.4423541832907691E+00 
    6.4471520919057737E+00 
    1.3279612842700011E+01 
    1.2779401680533972E+01 
    1.0753450657916039E+01 
    9.4780108225986410E+00 
    1.4016815463699093E+00 
    7.1694094733215312E+00 
    5.0319791139569370E+00 
    1.3453206140005488E+01 
    1.0280235772000481E+01 
    1.2826053785164538E+01 
    1.2841760047775555E+01 
    8.2350180109342883E+00 
    1.0809307835403349E+01 
    1.2496131032656784E+01 
    1.3739321309569027E+01 
    6.0139029637304073E+00 
    1.1287265467210252E+01 
    9.4872682567749802E+00 
    5.3739161748971132E+00 
    8.2163829446945353E+00 
    1.1302405621032094E+01 
    1.2805468266329335E+01 
    9.1416501945172222E+00 
    1.2905499056651607E+01 
    1.2693544435031720E+01 
    1.2646651139610828E+01 
    8.9678517313586692E+00 
    7.8673063652987141E+00 
    1.2508543007506738E+01 
    7.9724138576736552E+00 
    9.2366876795129897E+00 
    7.8283985631566546E+00 
    9.0378541987412397E+00 
    1.2851284611551661E+01 
    5.6918666246639260E+00 
    8.1431471542806548E+00 
    1.3375298971235688E+01 
    8.9819074144950175E+00 
    1.0180916081635228E+01 
    5.8405872457765273E+00 
    8.0216157255321168E+00 
    1.2674306295185236E+01 
    1.2955996108896388E+01 
    4.7829509489184590E+00 
    8.9851537543855873E+00 
    7.8676434274998153E+00 
    1.4132659224336873E+01 
    1.3630369862680990E+01 
    1.4376191660874060E+01 
    9.0062078241693015E+00 
    1.2824658097862550E+01 
    1.2457143586105698E+01 
    8.8833071596083801E+00 
    1.2500945418762699E+01 
    9.4801389780014880E+00 
    5.4111022219717171E+00 
    9.2398480996049805E+00 
    1.3363384856360561E+01 
    1.2498005710610791E+01 
    6.1736843370275816E+00 
    1.2524580517568571E+01 
    1.0170833798500926E+01 
    9.1832013408109692E+00 
    8.7477369110038801E+00 
    1.2377767850858444E+01 
    9.6671607227027003E+00 
    1.2513091659757379E+01 
    8.8920738211888022E+00 
    5.5466947262418662E+00 
    9.3062097980510536E+00 
    7.7372849864564186E+00 
    1.1449233884467182E+01 
    1.3546026151670505E+01 
    1.2507371075263029E+01 
    1.3430216287984932E+01 
    8.9313631446286088E+00 
    6.0237365468873287E+00 
    6.1065933970775008E+00 
    9.3553549336492878E+00 
    9.2127163372508889E+00 
    1.3498956361817285E+00 
    1.2058498879107308E+01 
    1.3877436710833209E+01 
    8.6271167616496509E+00 
    5.6678677627883909E+00 
    1.0501029744204944E+01 
    1.2523210526699895E+01 
    6.6561087266696317E+00 
    4.5384547846469108E+00 
    9.1850534339124028E+00 
    1.2605826194070849E+01 
    1.3193864486801838E+01 
    1.3090868543071336E+01 
    1.2957601294827038E+01 
    6.5124915578856886E+00 
    9.1746060477055149E+00 
    1.2095124804750300E+01 
    7.1705779451170315E+00 
    1.2797749814816127E+01 
    1.1030461386532215E+01 
    6.1919952136874787E+00 
    1.2621681207917968E+01 
    1.3458390045367773E+01 
    1.2650239765346914E+01 
    6.4252271066921871E+00 
    9.2656176614214036E+00 
    7.0243501617597195E+00 
    8.7287526881091733E+00 
    1.2515556566796105E+01 
    1.2504976246558238E+01 
    6.4609625825993522E+00 
    1.3320732339578690E+01 
    9.7680309976763642E+00 
    1.2538818973298019E+01 
    1.3301701254846575E+01 
    1.2525838188003727E+01 
    1.1665722420669580E+01 
    1.4181581053553119E+01 
    8.5978686211173052E+00 
    1.3402166147101044E+01 
    1.2564936803699780E+01 
    1.3468990922221931E+01 
    1.3313994193021646E+01 
    8.6827733613575209E+00 
    9.0735082372275464E+00 
    8.6178286840828342E+00 
    1.1219822798373016E+01 
    3.7102378549674366E+00 
    9.2957952338269756E+00 
    1.4300276988926285E+01 
    9.4803768047085271E+00 
    9.6535579529390443E+00 
    1.3443715406528053E+01 
    1.3662897062285559E+01 
    8.5608210481611184E+00 
    1.2528452335810762E+01 
    1.2502018744213119E+01 
    9.6420924421570309E+00 
    1.3271810221273745E+01 
    6.5084293388587158E+00 
    4.1833265005444824E+00 
    9.9020114495359390E+00 
    9.4937158778400637E+00 
    1.2506605837069758E+01 
    6.0652586472891699E+00 
    1.3012603082678174E+01 
    4.2651812255003207E+00 
    9.4323775749731560E+00 
    8.7417594295316974E+00 
    9.2413763765182555E+00 
    1.5530413776894644E+01 
    3.6051381118687607E+00 
    9.2170256946253986E+00 
    1.0967361025714760E+01 
    8.8389582515491458E+00 
    7.0809497240175832E+00 
    1.3119058374637484E+01 
    1.5117290452113785E+01 
    1.3258090858546302E+01 
    9.1626353376023637E+00 
    5.3563895278028664E+00 
    1.4973893573543204E+01 
    1.2772635014669843E+01 
    6.6906580821480626E+00 
    8.7995908281165676E+00 
    1.3830498551753806E+01 
    3.0560409981274574E+00 
    9.5401467681238081E+00 
    1.3241085027318785E+01 
    9.2548246018481670E+00 
    8.0307765266894631E+00 
    9.2548833799383310E+00 
    1.2306338843590497E+01 
    9.2339863103113533E+00 
    4.7870341326818835E+00 
    8.5706333054580797E-01 
    6.8339903998720786E+00 
    1.4031270785450872E+01 
    8.6159547637257425E+00 
    1.0469839528166167E+01 
    9.9600366451183291E+00 
    1.1537920785663763E+01 
    9.2682223911419310E+00 
    1.2690414681747562E+01 
    1.5544043092130279E+01 
    1.0931933382730488E+01 
    1.3376517626799023E+01 
    5.0306899559775387E-01 
    1.2506692978827656E+01 
    5.1985293562029584E+00 
    1.4459319727399343E+01 
    9.2299884792051259E+00 
    8.1487057608300386E+00 
    7.1546498280548816E+00 
    4.9914563716214593E+00 
    1.0327089912872452E+01 
    7.2419977681278969E+00 
    1.1353404248937414E+01 
    2.0888272182995160E+00 
    1.0202675965510949E+01 
    1.2445462576329518E+01 
    5.5451703409719668E+00 
    1.2967844767655595E+01 
    1.4285156052648260E+01 
    1.2824057518056712E+01 
    9.1074107286168680E+00 
    9.2360287273611306E+00 
    9.2230335670567829E+00 
    5.4341778436398185E+00 
    8.3836801873678173E+00 
    8.2532597282402342E+00 
    9.2126565124729787E+00 
    8.5614047982792556E+00 
    6.3988974351871020E-01 
    5.9521390822472142E+00 
    8.9061669052983881E+00 
    9.1898014562894605E+00 
    1.1664949129863311E+01 
    1.9997557384739386E+00 
    9.6048997452985478E+00 
    9.4983529971210583E+00 
    3.4640348282088405E+00 
    1.2695505411628670E+01 
    7.9907624505459518E+00 
    9.3661189953264952E+00 
    1.2774429938976480E+01 
    5.0424651451193796E+00 
    1.2813229687427155E+01 
    8.0807597999506893E+00 
    9.0926928015594466E-01 
    8.6712919496117777E+00 
    1.3332480989747920E+01 
    1.2507086935649811E+01 
    1.2525820539813132E+01 
    9.5513268346274263E+00 
    9.4362086308549564E+00 
    7.9696780170076851E+00 
    6.4597890520813976E+00 
    1.2881526367635241E+01 
    8.7992338108147070E+00 
    6.2189615397833604E+00 
    1.2520512827688933E+01 
    1.3162860583628325E+01 
    9.3761082262154822E+00 
    9.0290978754746529E+00 
    1.5430101897766429E+01 
    9.6429034040803359E+00 
    1.2888826837903673E+01 
    7.6006212904005643E+00 
    1.5572032510290818E+01 
    6.0705957294047979E+00 
    8.3365637213301103E+00 
    6.7881892238285850E+00 
    9.8554414396262686E+00 
    7.8020983743265759E+00 
    1.5556133288009418E+01 
    9.6871051067251184E+00 
    1.2243500991240253E+01 
    6.2415026460773104E+00 
    9.2662576642592214E+00 
    1.2739921267389683E+01 
    7.8207428520598965E+00 
    6.7362827522075985E+00 
    1.0191153576610253E+01 
    1.2943357750784608E+01 
    6.7011659965605492E+00 
    8.7588448863463846E+00 
    9.0569717405567065E+00 
    1.2484558328616160E+01 
    8.8648132466370519E+00 
    1.2921960303123344E+01 
    1.3495944262979142E+01 
    7.9925813700316715E+00 
    7.8456956051349991E+00 
    7.2818971490569986E+00 
    1.2617803570965540E+01 
    9.5172382758422636E+00 
    1.5152896910553903E+01 
    1.1882971662236928E+01 
    1.2704823652872323E+01 
    1.4854570389001601E+01 
    1.4288027027403993E+01 
    9.3114966744144088E+00 
    9.1987417154478148E+00 
    1.2292156100097142E+01 
    1.2540894600349141E+01 
    1.3045367832228733E+01 
    1.2793863893924668E+01 
    1.5448637799718805E+01 
    9.6424742694918901E+00 
    8.0797776146546969E+00 
    9.6373851642658224E+00 
    1.3415325588161988E+01 
    9.4063410821433386E+00 
    5.4382682199250318E+00 
    9.0928071091312184E+00 
    1.3803799693838602E+01 
    9.5314169657326691E+00 
    8.0834640467073662E+00 
    8.9966802322344801E+00 
    1.3903978409757061E+01 
    1.2558547006274871E+01 
    7.7121042680365504E+00 
    1.4033050587693960E+01 
    9.3416865307005175E+00 
    1.3019227006038470E+01 
    1.3917400521998076E+01 
    9.7877482231900785E+00 
    5.0387034472084435E+00 
    1.0174648334896890E+01 
    5.2107661426067917E+00 
    9.4515444999087901E+00 
    9.2546042212424897E+00 
    1.0700300828361144E+01 
    5.5007981110698321E+00 
    1.1357518628000161E+01 
    9.2779907499112593E+00 
    1.2783415455793824E+01 
    9.7437680917228242E+00 
    7.5299739318666230E+00 
    8.8768040175146403E+00 
    9.6993129216732257E+00 
    9.7385875359789473E+00 
    1.3547948402528304E+01 
    7.7473767018930486E+00 
    7.6204085726391009E+00 
    5.7706357323445001E+00 
    1.3063645196778438E+01 
    8.9160592781179293E+00 
    1.2373758376468533E+01 
    9.2243060294914532E+00 
    6.2834562673496714E+00 
    1.2589701867618496E+01 
    9.1967497298833045E+00 
    6.8215428689077608E+00 
    7.2045348690838251E+00 
    7.4448124118057013E+00 
    1.2815047499117094E+01 
    9.2145047115780585E+00 
    1.3386627002225627E+01 
    9.1529986627219220E+00 
    9.0893801601007649E+00 
    8.6839258376004729E+00 
    1.2665251142280425E+01 
    9.0055257667249755E+00 
    7.4809534732562684E+00 
    1.4274980942622550E+01 
    1.2740643657365935E+01 
    6.3576561257827446E+00 
    2.5311677479136190E+00 
    9.2044027666372319E+00 
    8.6245962238227936E+00 
    7.8438248043732051E+00 
    8.5093826943955158E+00 
    1.2690898626853862E+01 
    8.9397548982873012E+00 
    8.1306874733034284E+00 
    1.2561047354387664E+01 
    6.3020233234548773E+00 
    1.2256141144769641E+01 
    8.3304562522141037E+00 
    7.4337378135470544E+00 
    7.9115787420245276E+00 
    1.3097097748976406E+01 
    9.2446769473975898E+00 
    9.2533123482964861E+00 
    5.5829006896528526E+00 
    6.0082264848740481E+00 
    1.1672727271534631E+01 
    9.2634894610270635E+00 
    9.2422184077437866E+00 
    1.4017126410791807E+01 
    7.6176256283976667E+00 
    9.2757561993356603E+00 
    6.5219366614320311E+00 
    6.7340091823949759E+00 
    1.2663239334611339E+01 
    8.8968293934242428E+00 
    6.5877628729200550E+00 
    9.7497482595213771E+00 
    9.1362826733769538E+00 
    1.2664509881184111E+01 
    1.4104738916735824E+01 
    9.7315868966056784E-01 
    9.2089459052811407E+00 
    9.4921249339716258E+00 
    1.2720391137449832E+01 
    8.7358391332154852E+00 
    9.2175212007792879E+00 
    1.3603445660006106E+01 
    7.9388048901190427E+00 
    6.6426437914446073E+00 
    1.1185775532014882E+01 
    1.2519626942921994E+01 
    1.3469244527708067E+01 
    1.3713851236057566E+01 
    9.0635481697948475E+00 
    9.2014398004532456E+00 
    1.0386865185539820E+01 
    6.0424012192815422E+00 
    1.2634765256398742E+01 
    7.1300389810455016E+00 
    6.2920130188802714E+00 
    1.1594431164209956E+01 
    1.0892226803902213E+01 
    6.1700909696608477E+00 
    1.2553268503063761E+01 
    1.3455351251955193E+01 
    9.6570101461275808E+00 
    1.4199808967780436E+01 
    1.2582787542476691E+01 
    8.8101788348729055E+00 
    1.3209418229537583E+01 
    6.7344959072529109E+00 
    1.2535864069000155E+01 
    9.2081331400691440E+00 
    9.1705459534067444E+00 
    1.4176373711463153E+01 
    8.9472990123126479E+00 
    1.1319978156261033E+01 
    7.8943421420262165E+00 
    1.3564275987276739E+01 
    1.2451177429009505E+01 
    8.2157922970178898E+00 
    1.2498149596759506E+01 
    8.3246719878181210E+00 
    9.2290012830416046E+00 
    1.3417615061750610E+01 
    1.2794088176148705E+01 
    1.3458539473557396E+01 
    1.2724222508702113E+01 
    8.3925049864888699E+00 
    8.5966168257588436E+00 
    1.3464502165483381E+01 
    8.7061074534648881E+00 
    1.2388674000504395E+01 
    8.9377834477084512E+00 
    3.7444174088546895E+00 
    6.3559675895828409E+00 
    5.8913768909399877E+00 
    1.3420603668641288E+01 
    1.4109988223959659E+01 
    1.2514761209578749E+01 
    1.0687000916677366E+01 
    1.2778665522521811E+01 
    1.2558329860532144E+01 
    1.3095605710335672E+01 
    5.3971024722128247E+00 
    3.4850676959877789E+00 
    1.0492966503607532E+01 
    8.8834362401321023E+00 
    1.2692486448483148E+01 
    1.2690311761126420E+01 
    9.5105002927554292E+00 
    1.2724071867223678E+01 
    9.1962522816107999E+00 
    9.1035187787813303E+00 
    4.8721763087782231E+00 
    3.4704063014340525E+00 
    1.3900118662718894E+01 
    7.1581166615539233E+00 
    8.1562495146825427E+00 
    9.4133246846511547E+00 
    1.5430805274645886E+01 
    9.5009281067870184E+00 
    9.4922504139811590E+00 
    3.9295431317798797E+00 
    9.5020818738649862E+00 
    9.5150486285585441E+00 
    1.2993290347473245E+01 
    7.9186520978567341E+00 
    8.8119078571638614E+00 
    1.4058357626908711E+01 
    9.2166416296070093E+00 
    1.2529423495433967E+01 
    1.2776995358922049E+01 
    1.1393684203058827E+01 
    7.7910459595354551E+00 
    1.2724765862870202E+01 
    9.0193810209575478E+00 
    1.2711890043669628E+01 
    1.2472081221662537E+01 
    1.3438636284330299E+01 
    1.2719500972156915E+01 
    1.1932184549638945E+01 
    9.2064179595817315E+00 
    6.1224926260298931E+00 
    1.5309233056726949E+01 
    7.2708273114182314E+00 
    1.3367745306753307E+01 
    9.2039635204936872E+00 
    7.6664845310235838E+00 
    4.5641558703996834E+00 
    9.5476203828466240E+00 
    1.2711293051606008E+01 
    1.2710151783617716E+01 
    9.2090441114018518E+00 
    9.1984313381149061E+00 
    1.4254738762470671E+01 
    1.3660756757837486E+01 
    9.5181278153113205E+00 
    3.2419810158644786E+00 
    1.1908407093319980E+01 
    1.5554544791602577E+01 
    9.2095670807627350E+00 
    1.1031754759525139E+01 
    8.7326462493350103E+00 
    1.5173954175742669E+01 
    1.3735897848645946E+01 
    1.3507219201263334E+01 
    9.5381753026411840E+00 
    4.2762982521444881E+00 
    8.6948391378952916E+00 
    8.7560873779671553E+00 
    8.7999584807304316E+00 
    3.5254824601698727E+00 