# vtk DataFile Version 2.0
Pressure Field Data 
ASCII 
DATASET UNSTRUCTURED_GRID 

POINTS 2860 double 

    0.0000000000000000E+00     0.0000000000000000E+00     0.0000000000000000E+00 
    1.0000000000000000E+00     0.0000000000000000E+00     0.0000000000000000E+00 
    1.0000000000000000E+00     1.0000000000000000E+00     0.0000000000000000E+00 
    0.0000000000000000E+00     1.0000000000000000E+00     0.0000000000000000E+00 
    2.5000000000000000E-01     2.5000000000000000E-01     0.0000000000000000E+00 
    7.5000000000000000E-01     2.5000000000000000E-01     0.0000000000000000E+00 
    7.5000000000000000E-01     7.5000000000000000E-01     0.0000000000000000E+00 
    2.5000000000000000E-01     7.5000000000000000E-01     0.0000000000000000E+00 
    3.1249999999942091E-02     0.0000000000000000E+00     0.0000000000000000E+00 
    6.2499999999873469E-02     0.0000000000000000E+00     0.0000000000000000E+00 
    9.3749999999826514E-02     0.0000000000000000E+00     0.0000000000000000E+00 
    1.2499999999977961E-01     0.0000000000000000E+00     0.0000000000000000E+00 
    1.5624999999968961E-01     0.0000000000000000E+00     0.0000000000000000E+00 
    1.8749999999959971E-01     0.0000000000000000E+00     0.0000000000000000E+00 
    2.1874999999950970E-01     0.0000000000000000E+00     0.0000000000000000E+00 
    2.4999999999941969E-01     0.0000000000000000E+00     0.0000000000000000E+00 
    2.8124999999932920E-01     0.0000000000000000E+00     0.0000000000000000E+00 
    3.1249999999923850E-01     0.0000000000000000E+00     0.0000000000000000E+00 
    3.4374999999914790E-01     0.0000000000000000E+00     0.0000000000000000E+00 
    3.7499999999905720E-01     0.0000000000000000E+00     0.0000000000000000E+00 
    4.0624999999896660E-01     0.0000000000000000E+00     0.0000000000000000E+00 
    4.3749999999887590E-01     0.0000000000000000E+00     0.0000000000000000E+00 
    4.6874999999878530E-01     0.0000000000000000E+00     0.0000000000000000E+00 
    4.9999999999869471E-01     0.0000000000000000E+00     0.0000000000000000E+00 
    5.3124999999877620E-01     0.0000000000000000E+00     0.0000000000000000E+00 
    5.6249999999885780E-01     0.0000000000000000E+00     0.0000000000000000E+00 
    5.9374999999893940E-01     0.0000000000000000E+00     0.0000000000000000E+00 
    6.2499999999902101E-01     0.0000000000000000E+00     0.0000000000000000E+00 
    6.5624999999910261E-01     0.0000000000000000E+00     0.0000000000000000E+00 
    6.8749999999918421E-01     0.0000000000000000E+00     0.0000000000000000E+00 
    7.1874999999926570E-01     0.0000000000000000E+00     0.0000000000000000E+00 
    7.4999999999934730E-01     0.0000000000000000E+00     0.0000000000000000E+00 
    7.8124999999942890E-01     0.0000000000000000E+00     0.0000000000000000E+00 
    8.1249999999951039E-01     0.0000000000000000E+00     0.0000000000000000E+00 
    8.4374999999959199E-01     0.0000000000000000E+00     0.0000000000000000E+00 
    8.7499999999967359E-01     0.0000000000000000E+00     0.0000000000000000E+00 
    9.0624999999975520E-01     0.0000000000000000E+00     0.0000000000000000E+00 
    9.3749999999983680E-01     0.0000000000000000E+00     0.0000000000000000E+00 
    9.6874999999991840E-01     0.0000000000000000E+00     0.0000000000000000E+00 
    1.0000000000000000E+00     3.1249999999942091E-02     0.0000000000000000E+00 
    1.0000000000000000E+00     6.2499999999873469E-02     0.0000000000000000E+00 
    1.0000000000000000E+00     9.3749999999826514E-02     0.0000000000000000E+00 
    1.0000000000000000E+00     1.2499999999977961E-01     0.0000000000000000E+00 
    1.0000000000000000E+00     1.5624999999968961E-01     0.0000000000000000E+00 
    1.0000000000000000E+00     1.8749999999959971E-01     0.0000000000000000E+00 
    1.0000000000000000E+00     2.1874999999950970E-01     0.0000000000000000E+00 
    1.0000000000000000E+00     2.4999999999941969E-01     0.0000000000000000E+00 
    1.0000000000000000E+00     2.8124999999932920E-01     0.0000000000000000E+00 
    1.0000000000000000E+00     3.1249999999923850E-01     0.0000000000000000E+00 
    1.0000000000000000E+00     3.4374999999914790E-01     0.0000000000000000E+00 
    1.0000000000000000E+00     3.7499999999905720E-01     0.0000000000000000E+00 
    1.0000000000000000E+00     4.0624999999896660E-01     0.0000000000000000E+00 
    1.0000000000000000E+00     4.3749999999887590E-01     0.0000000000000000E+00 
    1.0000000000000000E+00     4.6874999999878530E-01     0.0000000000000000E+00 
    1.0000000000000000E+00     4.9999999999869471E-01     0.0000000000000000E+00 
    1.0000000000000000E+00     5.3124999999877620E-01     0.0000000000000000E+00 
    1.0000000000000000E+00     5.6249999999885780E-01     0.0000000000000000E+00 
    1.0000000000000000E+00     5.9374999999893940E-01     0.0000000000000000E+00 
    1.0000000000000000E+00     6.2499999999902101E-01     0.0000000000000000E+00 
    1.0000000000000000E+00     6.5624999999910261E-01     0.0000000000000000E+00 
    1.0000000000000000E+00     6.8749999999918421E-01     0.0000000000000000E+00 
    1.0000000000000000E+00     7.1874999999926570E-01     0.0000000000000000E+00 
    1.0000000000000000E+00     7.4999999999934730E-01     0.0000000000000000E+00 
    1.0000000000000000E+00     7.8124999999942890E-01     0.0000000000000000E+00 
    1.0000000000000000E+00     8.1249999999951039E-01     0.0000000000000000E+00 
    1.0000000000000000E+00     8.4374999999959199E-01     0.0000000000000000E+00 
    1.0000000000000000E+00     8.7499999999967359E-01     0.0000000000000000E+00 
    1.0000000000000000E+00     9.0624999999975520E-01     0.0000000000000000E+00 
    1.0000000000000000E+00     9.3749999999983680E-01     0.0000000000000000E+00 
    1.0000000000000000E+00     9.6874999999991840E-01     0.0000000000000000E+00 
    9.6875000000003686E-01     1.0000000000000000E+00     0.0000000000000000E+00 
    9.3750000000011691E-01     1.0000000000000000E+00     0.0000000000000000E+00 
    9.0625000000015765E-01     1.0000000000000000E+00     0.0000000000000000E+00 
    8.7500000000017863E-01     1.0000000000000000E+00     0.0000000000000000E+00 
    8.4375000000028044E-01     1.0000000000000000E+00     0.0000000000000000E+00 
    8.1250000000040856E-01     1.0000000000000000E+00     0.0000000000000000E+00 
    7.8125000000054956E-01     1.0000000000000000E+00     0.0000000000000000E+00 
    7.5000000000066480E-01     1.0000000000000000E+00     0.0000000000000000E+00 
    7.1875000000086831E-01     1.0000000000000000E+00     0.0000000000000000E+00 
    6.8750000000102829E-01     1.0000000000000000E+00     0.0000000000000000E+00 
    6.5625000000114431E-01     1.0000000000000000E+00     0.0000000000000000E+00 
    6.2500000000129829E-01     1.0000000000000000E+00     0.0000000000000000E+00 
    5.9375000000147926E-01     1.0000000000000000E+00     0.0000000000000000E+00 
    5.6250000000168354E-01     1.0000000000000000E+00     0.0000000000000000E+00 
    5.3125000000188671E-01     1.0000000000000000E+00     0.0000000000000000E+00 
    5.0000000000205835E-01     1.0000000000000000E+00     0.0000000000000000E+00 
    4.6875000000192979E-01     1.0000000000000000E+00     0.0000000000000000E+00 
    4.3750000000180111E-01     1.0000000000000000E+00     0.0000000000000000E+00 
    4.0625000000167238E-01     1.0000000000000000E+00     0.0000000000000000E+00 
    3.7500000000154382E-01     1.0000000000000000E+00     0.0000000000000000E+00 
    3.4375000000141509E-01     1.0000000000000000E+00     0.0000000000000000E+00 
    3.1250000000128642E-01     1.0000000000000000E+00     0.0000000000000000E+00 
    2.8125000000115769E-01     1.0000000000000000E+00     0.0000000000000000E+00 
    2.5000000000102918E-01     1.0000000000000000E+00     0.0000000000000000E+00 
    2.1875000000090050E-01     1.0000000000000000E+00     0.0000000000000000E+00 
    1.8750000000077180E-01     1.0000000000000000E+00     0.0000000000000000E+00 
    1.5625000000064329E-01     1.0000000000000000E+00     0.0000000000000000E+00 
    1.2500000000051459E-01     1.0000000000000000E+00     0.0000000000000000E+00 
    9.3750000000385914E-02     1.0000000000000000E+00     0.0000000000000000E+00 
    6.2500000000257239E-02     1.0000000000000000E+00     0.0000000000000000E+00 
    3.1250000000128557E-02     1.0000000000000000E+00     0.0000000000000000E+00 
    0.0000000000000000E+00     9.6875000000003686E-01     0.0000000000000000E+00 
    0.0000000000000000E+00     9.3750000000011691E-01     0.0000000000000000E+00 
    0.0000000000000000E+00     9.0625000000015765E-01     0.0000000000000000E+00 
    0.0000000000000000E+00     8.7500000000017863E-01     0.0000000000000000E+00 
    0.0000000000000000E+00     8.4375000000028044E-01     0.0000000000000000E+00 
    0.0000000000000000E+00     8.1250000000040856E-01     0.0000000000000000E+00 
    0.0000000000000000E+00     7.8125000000054956E-01     0.0000000000000000E+00 
    0.0000000000000000E+00     7.5000000000066480E-01     0.0000000000000000E+00 
    0.0000000000000000E+00     7.1875000000086831E-01     0.0000000000000000E+00 
    0.0000000000000000E+00     6.8750000000102829E-01     0.0000000000000000E+00 
    0.0000000000000000E+00     6.5625000000114431E-01     0.0000000000000000E+00 
    0.0000000000000000E+00     6.2500000000129829E-01     0.0000000000000000E+00 
    0.0000000000000000E+00     5.9375000000147926E-01     0.0000000000000000E+00 
    0.0000000000000000E+00     5.6250000000168354E-01     0.0000000000000000E+00 
    0.0000000000000000E+00     5.3125000000188671E-01     0.0000000000000000E+00 
    0.0000000000000000E+00     5.0000000000205835E-01     0.0000000000000000E+00 
    0.0000000000000000E+00     4.6875000000192979E-01     0.0000000000000000E+00 
    0.0000000000000000E+00     4.3750000000180111E-01     0.0000000000000000E+00 
    0.0000000000000000E+00     4.0625000000167238E-01     0.0000000000000000E+00 
[...]
CELL_DATA 2795 
SCALARS Pressure double 1 
LOOKUP_TABLE default 

    5.7109767423849691E+00 
    1.2691898106912143E+01 
    8.9524121544887425E+00 
    8.5900688106349961E+00 
    6.9345251192925552E+00 
    1.2570593152990915E+01 
    1.3226283134589497E+01 
    5.1269636221191082E+00 
    9.4752029565079461E+00 
    7.2046656831986322E+00 
    6.1243464749063321E+00 
    1.2344002493185998E+01 
    1.2619416714590486E+01 
    1.2543454619186004E+01 
    8.2267753093591161E+00 
    5.0415210380266906E+00 
    7.9461305833109241E+00 
    6.5268142568909928E+00 
    1.2023360058857980E+01 
    8.9428261679191277E+00 
    8.8336477987288617E+00 
    1.2484946646677312E+01 
    8.3600298259820978E+00 
    3.3356381185895090E-01 
    1.2355513506472617E+01 
    1.2581524896170555E+01 
    1.3255520675404650E+01 
    5.8834798894803981E+00 
    1.2273356183238441E+01 
    1.3245167598064672E+01 
    9.0191303181144882E+00 
    9.1806674174556644E+00 
    6.3108304641530308E+00 
    8.9124756267628840E+00 
    2.9338742011009034E+00 
    7.9473040003899138E+00 
    8.9024023460035178E+00 
    1.3281332177134928E+01 
    1.3206170865830622E+01 
    1.2355733322117805E+01 
    6.8788635469109334E+00 
    1.2324922805929805E+01 
    6.9868683650621033E-01 
    8.8158073694120915E+00 
    1.3063001972382548E+01 
    1.2894165593999219E+01 
    1.2334410572418726E+01 
    9.7896402352914969E+00 
    1.2398300456340106E+01 
    8.1200738381394704E+00 
    7.7572337987034388E+00 
    9.1481407080159514E+00 
    8.7067015312562805E+00 
    7.9930380254702555E+00 
    9.0879317823368382E+00 
    1.1838085848781368E+01 
    1.0680669020373863E+01 
    6.9699878886972852E+00 
    1.2488921176137362E+01 
    1.2421656400204188E+01 
    8.6167806666128310E+00 
    8.5954572407627108E+00 
    8.5056688534130025E+00 
    1.3157122168485440E+01 
    1.3407697621790700E+01 
    7.9573002622735824E+00 
    9.1461494675959560E+00 
    1.2258932216623439E+01 
    1.0490532691816208E+01 
    8.6285986173618117E+00 
    1.3401383884756257E+01 
    1.2449612855104993E+01 
    7.8498910732426062E+00 
    1.2977670989915554E+01 
    9.3071284781260957E+00 
    1.2216799565969696E+01 
    1.3297283841968683E+01 
    9.2763033763460481E+00 
    5.7737102306646522E+00 
    9.1633866244762388E+00 
    1.3213469380507641E+01 
    1.3423219488310805E+01 
    7.9683962859974420E+00 
    9.0728508792831324E+00 
    1.3464916893307866E+01 
    8.9059945878173412E+00 
    8.4336249766892184E+00 
    1.0856098616219620E+01 
    5.5453937208390753E+00 
    7.7799637472882637E+00 
    9.0734190872206444E+00 
    9.6021344937434208E+00 
    1.4823168617563306E+01 
    6.7484810461180667E+00 
    9.1535609290398146E+00 
    1.2315070837779732E+01 
    1.2575804421011513E+01 
    5.9825897501263334E+00 
    8.7791902561166246E+00 
    9.1030698119265914E+00 
    1.2594025090708929E+01 
    9.1112416961282712E+00 
    1.2532752555524308E+01 
    3.6451096617977381E+00 
    5.9514065675188901E+00 
    9.3565769166552730E+00 
    1.2698260201476115E+01 
    7.9168569443006449E+00 
    8.4318471175951224E+00 
    9.0970093327116732E+00 
    8.4088906074509406E+00 
    1.0343065383384358E+01 
    8.2069875361442310E+00 
    7.8554418696673523E+00 
    6.2744435579743003E+00 
    1.0616514567247542E+01 
    9.1824124683857953E+00 
    1.3080043009554661E+01 
    7.8437071514534997E+00 
    8.5777216259124778E+00 
    1.2436033027906509E+01 
    7.2413975827875321E+00 
    1.2843087362803971E+01 
    8.9880662322808274E+00 
    8.5148482871237530E+00 
    1.2577314818975793E+01 
    9.1756009933613623E+00 
    1.3303145955526656E+01 
    1.0867760909653040E+01 
    1.1703986092804637E+01 
    1.3270882082780425E+01 
    6.7610063814927548E+00 
    9.3748839227034324E+00 
    1.2571133656959008E+01 
    2.7230397583718808E+00 
    9.0672272553205602E+00 
    1.3240450800596991E+01 
    8.5430631074300596E+00 
    9.8568633910815215E+00 
    5.9258053490885922E+00 
    1.2314549452789333E+01 
    1.5284447039391225E+01 
    1.1279235885667564E+01 
    8.5388294468928585E+00 
    7.6930725251685672E+00 
    9.6876594469382944E+00 
    9.0065610961029652E+00 
    6.1873828841494776E+00 
    1.3265368292037175E+01 
    1.2657011172250835E+01 
    1.2316679550522716E+01 
    9.6086086376424564E+00 
    7.8299845511467039E+00 
    8.8324499982437708E+00 
    1.3000112372872344E+01 
    8.0282431964752679E+00 
    8.9554179676823615E+00 
    8.1624255510839614E+00 
    1.0391445778860728E+01 
    1.5273284164358360E+01 
    1.2308858239226495E+01 
    7.7951514526530641E+00 
    1.2749491301276462E+01 
    1.2662016039476997E+01 
    1.2733728854899047E+01 
    1.3646136258750058E+01 
    1.4148247098391190E+01 
    1.2887290676789142E+01 
    9.1381633063314567E+00 
    9.7474865405118880E+00 
    1.2729347260861831E+01 
    1.3091455302072783E+01 
    6.4473636658033620E+00 
    1.2333856919774233E+01 
    1.2964238865860619E+01 
    6.2888157997306857E+00 
    1.3566824820390256E+01 
    1.3553611880123873E+01 
    1.2084851701457664E+01 
    9.4330977308411796E+00 
    2.4242691501090055E+00 
    1.3239332941676212E+01 
    9.3060416517659164E+00 
    1.3355808583662476E+01 
    8.4860674491594725E+00 
    1.3089628006654777E+01 
    8.5695146474821804E-01 
    1.1718366513702609E+01 
    8.6367186981810740E+00 
    7.7960018447873578E+00 
    7.6085943262691904E+00 
    8.9565179234513579E+00 
    1.0023335965959939E+01 
    9.2987979859945735E+00 
    6.3385971761128141E+00 
    1.3085008669068376E+01 
    1.2590416216145361E+01 
    1.0601132499238906E+01 
    9.3499214150959542E+00 
    1.3823615867070864E+00 
    7.0569651702161451E+00 
    4.9486181646793215E+00 
    1.3256872246119645E+01 
    1.0160571759936639E+01 
    1.2635779854331169E+01 
    1.2651955302388755E+01 
    8.1070394107686070E+00 
    1.0670821936020189E+01 
    1.2312063278182125E+01 
    1.3540036129520148E+01 
    5.9159323243643165E+00 
    1.1118992558418439E+01 
    9.3443219271293412E+00 
    5.2855843988168090E+00 
    8.0871921371649709E+00 
    1.1135008753528295E+01 
    1.2616137243481855E+01 
    9.0160658709220858E+00 
    1.2714938029798338E+01 
    1.2505675780377226E+01 
    1.2459432021392654E+01 
    8.8393044960899552E+00 
    7.7458044522663005E+00 
    1.2324328974695106E+01 
    7.8466690473185112E+00 
    9.1134431473335891E+00 
    7.7046248648362150E+00 
    8.8995069771610691E+00 
    1.2661309867689692E+01 
    5.6130150608863065E+00 
    8.0151341840788533E+00 
    1.3179570352659789E+01 
    8.8536247897698424E+00 
    1.0060042428179315E+01 
    5.7597738891487644E+00 
    7.8947137548659869E+00 
    1.2486690316496235E+01 
    1.2764833685307913E+01 
    4.7165039016577559E+00 
    8.8563359690178807E+00 
    7.7431507943319513E+00 
    1.3930382647094397E+01 
    1.3432236734483771E+01 
    1.4172446884771697E+01 
    8.8772948717722020E+00 
    1.2635080495576938E+01 
    1.2273769456089473E+01 
    8.7559332357388442E+00 
    1.2316768162208465E+01 
    9.3516063560692935E+00 
    5.3196351432621523E+00 
    9.1063608895173775E+00 
    1.3167855866605702E+01 
    1.2313870359440179E+01 
    6.0899884557543729E+00 
    1.2340097858817330E+01 
    1.0035286701011200E+01 
    9.0508102968800710E+00 
    8.6146742341310034E+00 
    1.2195455883013619E+01 
    9.5341220896157033E+00 
    1.2328801099503133E+01 
    8.7579189174023320E+00 
    5.4492343224642505E+00 
    9.1823293551963250E+00 
    7.6150562793842012E+00 
    1.1282991819860147E+01 
    1.3348513724707873E+01 
    1.2323256027790357E+01 
    1.3233859359060387E+01 
    8.8036443352903770E+00 
    5.9401680888454722E+00 
    6.0219289975661328E+00 
    9.2223352711901914E+00 
    9.0906061602888037E+00 
    1.3296567878552064E+00 
    1.1881861940366168E+01 
    1.3676008001104462E+01 
    8.4941400474173658E+00 
    5.5755350722809895E+00 
    1.0343289619676943E+01 
    1.2338745146687582E+01 
    6.5506169783225747E+00 
    4.4695895455831405E+00 
    9.0616311744479585E+00 
    1.2423505214842624E+01 
    1.3000128945060476E+01 
    1.2897417387359331E+01 
    1.2766481879669385E+01 
    6.4068444546885477E+00 
    9.0419894078993526E+00 
    1.1915759104949201E+01 
    7.0722975030060926E+00 
    1.2607709269901335E+01 
    1.0878275933951976E+01 
    6.1061664991973661E+00 
    1.2435793465015646E+01 
    1.3260764223028994E+01 
    1.2462447355361833E+01 
    6.3236129355085398E+00 
    9.1423905185048220E+00 
    6.9140542932866778E+00 
    8.6117980627120101E+00 
    1.2331189924424018E+01 
    1.2320748874332814E+01 
    6.3588400276718726E+00 
    1.3125005608415123E+01 
    9.6371633613434877E+00 
    1.2355139041251798E+01 
    1.3106203229097765E+01 
    1.2341883482386272E+01 
    1.1496947323890078E+01 
    1.3978791339085008E+01 
    8.4661789418893445E+00 
    1.3206176918446211E+01 
    1.2381548529306666E+01 
    1.3272215754470794E+01 
    1.3118458114158141E+01 
    8.5502456131682987E+00 
    8.9449596034946222E+00 
    8.4848002681378389E+00 
    1.1059029981970674E+01 
    3.6550857897476390E+00 
    9.1634771897430287E+00 
    1.4096850242885465E+01 
    9.3527642632441808E+00 
    9.5239883615420808E+00 
    1.3247183815922613E+01 
    1.3464509291007603E+01 
    8.4325212341310127E+00 
    1.2343912201143599E+01 
    1.2317835842670510E+01 
    9.5126547017022300E+00 
    1.3076852873013936E+01 
    6.4191161909445560E+00 
    4.1250336549641755E+00 
    9.7696345793950385E+00 
    9.3658554343048817E+00 
    1.2322398742795505E+01 
    5.9685937651487011E+00 
    1.2820425679330658E+01 
    4.2055721897557552E+00 
    9.3056120650121681E+00 
    8.6121393272998663E+00 
    9.1190306495403650E+00 
    1.5322269929404454E+01 
    3.5511767326083219E+00 
    9.0845046554425330E+00 
    1.0804035805357373E+01 
    8.7123367029762768E+00 
    6.9646148780753974E+00 
    1.2926593936616840E+01 
    1.4910066043425063E+01 
    1.3062688987780881E+01 
    9.0303665106166946E+00 
    5.2694761486060147E+00 
    1.4767590567959608E+01 
    1.2583691251098031E+01 
    6.5727997172081318E+00 
    8.6645423291404491E+00 
    1.3630598552312922E+01 
    3.0114402065516686E+00 
    9.4118452954997576E+00 
    1.3045796953181352E+01 
    9.1317798606237854E+00 
    7.9220928731885421E+00 
    9.1223583016446916E+00 
    1.2123493817574055E+01 
    9.1115790871571711E+00 
    4.7123128086963613E+00 
    8.4390643031204704E-01 
    6.7386349119557263E+00 
    1.3829528499034550E+01 
    8.4829719846192546E+00 
    1.0346745789596929E+01 
    9.8327076416700656E+00 
    1.1365974453836625E+01 
    9.1449530947162412E+00 
    1.2502555704541196E+01 
    1.5335870604574165E+01 
    1.0774773795271999E+01 
    1.3180839664352240E+01 
    4.9628731457459757E-01 
    1.2322446267912193E+01 
    5.1064773200381008E+00 
    1.4255143690249875E+01 
    9.0974857390915727E+00 
    8.0338751801400434E+00 
    7.0424203492949138E+00 
    4.9118460670502913E+00 
    1.0182469458239821E+01 
    7.1407534500529435E+00 
    1.1188474640894478E+01 
    2.0588972317369238E+00 
    1.0066761373643272E+01 
    1.2262223994103499E+01 
    5.4682622345869252E+00 
    1.2775714662028971E+01 
    1.4082286695693451E+01 
    1.2640574417106315E+01 
    8.9754595554540089E+00 
    9.1134642172395264E+00 
    9.0905038267352580E+00 
    5.3468645419916898E+00 
    8.2532445573410591E+00 
    8.1239903138737510E+00 
    9.0801364466954801E+00 
    8.4290136305296475E+00 
    6.3061753383946539E-01 
    5.8492639113127671E+00 
    8.7695843828913311E+00 
    9.0573827354424949E+00 
    1.1495105754478883E+01 
    1.9713389191654851E+00 
    9.4758774632899261E+00 
    9.3705144316715607E+00 
    3.4129167305276167E+00 
    1.2513847655731448E+01 
    7.8656518808092999E+00 
    9.2406734168410321E+00 
    1.2585320989996442E+01 
    4.9621970260636568E+00 
    1.2626770669041122E+01 
    7.9532211234517014E+00 
    8.9687781077761164E-01 
    8.5379097058899784E+00 
    1.3136923090311235E+01 
    1.2322841563343450E+01 
    1.2341626111851093E+01 
    9.4200426162118163E+00 
    9.3091157991352524E+00 
    7.8437306543573859E+00 
    6.3493853901233814E+00 
    1.2690327540702620E+01 
    8.6642672743194691E+00 
    6.1083697801963970E+00 
    1.2336225778312212E+01 
    1.2967886605645148E+01 
    9.2435132058952103E+00 
    8.9004333180790187E+00 
    1.5222311867820867E+01 
    9.5134541271437119E+00 
    1.2698252760763651E+01 
    7.4803777626109254E+00 
    1.5363867123347148E+01 
    5.9864605583287327E+00 
    8.2101855334752294E+00 
    6.6966724987143778E+00 
    9.7235510607718556E+00 
    7.6938060433923523E+00 
    1.5347993074235269E+01 
    9.5571514089372442E+00 
    1.2061162945384648E+01 
    6.1552497630661911E+00 
    9.1429499393940841E+00 
    1.2551437057704165E+01 
    7.7136371043145013E+00 
    6.6240448134408707E+00 
    1.0038066089980003E+01 
    1.2753047805713814E+01 
    6.6088292409100999E+00 
    8.6289410921710292E+00 
    8.9281868107383549E+00 
    1.2300608341310921E+01 
    8.7380523963935524E+00 
    1.2731261339981193E+01 
    1.3298912477623535E+01 
    7.8665042974542736E+00 
    7.7217706074850136E+00 
    7.1823344567635887E+00 
    1.2431738104003513E+01 
    9.3870101400626140E+00 
    1.4945638024148243E+01 
    1.1716749429714627E+01 
    1.2516776756649776E+01 
    1.4648789125417789E+01 
    1.4085244232152354E+01 
    9.1882094948205708E+00 
    9.0662719147527859E+00 
    1.2111720923171298E+01 
    1.2356185033503587E+01 
    1.2851900142620032E+01 
    1.2604573130076547E+01 
    1.5240586144784062E+01 
    9.5130303602621673E+00 
    7.9524624807170774E+00 
    9.5019755613919319E+00 
    1.3219146787247976E+01 
    9.2801057233341773E+00 
    5.3619062988991946E+00 
    8.9609285189910786E+00 
    1.3603713514976182E+01 
    9.4032189147241549E+00 
    7.9556395273719520E+00 
    8.8676889308445386E+00 
    1.3703270748816189E+01 
    1.2372607191898934E+01 
    7.5891795727121503E+00 
    1.3831441995239210E+01 
    9.2178346418192341E+00 
    1.2827293503271038E+01 
    1.3716663193873012E+01 
    9.6470509202002361E+00 
    4.9577074732647519E+00 
    1.0023412664123578E+01 
    5.1266631095004271E+00 
    9.3241164703790158E+00 
    9.1309453674428234E+00 
    1.0540232202175297E+01 
    5.4119904971347159E+00 
    1.1188050232006544E+01 
    9.1546962426838565E+00 
    1.2594307613740970E+01 
    9.5969365663920208E+00 
    7.4050653730537785E+00 
    8.7494992762043058E+00 
    9.5642055015285834E+00 
    9.6080720949086320E+00 
    1.3349584438955857E+01 
    7.6249584749861281E+00 
    7.5001683114220192E+00 
    5.6775166804898252E+00 
    1.2870227026890445E+01 
    8.7881136311596748E+00 
    1.2190234548582604E+01 
    9.1026881915628746E+00 
    6.1822810161341559E+00 
    1.2403242559147341E+01 
    9.0755243548025000E+00 
    6.7125163449822489E+00 
    7.0902972184633875E+00 
    7.3271990125218336E+00 
    1.2625354020683780E+01 
    9.0819786590474809E+00 
    1.3190753138636003E+01 
    9.0285951334855152E+00 
    8.9618710370551167E+00 
    8.5542524892427281E+00 
    1.2477718025665094E+01 
    8.8781941522153964E+00 
    7.3630478980022787E+00 
    1.4072195474797914E+01 
    1.2552059803626786E+01 
    6.2699385104100109E+00 
    2.4946081474242687E+00 
    9.0718713173361838E+00 
    8.5018188913538815E+00 
    7.7197754513643897E+00 
    8.3810159123938810E+00 
    1.2504040853315034E+01 
    8.8085250087178064E+00 
    8.0045104879638345E+00 
    1.2376081043725648E+01 
    6.2145946481747281E+00 
    1.2076186272111677E+01 
    8.2133455506725888E+00 
    7.3135865493239942E+00 
    7.7864507975794179E+00 
    1.2904265633348446E+01 
    9.1221574697111514E+00 
    9.1304622947472662E+00 
    5.4933646224732522E+00 
    5.9125422531484535E+00 
    1.1498122270260613E+01 
    9.1403179871175375E+00 
    9.1096013956523159E+00 
    1.3815506571923585E+01 
    7.4973701791368210E+00 
    9.1522404851791723E+00 
    6.4313899075892467E+00 
    6.6404139511549172E+00 
    1.2475455278030513E+01 
    8.7704735264324967E+00 
    6.4837155853699615E+00 
    9.6133213218963292E+00 
    9.0089158029407237E+00 
    1.2476843761618444E+01 
    1.3902603411037743E+01 
    9.6029338506479556E-01 
    9.0764025529098014E+00 
    9.3643040722284301E+00 
    1.2532124626360458E+01 
    8.6021588503294399E+00 
    9.0949205953715602E+00 
    1.3403458276587235E+01 
    7.8132733909686793E+00 
    6.5376278245083883E+00 
    1.1036227220447040E+01 
    1.2335238897344887E+01 
    1.3272545436355671E+01 
    1.3515058655806593E+01 
    8.9314403613488125E+00 
    9.0689483528970811E+00 
    1.0242362902309255E+01 
    5.9591727002503827E+00 
    1.2448720838563661E+01 
    7.0182443520072963E+00 
    6.2049480687731107E+00 
    1.1428865065807825E+01 
    1.0738140524175416E+01 
    6.0849227752213801E+00 
    1.2368502163730147E+01 
    1.3258756849000221E+01 
    9.5274007985282481E+00 
    1.3997048057753670E+01 
    1.2397448020591504E+01 
    8.6777671587237588E+00 
    1.3015361470234819E+01 
    6.6417493023609326E+00 
    1.2351221633612786E+01 
    9.0756056526815705E+00 
    9.0379530184876788E+00 
    1.3973652652604335E+01 
    8.8187254409414511E+00 
    1.1158361684147319E+01 
    7.7697124351208853E+00 
    1.3366593260528875E+01 
    1.2267797807082424E+01 
    8.0870071830937267E+00 
    1.2314101582775226E+01 
    8.2079222550212325E+00 
    9.1063788811625930E+00 
    1.3221446009701502E+01 
    1.2604169386660976E+01 
    1.3261926709003257E+01 
    1.2535884258665051E+01 
    8.2616069989050462E+00 
    8.4657658909436719E+00 
    1.3267788563045157E+01 
    8.5743829746710976E+00 
    1.2206563106525998E+01 
    8.8096373706523359E+00 
    3.6874825997734506E+00 
    6.2679925331589716E+00 
    5.8097478411135839E+00 
    1.3224377305273718E+01 
    1.3907788002890326E+01 
    1.2330569858063903E+01 
    1.0548590503986309E+01 
    1.2589968278678981E+01 
    1.2373374282798872E+01 
    1.2903460714427180E+01 
    5.3103636682937001E+00 
    3.4330429906829516E+00 
    1.0356734236280250E+01 
    8.7493119678228091E+00 
    1.2505614099289252E+01 
    1.2503472353354189E+01 
    9.3818424120352031E+00 
    1.2536752507377830E+01 
    9.0637808010723013E+00 
    8.9725219507914389E+00 
    4.7959133138372430E+00 
    3.4188022218869514E+00 
    1.3699567172390852E+01 
    7.0585404709459452E+00 
    8.0278388500287434E+00 
    9.2867856506344371E+00 
    1.5222927995404621E+01 
    9.3730832347930146E+00 
    9.3641529257591500E+00 
    3.8686671450749199E+00 
    9.3741394167629402E+00 
    9.3867340442892342E+00 
    1.2800315562965936E+01 
    7.7938150083778730E+00 
    8.6884979193807883E+00 
    1.3856554951741805E+01 
    9.0840791813499795E+00 
    1.2345118393907070E+01 
    1.2588856265684305E+01 
    1.1245324017294340E+01 
    7.6805721429607958E+00 
    1.2536380814884609E+01 
    8.8864860337429690E+00 
    1.2528800185326460E+01 
    1.2288315633883069E+01 
    1.3242211906416987E+01 
    1.2531269666394584E+01 
    1.1758696737174324E+01 
    9.0739010417886341E+00 
    6.0376205415969624E+00 
    1.5101670267238747E+01 
    7.1567707361737138E+00 
    1.3172306144326178E+01 
    9.0714466726326890E+00 
    7.5462888962189254E+00 
    4.4939201655468537E+00 
    9.4184019544868303E+00 
    1.2523137964978643E+01 
    1.2521868012958464E+01 
    9.0863705273048829E+00 
    9.0659142806997206E+00 
    1.4051700844786343E+01 
    1.3462408885135901E+01 
    9.3901122088688709E+00 
    3.1941175903595340E+00 
    1.1736172877530960E+01 
    1.5346468988704631E+01 
    9.0770532479426791E+00 
    1.0889470798767931E+01 
    8.5987864948439903E+00 
    1.4966917407086145E+01 
    1.3536766274721904E+01 
    1.3308619751559277E+01 
    9.4098763449578176E+00 
    4.2152760891955854E+00 
    8.5611505359712119E+00 
    8.6223130132705865E+00 
    8.6666139083612759E+00 
    3.4730687989721245E+00 