# vtk DataFile Version 2.0
Pressure Field Data 
ASCII 
DATASET UNSTRUCTURED_GRID 

POINTS 2860 double 

    0.0000000000000000E+00     0.0000000000000000E+00     0.0000000000000000E+00 
    1.0000000000000000E+00     0.0000000000000000E+00     0.0000000000000000E+00 
    1.0000000000000000E+00     1.0000000000000000E+00     0.0000000000000000E+00 
    0.0000000000000000E+00     1.0000000000000000E+00     0.0000000000000000E+00 
    2.5000000000000000E-01     2.5000000000000000E-01     0.0000000000000000E+00 
    7.5000000000000000E-01     2.5000000000000000E-01     0.0000000000000000E+00 
    7.5000000000000000E-01     7.5000000000000000E-01     0.0000000000000000E+00 
    2.5000000000000000E-01     7.5000000000000000E-01     0.0000000000000000E+00 
    3.1249999999942091E-02     0.0000000000000000E+00     0.0000000000000000E+00 
    6.2499999999873469E-02     0.0000000000000000E+00     0.0000000000000000E+00 
    9.3749999999826514E-02     0.0000000000000000E+00     0.0000000000000000E+00 
    1.2499999999977961E-01     0.0000000000000000E+00     0.0000000000000000E+00 
    1.5624999999968961E-01     0.0000000000000000E+00     0.0000000000000000E+00 
    1.8749999999959971E-01     0.0000000000000000E+00     0.0000000000000000E+00 
    2.1874999999950970E-01     0.0000000000000000E+00     0.0000000000000000E+00 
    2.4999999999941969E-01     0.0000000000000000E+00     0.0000000000000000E+00 
    2.8124999999932920E-01     0.0000000000000000E+00     0.0000000000000000E+00 
    3.1249999999923850E-01     0.0000000000000000E+00     0.0000000000000000E+00 
    3.4374999999914790E-01     0.0000000000000000E+00     0.0000000000000000E+00 
    3.7499999999905720E-01     0.0000000000000000E+00     0.0000000000000000E+00 
    4.0624999999896660E-01     0.0000000000000000E+00     0.0000000000000000E+00 
    4.3749999999887590E-01     0.0000000000000000E+00     0.0000000000000000E+00 
    4.6874999999878530E-01     0.0000000000000000E+00     0.0000000000000000E+00 
    4.9999999999869471E-01     0.0000000000000000E+00     0.0000000000000000E+00 
    5.3124999999877620E-01     0.0000000000000000E+00     0.0000000000000000E+00 
    5.6249999999885780E-01     0.0000000000000000E+00     0.0000000000000000E+00 
    5.9374999999893940E-01     0.0000000000000000E+00     0.0000000000000000E+00 
    6.2499999999902101E-01     0.0000000000000000E+00     0.0000000000000000E+00 
    6.5624999999910261E-01     0.0000000000000000E+00     0.0000000000000000E+00 
    6.8749999999918421E-01     0.0000000000000000E+00     0.0000000000000000E+00 
    7.1874999999926570E-01     0.0000000000000000E+00     0.0000000000000000E+00 
    7.4999999999934730E-01     0.0000000000000000E+00     0.0000000000000000E+00 
    7.8124999999942890E-01     0.0000000000000000E+00     0.0000000000000000E+00 
    8.1249999999951039E-01     0.0000000000000000E+00     0.0000000000000000E+00 
    8.4374999999959199E-01     0.0000000000000000E+00     0.0000000000000000E+00 
    8.7499999999967359E-01     0.0000000000000000E+00     0.0000000000000000E+00 
    9.0624999999975520E-01     0.0000000000000000E+00     0.0000000000000000E+00 
    9.3749999999983680E-01     0.0000000000000000E+00     0.0000000000000000E+00 
    9.6874999999991840E-01     0.0000000000000000E+00     0.0000000000000000E+00 
    1.0000000000000000E+00     3.1249999999942091E-02     0.0000000000000000E+00 
    1.0000000000000000E+00     6.2499999999873469E-02     0.0000000000000000E+00 
    1.0000000000000000E+00     9.3749999999826514E-02     0.0000000000000000E+00 
    1.0000000000000000E+00     1.2499999999977961E-01     0.0000000000000000E+00 
    1.0000000000000000E+00     1.5624999999968961E-01     0.0000000000000000E+00 
    1.0000000000000000E+00     1.8749999999959971E-01     0.0000000000000000E+00 
    1.0000000000000000E+00     2.1874999999950970E-01     0.0000000000000000E+00 
    1.0000000000000000E+00     2.4999999999941969E-01     0.0000000000000000E+00 
    1.0000000000000000E+00     2.8124999999932920E-01     0.0000000000000000E+00 
    1.0000000000000000E+00     3.1249999999923850E-01     0.0000000000000000E+00 
    1.0000000000000000E+00     3.4374999999914790E-01     0.0000000000000000E+00 
    1.0000000000000000E+00     3.7499999999905720E-01     0.0000000000000000E+00 
    1.0000000000000000E+00     4.0624999999896660E-01     0.0000000000000000E+00 
    1.0000000000000000E+00     4.3749999999887590E-01     0.0000000000000000E+00 
    1.0000000000000000E+00     4.6874999999878530E-01     0.0000000000000000E+00 
    1.0000000000000000E+00     4.9999999999869471E-01     0.0000000000000000E+00 
    1.0000000000000000E+00     5.3124999999877620E-01     0.0000000000000000E+00 
    1.0000000000000000E+00     5.6249999999885780E-01     0.0000000000000000E+00 
    1.0000000000000000E+00     5.9374999999893940E-01     0.0000000000000000E+00 
    1.0000000000000000E+00     6.2499999999902101E-01     0.0000000000000000E+00 
    1.0000000000000000E+00     6.5624999999910261E-01     0.0000000000000000E+00 
    1.0000000000000000E+00     6.8749999999918421E-01     0.0000000000000000E+00 
    1.0000000000000000E+00     7.1874999999926570E-01     0.0000000000000000E+00 
    1.0000000000000000E+00     7.4999999999934730E-01     0.0000000000000000E+00 
    1.0000000000000000E+00     7.8124999999942890E-01     0.0000000000000000E+00 
    1.0000000000000000E+00     8.1249999999951039E-01     0.0000000000000000E+00 
    1.0000000000000000E+00     8.4374999999959199E-01     0.0000000000000000E+00 
    1.0000000000000000E+00     8.7499999999967359E-01     0.0000000000000000E+00 
    1.0000000000000000E+00     9.0624999999975520E-01     0.0000000000000000E+00 
    1.0000000000000000E+00     9.3749999999983680E-01     0.0000000000000000E+00 
    1.0000000000000000E+00     9.6874999999991840E-01     0.0000000000000000E+00 
    9.6875000000003686E-01     1.0000000000000000E+00     0.0000000000000000E+00 
    9.3750000000011691E-01     1.0000000000000000E+00     0.0000000000000000E+00 
    9.0625000000015765E-01     1.0000000000000000E+00     0.0000000000000000E+00 
    8.7500000000017863E-01     1.0000000000000000E+00     0.0000000000000000E+00 
    8.4375000000028044E-01     1.0000000000000000E+00     0.0000000000000000E+00 
    8.1250000000040856E-01     1.0000000000000000E+00     0.0000000000000000E+00 
    7.8125000000054956E-01     1.0000000000000000E+00     0.0000000000000000E+00 
    7.5000000000066480E-01     1.0000000000000000E+00     0.0000000000000000E+00 
    7.1875000000086831E-01     1.0000000000000000E+00     0.0000000000000000E+00 
    6.8750000000102829E-01     1.0000000000000000E+00     0.0000000000000000E+00 
    6.5625000000114431E-01     1.0000000000000000E+00     0.0000000000000000E+00 
    6.2500000000129829E-01     1.0000000000000000E+00     0.0000000000000000E+00 
    5.9375000000147926E-01     1.0000000000000000E+00     0.0000000000000000E+00 
    5.6250000000168354E-01     1.0000000000000000E+00     0.0000000000000000E+00 
    5.3125000000188671E-01     1.0000000000000000E+00     0.0000000000000000E+00 
    5.0000000000205835E-01     1.0000000000000000E+00     0.0000000000000000E+00 
    4.6875000000192979E-01     1.0000000000000000E+00     0.0000000000000000E+00 
    4.3750000000180111E-01     1.0000000000000000E+00     0.0000000000000000E+00 
    4.0625000000167238E-01     1.0000000000000000E+00     0.0000000000000000E+00 
    3.7500000000154382E-01     1.0000000000000000E+00     0.0000000000000000E+00 
    3.4375000000141509E-01     1.0000000000000000E+00     0.0000000000000000E+00 
    3.1250000000128642E-01     1.0000000000000000E+00     0.0000000000000000E+00 
    2.8125000000115769E-01     1.0000000000000000E+00     0.0000000000000000E+00 
    2.5000000000102918E-01     1.0000000000000000E+00     0.0000000000000000E+00 
    2.1875000000090050E-01     1.0000000000000000E+00     0.0000000000000000E+00 
    1.8750000000077180E-01     1.0000000000000000E+00     0.0000000000000000E+00 
    1.5625000000064329E-01     1.0000000000000000E+00     0.0000000000000000E+00 
    1.2500000000051459E-01     1.0000000000000000E+00     0.0000000000000000E+00 
    9.3750000000385914E-02     1.0000000000000000E+00     0.0000000000000000E+00 
    6.2500000000257239E-02     1.0000000000000000E+00     0.0000000000000000E+00 
    3.1250000000128557E-02     1.0000000000000000E+00     0.0000000000000000E+00 
    0.0000000000000000E+00     9.6875000000003686E-01     0.0000000000000000E+00 
    0.0000000000000000E+00     9.3750000000011691E-01     0.0000000000000000E+00 
    0.0000000000000000E+00     9.0625000000015765E-01     0.0000000000000000E+00 
    0.0000000000000000E+00     8.7500000000017863E-01     0.0000000000000000E+00 
    0.0000000000000000E+00     8.4375000000028044E-01     0.0000000000000000E+00 
    0.0000000000000000E+00     8.1250000000040856E-01     0.0000000000000000E+00 
    0.0000000000000000E+00     7.8125000000054956E-01     0.0000000000000000E+00 
    0.0000000000000000E+00     7.5000000000066480E-01     0.0000000000000000E+00 
    0.0000000000000000E+00     7.1875000000086831E-01     0.0000000000000000E+00 
    0.0000000000000000E+00     6.8750000000102829E-01     0.0000000000000000E+00 
    0.0000000000000000E+00     6.5625000000114431E-01     0.0000000000000000E+00 
    0.0000000000000000E+00     6.2500000000129829E-01     0.0000000000000000E+00 
    0.0000000000000000E+00     5.9375000000147926E-01     0.0000000000000000E+00 
    0.0000000000000000E+00     5.6250000000168354E-01     0.0000000000000000E+00 
    0.0000000000000000E+00     5.3125000000188671E-01     0.0000000000000000E+00 
    0.0000000000000000E+00     5.0000000000205835E-01     0.0000000000000000E+00 
    0.0000000000000000E+00     4.6875000000192979E-01     0.0000000000000000E+00 
    0.0000000000000000E+00     4.3750000000180111E-01     0.0000000000000000E+00 
    0.0000000000000000E+00     4.0625000000167238E-01     0.0000000000000000E+00 
[...]
CELL_DATA 2795 
SCALARS Pressure double 1 
LOOKUP_TABLE default 

    7.3331976251699622E+00 
    1.5767711332565984E+01 
    1.1197048593104572E+01 
    1.0905239261003345E+01 
    8.8848417991284929E+00 
    1.5631652885657719E+01 
    1.6396021959354588E+01 
    6.6004491207990990E+00 
    1.1754906571625186E+01 
    9.0479178623957708E+00 
    7.7498697989269489E+00 
    1.5361519003472839E+01 
    1.5683055077658928E+01 
    1.5600433971577541E+01 
    1.0313724609086053E+01 
    6.4945569002255921E+00 
    1.0147837109172382E+01 
    8.2346517583010996E+00 
    1.4980066656623771E+01 
    1.1180008872237538E+01 
    1.1075206522042928E+01 
    1.5529390115721744E+01 
    1.0642837218294543E+01 
    4.2990546864149093E-01 
    1.5336701422677997E+01 
    1.5636280688410094E+01 
    1.6429045528994948E+01 
    7.5178717934961448E+00 
    1.5278445764727493E+01 
    1.6411740186876596E+01 
    1.1336986723301308E+01 
    1.1388336061276322E+01 
    8.1969860781861712E+00 
    1.1159699931035643E+01 
    3.7569950638510496E+00 
    1.0148104401910560E+01 
    1.1145977065105765E+01 
    1.6452262290486861E+01 
    1.6372314390223920E+01 
    1.5375122805192840E+01 
    8.8400863362176150E+00 
    1.5325107580130847E+01 
    9.0104836169610603E-01 
    1.1137586327247107E+01 
    1.6211528947197294E+01 
    1.5965604790091133E+01 
    1.5350251525903928E+01 
    1.2173017522892284E+01 
    1.5416997350147440E+01 
    1.0360055680045686E+01 
    9.9186816495462260E+00 
    1.1352622162090675E+01 
    1.1042418066038403E+01 
    1.0207605691022476E+01 
    1.1405796223843993E+01 
    1.4759107551336534E+01 
    1.3116290430373168E+01 
    8.9292465873351858E+00 
    1.5535383036366692E+01 
    1.5453750752811798E+01 
    1.0891485578178727E+01 
    1.0775813348577602E+01 
    1.0811025227601455E+01 
    1.6310867918777788E+01 
    1.6613920879480681E+01 
    1.0163866210291859E+01 
    1.1351242447864054E+01 
    1.5194240799179882E+01 
    1.3085024952818323E+01 
    1.0819424343485695E+01 
    1.6592625023418609E+01 
    1.5472624505256972E+01 
    1.0031240717715470E+01 
    1.6086287531770243E+01 
    1.1635433803577628E+01 
    1.5179845927611098E+01 
    1.6473957387254547E+01 
    1.1681902189568367E+01 
    7.4868624983138927E+00 
    1.1369361770997250E+01 
    1.6381266709092266E+01 
    1.6613217500082438E+01 
    1.0164259154685299E+01 
    1.1293315126276886E+01 
    1.6664560182116688E+01 
    1.1145597073722163E+01 
    1.0728466996388422E+01 
    1.3537454066211907E+01 
    7.1679095683309475E+00 
    9.9471626780398275E+00 
    1.1291017824226152E+01 
    1.1914483687410833E+01 
    1.8139724390926730E+01 
    8.6495437022004360E+00 
    1.1359086924386464E+01 
    1.5327172665062438E+01 
    1.5626554163647899E+01 
    7.6829427155986352E+00 
    1.1008336125659852E+01 
    1.1324292130929029E+01 
    1.5650407709275216E+01 
    1.1317334608328720E+01 
    1.5572503126237844E+01 
    4.7219042510038047E+00 
    7.5332339698889168E+00 
    1.1575753008332004E+01 
    1.5776391483863513E+01 
    1.0113560340926909E+01 
    1.0670810738620428E+01 
    1.1297796404615537E+01 
    1.0698225974844632E+01 
    1.2732661755236629E+01 
    1.0412224425375992E+01 
    1.0038919389242279E+01 
    8.1496591501012539E+00 
    1.3290316505263908E+01 
    1.1393212071915684E+01 
    1.6222038653357750E+01 
    9.8083680441575432E+00 
    1.0887463989135398E+01 
    1.5458056046908887E+01 
    9.2808873003932693E+00 
    1.5945055473270420E+01 
    1.1219994944409416E+01 
    1.0820298173974626E+01 
    1.5629288298930993E+01 
    1.1381670341766247E+01 
    1.6481986065490705E+01 
    1.3557029803253297E+01 
    1.4590423613997860E+01 
    1.6446506450489963E+01 
    8.6651924114296115E+00 
    1.1600934544107659E+01 
    1.5620526903148191E+01 
    3.5192137210205106E+00 
    1.1384586753367918E+01 
    1.6411605634887234E+01 
    1.0847612388749187E+01 
    1.2387634766178911E+01 
    7.6878821880166699E+00 
    1.5324521180069711E+01 
    1.8621503176353119E+01 
    1.4060584940573067E+01 
    1.0847422209979616E+01 
    9.8389446306901025E+00 
    1.2033568356863613E+01 
    1.1237066619381999E+01 
    7.8461651866366182E+00 
    1.6439914209648485E+01 
    1.5671591123234647E+01 
    1.5328908013402911E+01 
    1.1924518742303638E+01 
    1.0009302868668405E+01 
    1.1071595239446726E+01 
    1.6124349956786372E+01 
    1.0246748946016250E+01 
    1.1296344524920057E+01 
    1.0407920188099270E+01 
    1.3037088635262906E+01 
    1.8609770628797250E+01 
    1.5320224117389929E+01 
    9.9996907566556139E+00 
    1.5841709682438985E+01 
    1.5732649429128466E+01 
    1.5818303314617884E+01 
    1.6867347344964401E+01 
    1.7417855790362111E+01 
    1.5960941967760533E+01 
    1.1343017087521073E+01 
    1.2187306547770543E+01 
    1.5794992611387348E+01 
    1.6240110923770075E+01 
    8.1863312391819374E+00 
    1.5349831605357469E+01 
    1.6087294867683362E+01 
    7.9631170920752465E+00 
    1.6783467420158953E+01 
    1.6761988799255274E+01 
    1.5051826912351677E+01 
    1.1680819560005755E+01 
    3.0970980099285361E+00 
    1.6410391585529002E+01 
    1.1516916113843317E+01 
    1.6544389861871352E+01 
    1.0780582346388757E+01 
    1.6237199924237562E+01 
    1.1223617790753451E+00 
    1.4597180279384805E+01 
    1.0821548510367121E+01 
    9.9647572480739832E+00 
    9.7369913830688937E+00 
    1.1188317493306789E+01 
    1.2348863252209863E+01 
    1.1735801549884837E+01 
    8.2451039494746201E+00 
    1.6228595553405537E+01 
    1.5645531646908569E+01 
    1.3206082456495075E+01 
    1.1569325774959514E+01 
    1.7823217034106511E+00 
    9.0397031180553729E+00 
    6.4374207456173957E+00 
    1.6424331624833510E+01 
    1.2497063351159772E+01 
    1.5699675758429414E+01 
    1.5717538945186877E+01 
    1.0323867957522484E+01 
    1.3028081093998150E+01 
    1.5323796459611117E+01 
    1.6749128342556876E+01 
    7.6512759267372994E+00 
    1.3885922376038339E+01 
    1.1695260732590617E+01 
    6.8388094193638649E+00 
    1.0317150355092481E+01 
    1.3601934957735226E+01 
    1.5675927701628435E+01 
    1.1240757221479189E+01 
    1.5794764009698332E+01 
    1.5542248876507742E+01 
    1.5487269965935084E+01 
    1.1076428121617807E+01 
    9.8690637122267972E+00 
    1.5337273284979128E+01 
    1.0027913866146070E+01 
    1.1324551223203375E+01 
    9.8557393192025415E+00 
    1.1262128423334532E+01 
    1.5727781457932959E+01 
    7.1131616970041360E+00 
    1.0228540247145864E+01 
    1.6339528643710462E+01 
    1.1086509828087447E+01 
    1.2394276035133590E+01 
    7.2955199511897844E+00 
    1.0084682494698679E+01 
    1.5519142751022988E+01 
    1.5854147568652253E+01 
    5.9846749856511465E+00 
    1.1096671912269937E+01 
    9.9053982173654642E+00 
    1.7182362671402235E+01 
    1.6625204122260374E+01 
    1.7445589977767142E+01 
    1.1117138055797191E+01 
    1.5698102357440211E+01 
    1.5276065177425878E+01 
    1.0978533723217568E+01 
    1.5329353957963260E+01 
    1.1571084808527877E+01 
    6.9188406718626156E+00 
    1.1425643344189028E+01 
    1.6323732390075662E+01 
    1.5326036605301661E+01 
    7.7391909783683106E+00 
    1.5357167686366594E+01 
    1.2371163516925172E+01 
    1.1365251153850412E+01 
    1.0919950850882303E+01 
    1.5186398190735002E+01 
    1.1873792675148076E+01 
    1.5342816070131278E+01 
    1.1076666920976571E+01 
    7.1397341430063941E+00 
    1.1401943434801492E+01 
    9.7412354068048135E+00 
    1.4073253661331844E+01 
    1.6534204217411940E+01 
    1.5335168312952748E+01 
    1.6404483652333823E+01 
    1.1029733618960213E+01 
    7.5285521921279255E+00 
    7.6261770351377702E+00 
    1.1547572940335279E+01 
    1.1297955651192584E+01 
    1.7326051120720907E+00 
    1.4802959045191821E+01 
    1.6912275566636488E+01 
    1.0794629342089149E+01 
    7.2009038299246653E+00 
    1.2943465921389782E+01 
    1.5355566839013921E+01 
    8.3995995004035056E+00 
    5.7929160789587915E+00 
    1.1279458245829552E+01 
    1.5435305886394612E+01 
    1.6130258241327020E+01 
    1.6016521497283282E+01 
    1.5857463275202745E+01 
    8.2633244671174992E+00 
    1.1359107233853271E+01 
    1.4837376775009128E+01 
    8.8870534010846090E+00 
    1.5667947573024085E+01 
    1.3262272293487287E+01 
    7.7256376775618696E+00 
    1.5463660546398184E+01 
    1.6428585317254477E+01 
    1.5475690314432031E+01 
    8.1104312472615288E+00 
    1.1347387750655566E+01 
    8.8593787972870448E+00 
    1.0721830290189432E+01 
    1.5346610301712742E+01 
    1.5334169573316240E+01 
    8.1547999657841448E+00 
    1.6281196820613932E+01 
    1.1903770096151598E+01 
    1.5366690486989985E+01 
    1.6258232498063098E+01 
    1.5354401525366956E+01 
    1.4313683270537823E+01 
    1.7238452393401673E+01 
    1.0748069516985623E+01 
    1.6372259161819951E+01 
    1.5395125724520375E+01 
    1.6448197677377369E+01 
    1.6273899919839661E+01 
    1.0846312122867888E+01 
    1.1186629310185340E+01 
    1.0785711066510546E+01 
    1.3776002747217033E+01 
    4.7318660511374606E+00 
    1.1484753882820812E+01 
    1.7365274537859790E+01 
    1.1571999642703371E+01 
    1.1771134787317227E+01 
    1.6419804202940345E+01 
    1.6662298897442234E+01 
    1.0669522333606761E+01 
    1.5361796109742688E+01 
    1.5330079505599111E+01 
    1.1757815683953282E+01 
    1.6227484899008143E+01 
    8.1073944025699145E+00 
    5.2342446359167525E+00 
    1.2058819998530359E+01 
    1.1585865676085573E+01 
    1.5335759952043205E+01 
    7.6629211094537393E+00 
    1.5934455301652008E+01 
    5.3473385003929321E+00 
    1.1520937415340580E+01 
    1.0873299773766060E+01 
    1.1324326690023435E+01 
    1.8659081671426957E+01 
    4.5985636059761239E+00 
    1.1402097588351936E+01 
    1.3516511551160420E+01 
    1.0925044842900450E+01 
    9.0095495285247065E+00 
    1.6047726319906630E+01 
    1.8232651465699163E+01 
    1.6203043716435062E+01 
    1.1342412704191032E+01 
    6.8029047538114167E+00 
    1.8077897691729113E+01 
    1.5635171848071527E+01 
    8.6434685541838974E+00 
    1.0991759262501652E+01 
    1.6848786034815337E+01 
    3.9002364360688184E+00 
    1.1640131286940107E+01 
    1.6188914715493588E+01 
    1.1338919152407358E+01 
    9.9005969649889298E+00 
    1.1441876841031915E+01 
    1.5001793475066119E+01 
    1.1320794421168321E+01 
    6.0756040355482019E+00 
    1.1124777167364344E+00 
    8.4968089643376743E+00 
    1.7073654168995127E+01 
    1.0784452181960100E+01 
    1.2684739143763341E+01 
    1.2181393061680174E+01 
    1.3892875856123757E+01 
    1.1352512558026334E+01 
    1.5537687447923167E+01 
    1.8673094482207166E+01 
    1.3445174202713083E+01 
    1.6342990574721529E+01 
    6.4341153057645761E-01 
    1.5336282192433858E+01 
    6.7087016498794512E+00 
    1.7534506788139435E+01 
    1.1415725639863615E+01 
    1.0083053547348744E+01 
    9.0222055914202421E+00 
    6.3529847763817022E+00 
    1.2684275521408118E+01 
    8.9884935141812470E+00 
    1.3961565246180628E+01 
    2.6270444767829964E+00 
    1.2409592817549109E+01 
    1.5263768253744326E+01 
    6.9263269890576877E+00 
    1.5818224480590995E+01 
    1.7342311873154443E+01 
    1.5662445802776341E+01 
    1.1281205455159476E+01 
    1.1318588191143302E+01 
    1.1408444882333351E+01 
    6.8748041269675220E+00 
    1.0515200695559249E+01 
    1.0360796427698684E+01 
    1.1397472702445453E+01 
    1.0718859913939529E+01 
    8.2834772408646440E-01 
    7.6185286251085120E+00 
    1.1103263611212034E+01 
    1.1372450343586660E+01 
    1.4331586415689255E+01 
    2.5506810832212001E+00 
    1.1714854402291348E+01 
    1.1592177262290232E+01 
    4.4188035781844448E+00 
    1.5522119718552842E+01 
    1.0036112840840550E+01 
    1.1451602845679549E+01 
    1.5635418970466628E+01 
    6.3932209383612673E+00 
    1.5638060402965142E+01 
    1.0156974224447733E+01 
    1.1564311656149349E+00 
    1.0844998102733628E+01 
    1.6295272169063676E+01 
    1.5336137701307477E+01 
    1.5355837112230997E+01 
    1.1752684149757977E+01 
    1.1524159735598943E+01 
    1.0022518173755037E+01 
    8.2715761203117424E+00 
    1.5760515189352226E+01 
    1.0986413973684222E+01 
    8.0372957530236970E+00 
    1.5350943324402827E+01 
    1.6068441923098231E+01 
    1.1570272925374464E+01 
    1.1135015536610327E+01 
    1.8554099709451666E+01 
    1.1758801236384270E+01 
    1.5771165686620620E+01 
    9.5753508479535849E+00 
    1.8701014584895876E+01 
    7.5807550921436393E+00 
    1.0413712949617008E+01 
    8.4568465479373156E+00 
    1.2005609579802194E+01 
    9.6514443415668669E+00 
    1.8684780337243659E+01 
    1.1810069739253995E+01 
    1.4949406412649079E+01 
    7.7930348506107050E+00 
    1.1347526048347120E+01 
    1.5597435022367021E+01 
    9.6827581947258512E+00 
    8.6141145324382045E+00 
    1.2607615951975045E+01 
    1.5849490838108554E+01 
    8.3313179174883647E+00 
    1.0894379380723596E+01 
    1.1170272511025543E+01 
    1.5310500121519292E+01 
    1.0951303255472080E+01 
    1.5816048506016603E+01 
    1.6478415910489399E+01 
    1.0051647837147181E+01 
    9.8743616142146280E+00 
    9.0175316127530234E+00 
    1.5459804226924524E+01 
    1.1623922752071536E+01 
    1.8269062373838597E+01 
    1.4381448132960589E+01 
    1.5554828843014318E+01 
    1.7951455746673794E+01 
    1.7344585905812689E+01 
    1.1394275574150249E+01 
    1.1382354692949241E+01 
    1.5076579222573329E+01 
    1.5376448010247518E+01 
    1.5958900341517399E+01 
    1.5659054354389914E+01 
    1.8575979243914574E+01 
    1.1758293839755698E+01 
    1.0152870958456223E+01 
    1.1765910567205561E+01 
    1.6387542226335150E+01 
    1.1489482316078384E+01 
    6.8213185508431824E+00 
    1.1265152392177846E+01 
    1.6823431274799844E+01 
    1.1629862036896512E+01 
    1.0159307850471901E+01 
    1.1110371945773533E+01 
    1.6932621252983466E+01 
    1.5383815563703774E+01 
    9.7248375100318381E+00 
    1.7073703869597665E+01 
    1.1422726779534406E+01 
    1.5928462492221051E+01 
    1.6946583433937228E+01 
    1.1985971178953477E+01 
    6.4055570821606791E+00 
    1.2444209321866932E+01 
    6.6157247129433419E+00 
    1.1539307910759012E+01 
    1.1342785419622150E+01 
    1.3110731814741355E+01 
    6.9822826322802838E+00 
    1.3939723329813821E+01 
    1.1360080357083767E+01 
    1.5647420863287866E+01 
    1.2091364218899622E+01 
    9.5718253179923476E+00 
    1.0971586898356966E+01 
    1.1906787360664241E+01 
    1.1869309885364112E+01 
    1.6542055912764418E+01 
    9.7552641851060269E+00 
    9.6013859232594374E+00 
    7.3218725208229332E+00 
    1.5978840280565185E+01 
    1.1017784370148568E+01 
    1.5163423399886383E+01 
    1.1311818267098714E+01 
    7.9555442405331931E+00 
    1.5418493322071619E+01 
    1.1288081239414574E+01 
    8.6158856280136042E+00 
    9.0854072338239114E+00 
    9.3806189394211383E+00 
    1.5682886177301823E+01 
    1.1399455506644468E+01 
    1.6355139563308729E+01 
    1.1247983602776959E+01 
    1.1186751275647092E+01 
    1.0813647520819829E+01 
    1.5507907015214300E+01 
    1.1101509892447121E+01 
    9.4260147017917202E+00 
    1.7331183925180135E+01 
    1.5596843352586911E+01 
    7.9300872384043410E+00 
    3.2279747296386199E+00 
    1.1388963207995026E+01 
    1.0659996856545478E+01 
    9.8699563463887774E+00 
    1.0616609917854683E+01 
    1.5552212516151297E+01 
    1.1098219286898454E+01 
    1.0195059636268782E+01 
    1.5399877204927733E+01 
    7.8625933717763710E+00 
    1.5037433786128533E+01 
    1.0294885393985567E+01 
    9.4066957815570422E+00 
    9.9522561979729982E+00 
    1.6019560080117298E+01 
    1.1327013602837869E+01 
    1.1335284382764071E+01 
    7.0589048899435243E+00 
    7.5895637004734695E+00 
    1.4161190243371195E+01 
    1.1345087200038147E+01 
    1.1428795406405291E+01 
    1.7058403484580435E+01 
    9.5942900498633765E+00 
    1.1357303428344219E+01 
    8.1261600920657244E+00 
    8.3774465994168210E+00 
    1.5501809463223157E+01 
    1.0979866670210079E+01 
    8.3137569001933151E+00 
    1.1921012674651942E+01 
    1.1242708791177805E+01 
    1.5504998926692402E+01 
    1.7152706512613676E+01 
    1.2237604570481215E+00 
    1.1393826335180110E+01 
    1.1584299200107699E+01 
    1.5573005698257395E+01 
    1.0914513711457325E+01 
    1.1300036374945140E+01 
    1.6608574586483904E+01 
    9.9875769682841256E+00 
    8.3824487527609701E+00 
    1.3535950566197190E+01 
    1.5350783976910600E+01 
    1.6447785094621896E+01 
    1.6717544614424526E+01 
    1.1237376050664038E+01 
    1.1385412052853052E+01 
    1.2690599080750070E+01 
    7.5660533947344470E+00 
    1.5487089028718165E+01 
    8.9913992558580045E+00 
    7.8513451062766011E+00 
    1.4062762727990179E+01 
    1.3318959929318549E+01 
    7.7126294129304371E+00 
    1.5388920765554040E+01 
    1.6432611528865348E+01 
    1.1775145780025282E+01 
    1.7256120677988893E+01 
    1.5424249738922239E+01 
    1.0977244192315808E+01 
    1.6158209585622636E+01 
    8.3667125056658378E+00 
    1.5370516366337888E+01 
    1.1392788994151585E+01 
    1.1354497208031091E+01 
    1.7232210361743977E+01 
    1.1057221267372435E+01 
    1.3851739431976084E+01 
    9.9326287491838627E+00 
    1.6554843888286058E+01 
    1.5271405759209017E+01 
    1.0319530017656591E+01 
    1.5324506314454212E+01 
    1.0299795160135673E+01 
    1.1308043199820281E+01 
    1.6389822021984024E+01 
    1.5662686752830293E+01 
    1.6436032185920190E+01 
    1.5577425948731015E+01 
    1.0526742230740306E+01 
    1.0736577990737569E+01 
    1.6443087658456992E+01 
    1.0860915758259242E+01 
    1.5189900258700787E+01 
    1.1041552468232712E+01 
    4.7782141142912495E+00 
    7.9222444697726075E+00 
    7.3580098101909099E+00 
    1.6393430686805100E+01 
    1.7159413256175817E+01 
    1.5343926558013372E+01 
    1.2964051080566271E+01 
    1.5658048215441374E+01 
    1.5397050251041225E+01 
    1.6020516835180153E+01 
    6.8364876220484110E+00 
    4.4444254937398231E+00 
    1.2732450071028051E+01 
    1.1067782963026728E+01 
    1.5554814305378589E+01 
    1.5552368646472305E+01 
    1.1609251048316047E+01 
    1.5591692421173050E+01 
    1.1379776101713061E+01 
    1.1291505809397760E+01 
    6.1865076462061133E+00 
    4.4260407907556809E+00 
    1.6926987001548689E+01 
    8.8829290218986330E+00 
    1.0246142966194512E+01 
    1.1500642733670317E+01 
    1.8555910190717416E+01 
    1.1593933423319941E+01 
    1.1680604460923835E+01 
    5.0530417398800322E+00 
    1.1594663281595761E+01 
    1.1609287792197858E+01 
    1.5868062407610497E+01 
    9.9567113743237794E+00 
    1.0862872534143634E+01 
    1.7101832343386313E+01 
    1.1402062158215106E+01 
    1.5361027260982988E+01 
    1.5608162937898523E+01 
    1.3804879644520128E+01 
    9.6597408262393074E+00 
    1.5578124083594741E+01 
    1.1200505253933983E+01 
    1.5537991107196602E+01 
    1.5296192493446982E+01 
    1.6413836756273941E+01 
    1.5572418934533912E+01 
    1.4631073328810078E+01 
    1.1390887871457256E+01 
    7.6426301553848068E+00 
    1.8430047563799135E+01 
    9.1650519483238213E+00 
    1.6327375774969671E+01 
    1.1388330268736151E+01 
    9.6440425940387797E+00 
    5.8737449208044827E+00 
    1.1647722963553981E+01 
    1.5562206753407432E+01 
    1.5560698060127557E+01 
    1.1288396140879785E+01 
    1.1382581197997721E+01 
    1.7314049634909637E+01 
    1.6658537724185706E+01 
    1.1613401481740361E+01 
    4.1308499168536574E+00 
    1.4502601655851937E+01 
    1.8682357830082246E+01 
    1.1394160824262135E+01 
    1.3370059393719735E+01 
    1.0912940279596775E+01 
    1.8287744682709526E+01 
    1.6744010891985546E+01 
    1.6494003407975434E+01 
    1.1635750227289380E+01 
    5.4011920878586377E+00 
    1.0872629020230899E+01 
    1.0936298387871670E+01 
    1.0977291956327006E+01 
    4.5047938242748540E+00 