# vtk DataFile Version 2.0
Pressure Field Data 
ASCII 
DATASET UNSTRUCTURED_GRID 

POINTS 2860 double 

    0.0000000000000000E+00     0.0000000000000000E+00     0.0000000000000000E+00 
    1.0000000000000000E+00     0.0000000000000000E+00     0.0000000000000000E+00 
    1.0000000000000000E+00     1.0000000000000000E+00     0.0000000000000000E+00 
    0.0000000000000000E+00     1.0000000000000000E+00     0.0000000000000000E+00 
    2.5000000000000000E-01     2.5000000000000000E-01     0.0000000000000000E+00 
    7.5000000000000000E-01     2.5000000000000000E-01     0.0000000000000000E+00 
    7.5000000000000000E-01     7.5000000000000000E-01     0.0000000000000000E+00 
    2.5000000000000000E-01     7.5000000000000000E-01     0.0000000000000000E+00 
    3.1249999999942091E-02     0.0000000000000000E+00     0.0000000000000000E+00 
    6.2499999999873469E-02     0.0000000000000000E+00     0.0000000000000000E+00 
    9.3749999999826514E-02     0.0000000000000000E+00     0.0000000000000000E+00 
    1.2499999999977961E-01     0.0000000000000000E+00     0.0000000000000000E+00 
    1.5624999999968961E-01     0.0000000000000000E+00     0.0000000000000000E+00 
    1.8749999999959971E-01     0.0000000000000000E+00     0.0000000000000000E+00 
    2.1874999999950970E-01     0.0000000000000000E+00     0.0000000000000000E+00 
    2.4999999999941969E-01     0.0000000000000000E+00     0.0000000000000000E+00 
    2.8124999999932920E-01     0.0000000000000000E+00     0.0000000000000000E+00 
    3.1249999999923850E-01     0.0000000000000000E+00     0.0000000000000000E+00 
    3.4374999999914790E-01     0.0000000000000000E+00     0.0000000000000000E+00 
    3.7499999999905720E-01     0.0000000000000000E+00     0.0000000000000000E+00 
    4.0624999999896660E-01     0.0000000000000000E+00     0.0000000000000000E+00 
    4.3749999999887590E-01     0.0000000000000000E+00     0.0000000000000000E+00 
    4.6874999999878530E-01     0.0000000000000000E+00     0.0000000000000000E+00 
    4.9999999999869471E-01     0.0000000000000000E+00     0.0000000000000000E+00 
    5.3124999999877620E-01     0.0000000000000000E+00     0.0000000000000000E+00 
    5.6249999999885780E-01     0.0000000000000000E+00     0.0000000000000000E+00 
    5.9374999999893940E-01     0.0000000000000000E+00     0.0000000000000000E+00 
    6.2499999999902101E-01     0.0000000000000000E+00     0.0000000000000000E+00 
    6.5624999999910261E-01     0.0000000000000000E+00     0.0000000000000000E+00 
    6.8749999999918421E-01     0.0000000000000000E+00     0.0000000000000000E+00 
    7.1874999999926570E-01     0.0000000000000000E+00     0.0000000000000000E+00 
    7.4999999999934730E-01     0.0000000000000000E+00     0.0000000000000000E+00 
    7.8124999999942890E-01     0.0000000000000000E+00     0.0000000000000000E+00 
    8.1249999999951039E-01     0.0000000000000000E+00     0.0000000000000000E+00 
    8.4374999999959199E-01     0.0000000000000000E+00     0.0000000000000000E+00 
    8.7499999999967359E-01     0.0000000000000000E+00     0.0000000000000000E+00 
    9.0624999999975520E-01     0.0000000000000000E+00     0.0000000000000000E+00 
    9.3749999999983680E-01     0.0000000000000000E+00     0.0000000000000000E+00 
    9.6874999999991840E-01     0.0000000000000000E+00     0.0000000000000000E+00 
    1.0000000000000000E+00     3.1249999999942091E-02     0.0000000000000000E+00 
    1.0000000000000000E+00     6.2499999999873469E-02     0.0000000000000000E+00 
    1.0000000000000000E+00     9.3749999999826514E-02     0.0000000000000000E+00 
    1.0000000000000000E+00     1.2499999999977961E-01     0.0000000000000000E+00 
    1.0000000000000000E+00     1.5624999999968961E-01     0.0000000000000000E+00 
    1.0000000000000000E+00     1.8749999999959971E-01     0.0000000000000000E+00 
    1.0000000000000000E+00     2.1874999999950970E-01     0.0000000000000000E+00 
    1.0000000000000000E+00     2.4999999999941969E-01     0.0000000000000000E+00 
    1.0000000000000000E+00     2.8124999999932920E-01     0.0000000000000000E+00 
    1.0000000000000000E+00     3.1249999999923850E-01     0.0000000000000000E+00 
    1.0000000000000000E+00     3.4374999999914790E-01     0.0000000000000000E+00 
    1.0000000000000000E+00     3.7499999999905720E-01     0.0000000000000000E+00 
    1.0000000000000000E+00     4.0624999999896660E-01     0.0000000000000000E+00 
    1.0000000000000000E+00     4.3749999999887590E-01     0.0000000000000000E+00 
    1.0000000000000000E+00     4.6874999999878530E-01     0.0000000000000000E+00 
    1.0000000000000000E+00     4.9999999999869471E-01     0.0000000000000000E+00 
    1.0000000000000000E+00     5.3124999999877620E-01     0.0000000000000000E+00 
    1.0000000000000000E+00     5.6249999999885780E-01     0.0000000000000000E+00 
    1.0000000000000000E+00     5.9374999999893940E-01     0.0000000000000000E+00 
    1.0000000000000000E+00     6.2499999999902101E-01     0.0000000000000000E+00 
    1.0000000000000000E+00     6.5624999999910261E-01     0.0000000000000000E+00 
    1.0000000000000000E+00     6.8749999999918421E-01     0.0000000000000000E+00 
    1.0000000000000000E+00     7.1874999999926570E-01     0.0000000000000000E+00 
    1.0000000000000000E+00     7.4999999999934730E-01     0.0000000000000000E+00 
    1.0000000000000000E+00     7.8124999999942890E-01     0.0000000000000000E+00 
    1.0000000000000000E+00     8.1249999999951039E-01     0.0000000000000000E+00 
    1.0000000000000000E+00     8.4374999999959199E-01     0.0000000000000000E+00 
    1.0000000000000000E+00     8.7499999999967359E-01     0.0000000000000000E+00 
    1.0000000000000000E+00     9.0624999999975520E-01     0.0000000000000000E+00 
    1.0000000000000000E+00     9.3749999999983680E-01     0.0000000000000000E+00 
    1.0000000000000000E+00     9.6874999999991840E-01     0.0000000000000000E+00 
    9.6875000000003686E-01     1.0000000000000000E+00     0.0000000000000000E+00 
    9.3750000000011691E-01     1.0000000000000000E+00     0.0000000000000000E+00 
    9.0625000000015765E-01     1.0000000000000000E+00     0.0000000000000000E+00 
    8.7500000000017863E-01     1.0000000000000000E+00     0.0000000000000000E+00 
    8.4375000000028044E-01     1.0000000000000000E+00     0.0000000000000000E+00 
    8.1250000000040856E-01     1.0000000000000000E+00     0.0000000000000000E+00 
    7.8125000000054956E-01     1.0000000000000000E+00     0.0000000000000000E+00 
    7.5000000000066480E-01     1.0000000000000000E+00     0.0000000000000000E+00 
    7.1875000000086831E-01     1.0000000000000000E+00     0.0000000000000000E+00 
    6.8750000000102829E-01     1.0000000000000000E+00     0.0000000000000000E+00 
    6.5625000000114431E-01     1.0000000000000000E+00     0.0000000000000000E+00 
    6.2500000000129829E-01     1.0000000000000000E+00     0.0000000000000000E+00 
    5.9375000000147926E-01     1.0000000000000000E+00     0.0000000000000000E+00 
    5.6250000000168354E-01     1.0000000000000000E+00     0.0000000000000000E+00 
    5.3125000000188671E-01     1.0000000000000000E+00     0.0000000000000000E+00 
    5.0000000000205835E-01     1.0000000000000000E+00     0.0000000000000000E+00 
    4.6875000000192979E-01     1.0000000000000000E+00     0.0000000000000000E+00 
    4.3750000000180111E-01     1.0000000000000000E+00     0.0000000000000000E+00 
    4.0625000000167238E-01     1.0000000000000000E+00     0.0000000000000000E+00 
    3.7500000000154382E-01     1.0000000000000000E+00     0.0000000000000000E+00 
    3.4375000000141509E-01     1.0000000000000000E+00     0.0000000000000000E+00 
    3.1250000000128642E-01     1.0000000000000000E+00     0.0000000000000000E+00 
    2.8125000000115769E-01     1.0000000000000000E+00     0.0000000000000000E+00 
    2.5000000000102918E-01     1.0000000000000000E+00     0.0000000000000000E+00 
    2.1875000000090050E-01     1.0000000000000000E+00     0.0000000000000000E+00 
    1.8750000000077180E-01     1.0000000000000000E+00     0.0000000000000000E+00 
    1.5625000000064329E-01     1.0000000000000000E+00     0.0000000000000000E+00 
    1.2500000000051459E-01     1.0000000000000000E+00     0.0000000000000000E+00 
    9.3750000000385914E-02     1.0000000000000000E+00     0.0000000000000000E+00 
    6.2500000000257239E-02     1.0000000000000000E+00     0.0000000000000000E+00 
    3.1250000000128557E-02     1.0000000000000000E+00     0.0000000000000000E+00 
    0.0000000000000000E+00     9.6875000000003686E-01     0.0000000000000000E+00 
    0.0000000000000000E+00     9.3750000000011691E-01     0.0000000000000000E+00 
    0.0000000000000000E+00     9.0625000000015765E-01     0.0000000000000000E+00 
    0.0000000000000000E+00     8.7500000000017863E-01     0.0000000000000000E+00 
    0.0000000000000000E+00     8.4375000000028044E-01     0.0000000000000000E+00 
    0.0000000000000000E+00     8.1250000000040856E-01     0.0000000000000000E+00 
    0.0000000000000000E+00     7.8125000000054956E-01     0.0000000000000000E+00 
    0.0000000000000000E+00     7.5000000000066480E-01     0.0000000000000000E+00 
    0.0000000000000000E+00     7.1875000000086831E-01     0.0000000000000000E+00 
    0.0000000000000000E+00     6.8750000000102829E-01     0.0000000000000000E+00 
    0.0000000000000000E+00     6.5625000000114431E-01     0.0000000000000000E+00 
    0.0000000000000000E+00     6.2500000000129829E-01     0.0000000000000000E+00 
    0.0000000000000000E+00     5.9375000000147926E-01     0.0000000000000000E+00 
    0.0000000000000000E+00     5.6250000000168354E-01     0.0000000000000000E+00 
    0.0000000000000000E+00     5.3125000000188671E-01     0.0000000000000000E+00 
    0.0000000000000000E+00     5.0000000000205835E-01     0.0000000000000000E+00 
    0.0000000000000000E+00     4.6875000000192979E-01     0.0000000000000000E+00 
    0.0000000000000000E+00     4.3750000000180111E-01     0.0000000000000000E+00 
    0.0000000000000000E+00     4.0625000000167238E-01     0.0000000000000000E+00 
[...]
CELL_DATA 2795 
SCALARS Pressure double 1 
LOOKUP_TABLE default 

    7.1489732167390621E+00 
    1.5351540745083550E+01 
    1.0904894551474296E+01 
    1.0600630306413443E+01 
    8.6497675455975411E+00 
    1.5214156602542444E+01 
    1.5964236061985492E+01 
    6.4376361474521602E+00 
    1.1461365521799896E+01 
    8.7930826367152779E+00 
    7.5169535356915755E+00 
    1.4950286155637814E+01 
    1.5270316736097119E+01 
    1.5183412963944200E+01 
    1.0028783088456365E+01 
    6.3350483793838377E+00 
    9.8624849169350437E+00 
    7.9928075001669825E+00 
    1.4576646212412948E+01 
    1.0889169164699929E+01 
    1.0783838148527124E+01 
    1.5114388635220012E+01 
    1.0344541410884617E+01 
    4.2213540266343225E-01 
    1.4945789492840067E+01 
    1.5223349193333878E+01 
    1.5996679592176388E+01 
    7.2842907076804693E+00 
    1.4868743401178149E+01 
    1.5981070459230379E+01 
    1.1027698032593689E+01 
    1.1100388554058426E+01 
    7.9440887292988416E+00 
    1.0867436910675099E+01 
    3.6623567588372912E+00 
    9.8635127220839465E+00 
    1.0854298547233478E+01 
    1.6020982412290401E+01 
    1.5940923006125072E+01 
    1.4963614419330343E+01 
    8.6036313530220188E+00 
    1.4921123345242435E+01 
    8.8469046441738863E-01 
    1.0829371801867500E+01 
    1.5786346937068622E+01 
    1.5551064645135959E+01 
    1.4939271655619905E+01 
    1.1859065789892025E+01 
    1.5007364395941735E+01 
    1.0066039938336385E+01 
    9.6423939111918902E+00 
    1.1064959056442378E+01 
    1.0734135131253767E+01 
    9.9193314999687736E+00 
    1.1095859438328668E+01 
    1.4360381069798095E+01 
    1.2800235956082359E+01 
    8.6927116813555898E+00 
    1.5119893505978446E+01 
    1.5040546473035763E+01 
    1.0592071869190919E+01 
    1.0487228211130800E+01 
    1.0508380101251575E+01 
    1.5882097486484929E+01 
    1.6178342204514689E+01 
    9.8770517203190558E+00 
    1.1063652925387336E+01 
    1.4806032688553522E+01 
    1.2726236783655594E+01 
    1.0529802300637607E+01 
    1.6157783482829405E+01 
    1.5066418708506326E+01 
    9.7505845563016589E+00 
    1.5670633732721882E+01 
    1.1321837013408171E+01 
    1.4787894947625089E+01 
    1.6041863480249429E+01 
    1.1370806516180689E+01 
    7.3177358754298121E+00 
    1.1081901988213692E+01 
    1.5949743138232503E+01 
    1.6179133999132933E+01 
    9.8811579603136170E+00 
    1.1003962562643746E+01 
    1.6228818083142311E+01 
    1.0854448897418825E+01 
    1.0427873926796646E+01 
    1.3170525764698750E+01 
    6.9963816636871536E+00 
    9.6691823465551039E+00 
    1.1002069581812362E+01 
    1.1623021030032136E+01 
    1.7686545114447799E+01 
    8.4227333873954890E+00 
    1.1071560911482905E+01 
    1.4916723651485773E+01 
    1.5216106037112631E+01 
    7.4891237828838015E+00 
    1.0717378843120729E+01 
    1.1034704139747483E+01 
    1.5238692397503135E+01 
    1.1029434416098770E+01 
    1.5164227025959853E+01 
    4.6123168964086210E+00 
    7.3069577349642394E+00 
    1.1289739297308438E+01 
    1.5359691378487412E+01 
    9.8297505307962076E+00 
    1.0378213106776517E+01 
    1.1010501632065063E+01 
    1.0398516550522608E+01 
    1.2419931486005188E+01 
    1.0126539346238264E+01 
    9.7578247700775940E+00 
    7.9387888330567904E+00 
    1.2934810145625457E+01 
    1.1104519952483658E+01 
    1.5795135134591716E+01 
    9.5426452558725909E+00 
    1.0583651594898864E+01 
    1.5050707704612245E+01 
    9.0307257420055631E+00 
    1.5526094252076495E+01 
    1.0929673436710189E+01 
    1.0517596389162422E+01 
    1.5218375618879872E+01 
    1.1094294181567536E+01 
    1.6049161407935415E+01 
    1.3188012821004227E+01 
    1.4196104506636335E+01 
    1.6013856297253639E+01 
    8.4381586524731809E+00 
    1.1315857372010296E+01 
    1.5208841534111977E+01 
    3.4417220674172415E+00 
    1.1074919995082126E+01 
    1.5979546532304605E+01 
    1.0544809252892192E+01 
    1.2054775544553110E+01 
    7.5146242311043023E+00 
    1.4914521934023202E+01 
    1.8165142941010014E+01 
    1.3680661783405284E+01 
    1.0544115632570316E+01 
    9.5664342637821616E+00 
    1.1713635218651842E+01 
    1.0946769598075624E+01 
    7.6041274798251193E+00 
    1.6007579327704285E+01 
    1.5257850042484549E+01 
    1.4918465456913763E+01 
    1.1640519910460270E+01 
    9.7288167136773023E+00 
    1.0780282199530831E+01 
    1.5705871222428669E+01 
    9.9589473160846573E+00 
    1.0988281219046952E+01 
    1.0116064953546712E+01 
    1.2685136933906993E+01 
    1.8153493290690363E+01 
    1.4909797234389968E+01 
    9.7160360115309850E+00 
    1.5422980654913493E+01 
    1.5317220165112273E+01 
    1.5400584752986557E+01 
    1.6428625856280934E+01 
    1.6971780811463397E+01 
    1.5548907911180489E+01 
    1.1055381116833361E+01 
    1.1878600500364891E+01 
    1.5383088113806313E+01 
    1.5811766059695481E+01 
    7.9313632722243419E+00 
    1.4938802595678624E+01 
    1.5670112307720446E+01 
    7.7172267405561792E+00 
    1.6343570079509860E+01 
    1.6325177869411799E+01 
    1.4647105259686674E+01 
    1.1400016334547324E+01 
    3.0079181005891926E+00 
    1.5978540867872317E+01 
    1.1230370078668388E+01 
    1.6110633866158373E+01 
    1.0479650385697784E+01 
    1.5811480920803271E+01 
    1.0993269843307281E+00 
    1.4204895047559560E+01 
    1.0533685668939230E+01 
    9.6863568065194627E+00 
    9.4676711776603550E+00 
    1.0898104139571402E+01 
    1.2046107309361725E+01 
    1.1414285066506164E+01 
    8.0668676633324168E+00 
    1.5801256477967824E+01 
    1.5232736117682673E+01 
    1.2857486682631306E+01 
    1.1283573990189151E+01 
    1.7469352146669264E+00 
    8.7985970945213676E+00 
    6.2746195070962623E+00 
    1.5993641654257507E+01 
    1.2169709698727440E+01 
    1.5284649030401393E+01 
    1.5303235993246330E+01 
    1.0036899303269958E+01 
    1.2691904940401164E+01 
    1.4913309331738242E+01 
    1.6312252685334617E+01 
    7.4552730545804851E+00 
    1.3517220838043196E+01 
    1.1379844702404359E+01 
    6.6709799456665442E+00 
    1.0027944860174051E+01 
    1.3259699800027658E+01 
    1.5262466220931893E+01 
    1.0951218072162549E+01 
    1.5377989951496165E+01 
    1.5132449910976742E+01 
    1.5078684411478202E+01 
    1.0785204619600750E+01 
    9.5996795527003496E+00 
    1.4926757977343760E+01 
    9.7472564341925008E+00 
    1.1036154399510792E+01 
    9.5810807225100909E+00 
    1.0952803076341539E+01 
    1.5313451088167072E+01 
    6.8996201014413243E+00 
    9.9421210984863286E+00 
    1.5909593894959535E+01 
    1.0795699045678420E+01 
    1.2069188749254131E+01 
    7.0762607847905539E+00 
    9.8024100491564976E+00 
    1.5110025543703395E+01 
    1.5435838904701914E+01 
    5.8061934906439996E+00 
    1.0805292902814692E+01 
    9.6287791927791879E+00 
    1.6738981119292806E+01 
    1.6190720220194198E+01 
    1.6998937540202821E+01 
    1.0825874266013139E+01 
    1.5284172047240723E+01 
    1.4866859601735117E+01 
    1.0686681187187336E+01 
    1.4918816461996148E+01 
    1.1285182941636201E+01 
    6.7478960150331089E+00 
    1.1113413831984905E+01 
    1.5894756082868131E+01 
    1.4915532093227034E+01 
    7.4999499939988210E+00 
    1.4946001160919867E+01 
    1.2066943550542058E+01 
    1.1056149812880273E+01 
    1.0616373295067149E+01 
    1.4778517237564971E+01 
    1.1556666755062357E+01 
    1.4932149256105216E+01 
    1.0769543704638355E+01 
    6.9615274389522162E+00 
    1.1111855712217148E+01 
    9.4734408869009243E+00 
    1.3691441042255839E+01 
    1.6100293730399084E+01 
    1.4924798619575190E+01 
    1.5972531352407199E+01 
    1.0739099785294876E+01 
    7.3017867888410954E+00 
    7.3968338195487329E+00 
    1.1235400515987870E+01 
    1.1010012557954553E+01 
    1.6917000005253249E+00 
    1.4404514141229606E+01 
    1.6471642202980767E+01 
    1.0492801593433963E+01 
    7.0265377412392711E+00 
    1.2611021273885632E+01 
    1.4944429568117453E+01 
    8.1836844202056689E+00 
    5.6524640244809268E+00 
    1.0990491177809288E+01 
    1.5023835128568649E+01 
    1.5705180685646495E+01 
    1.5599191093549623E+01 
    1.5438633208438231E+01 
    8.0452912799591871E+00 
    1.1049715494279338E+01 
    1.4445384785848990E+01 
    8.6352011913036275E+00 
    1.5255704038657225E+01 
    1.2921181819749695E+01 
    7.4938625846916977E+00 
    1.5052739341664463E+01 
    1.5994980680735969E+01 
    1.5073673704052112E+01 
    7.9016445910237731E+00 
    1.1059787916600149E+01 
    8.6250080516709424E+00 
    1.0442841715747331E+01 
    1.4935667667892385E+01 
    1.4923505231153765E+01 
    7.9452052407299618E+00 
    1.5852441056044727E+01 
    1.1610467238000696E+01 
    1.4956242681939530E+01 
    1.5830623765937892E+01 
    1.4943823297870731E+01 
    1.3932062219057828E+01 
    1.6793826794162360E+01 
    1.0449053068209041E+01 
    1.5940872329844428E+01 
    1.4983945314943348E+01 
    1.6015536921387763E+01 
    1.5845017631296797E+01 
    1.0544589758405644E+01 
    1.0895002386568191E+01 
    1.0483900870540424E+01 
    1.3409439823223579E+01 
    4.6221461988002899E+00 
    1.1173550472908694E+01 
    1.6919326893699331E+01 
    1.1285830703382407E+01 
    1.1480872571366318E+01 
    1.5987628621277919E+01 
    1.6226553190773942E+01 
    1.0377213705848469E+01 
    1.4950505280315905E+01 
    1.4919650777215056E+01 
    1.1467867615233924E+01 
    1.5799357464933738E+01 
    7.8603535717039854E+00 
    5.0782338096799231E+00 
    1.1761994187485282E+01 
    1.1299958534675545E+01 
    1.4925097928302570E+01 
    7.4696704723633829E+00 
    1.5515243122460063E+01 
    5.1889060050224387E+00 
    1.1234584695117528E+01 
    1.0575872070687957E+01 
    1.1036552555432849E+01 
    1.8202744988634318E+01 
    4.4913670313097498E+00 
    1.1092228916379272E+01 
    1.3156233666414838E+01 
    1.0632571139038843E+01 
    8.7585910243983029E+00 
    1.5622251347970028E+01 
    1.7778564714463560E+01 
    1.5778995456911925E+01 
    1.1033842641314358E+01 
    6.6359098561073520E+00 
    1.7625567488202964E+01 
    1.5223198436897862E+01 
    8.4544263885702655E+00 
    1.0685058085993226E+01 
    1.6410488221565338E+01 
    3.8118884938771358E+00 
    1.1352746860406972E+01 
    1.5763636083857032E+01 
    1.1050932590697663E+01 
    9.6336940149229289E+00 
    1.1131363596508741E+01 
    1.4638573794603179E+01 
    1.1032576322519786E+01 
    5.9292946514915732E+00 
    1.0880350815015538E+00 
    8.2452083693057325E+00 
    1.6631146947059147E+01 
    1.0482536606401391E+01 
    1.2353846648193921E+01 
    1.1858905948664889E+01 
    1.3552509761219905E+01 
    1.1064508423155946E+01 
    1.5128403570066141E+01 
    1.8216695564275017E+01 
    1.3077972759520579E+01 
    1.5912122891289371E+01 
    6.3133438440195977E-01 
    1.4925543181605263E+01 
    6.5380880521118927E+00 
    1.7086895029525220E+01 
    1.1105634313073805E+01 
    9.8057077922688762E+00 
    8.7814287635970363E+00 
    6.1964310415944102E+00 
    1.2349093748173027E+01 
    8.7289156854827183E+00 
    1.3581629228945959E+01 
    2.5506219984584728E+00 
    1.2104201768782847E+01 
    1.4854563687153446E+01 
    6.7185901299215924E+00 
    1.5406108222261677E+01 
    1.6897586021296892E+01 
    1.5248343879930809E+01 
    1.0974043972329531E+01 
    1.1030882655849023E+01 
    1.1098469319700115E+01 
    6.7043847739176172E+00 
    1.0220342112771727E+01 
    1.0070043977589409E+01 
    1.1087683428256122E+01 
    1.0419080407679882E+01 
    8.1213602697620735E-01 
    7.4462586369740205E+00 
    1.0796413636637006E+01 
    1.1063198106693319E+01 
    1.3944154827543352E+01 
    2.4955311651645569E+00 
    1.1425850553649740E+01 
    1.1305748172452958E+01 
    4.3173992591787824E+00 
    1.5109542807407932E+01 
    9.7576675216468285E+00 
    1.1164755661002946E+01 
    1.5223989448587325E+01 
    6.2366122419820238E+00 
    1.5224261551901531E+01 
    9.8720625052228090E+00 
    1.1345581666880289E+00 
    1.0541894909614733E+01 
    1.5865337191081109E+01 
    1.4925565584434747E+01 
    1.4945049922659113E+01 
    1.1437164385819504E+01 
    1.1237890473376524E+01 
    9.7422723297048108E+00 
    8.1061598398531327E+00 
    1.5346765137132381E+01 
    1.0680275183625486E+01 
    7.8657014768999076E+00 
    1.4940128594832130E+01 
    1.5650613412405539E+01 
    1.1257664911940282E+01 
    1.0844319602112950E+01 
    1.8098513051206034E+01 
    1.1468817733608635E+01 
    1.5356084259180601E+01 
    9.3141219966098738E+00 
    1.8244624038752850E+01 
    7.3529408739727264E+00 
    1.0128278092614282E+01 
    8.1898582345856035E+00 
    1.1709846214138931E+01 
    9.3747669225778125E+00 
    1.8228444009255927E+01 
    1.1518900671347463E+01 
    1.4579566782102784E+01 
    7.5561799777810457E+00 
    1.1059862462664535E+01 
    1.5186196998225059E+01 
    9.3882754349873689E+00 
    8.3893619735411118E+00 
    1.2268985266744247E+01 
    1.5427116172269653E+01 
    8.0884831412316274E+00 
    1.0596179041642827E+01 
    1.0878698282310467E+01 
    1.4900250836283426E+01 
    1.0661045719223734E+01 
    1.5398185359292654E+01 
    1.6045275176191584E+01 
    9.7702497365639633E+00 
    9.6005317956373322E+00 
    8.7639504429250756E+00 
    1.5047555904812445E+01 
    1.1332702008639135E+01 
    1.7814812139207785E+01 
    1.4024311566949171E+01 
    1.5145020697685862E+01 
    1.7500314469402529E+01 
    1.6899890670297346E+01 
    1.1106720362017908E+01 
    1.1072875098549286E+01 
    1.4672103978177528E+01 
    1.4964815268774766E+01 
    1.5539711982297273E+01 
    1.5246752156546615E+01 
    1.8119867781110610E+01 
    1.1468324830525489E+01 
    9.8689173465014441E+00 
    1.1474556972158476E+01 
    1.5955882315133959E+01 
    1.1202866242888472E+01 
    6.6202255032058535E+00 
    1.0958343049404998E+01 
    1.6384983025629545E+01 
    1.1342758964136982E+01 
    9.8746267549718176E+00 
    1.0818813049245719E+01 
    1.6492676984573738E+01 
    1.4977647527373431E+01 
    9.4538686494741793E+00 
    1.6631796549956320E+01 
    1.1135506695061874E+01 
    1.5508308149023582E+01 
    1.6506501606932950E+01 
    1.1666669383615096E+01 
    6.2481202296017377E+00 
    1.2127303454828169E+01 
    6.4523524328157302E+00 
    1.1253205735973122E+01 
    1.1054270664606733E+01 
    1.2797202546678674E+01 
    6.8085560373893141E+00 
    1.3583206584971080E+01 
    1.1072335630022195E+01 
    1.5235234114747414E+01 
    1.1763184072082494E+01 
    9.2969429163582227E+00 
    1.0680728163113214E+01 
    1.1589055548497388E+01 
    1.1576886656664522E+01 
    1.6108154428472027E+01 
    9.4842506482098887E+00 
    9.3369188066910116E+00 
    7.1352973798003534E+00 
    1.5559535672740170E+01 
    1.0726501253523503E+01 
    1.4763875122375779E+01 
    1.1023573600573380E+01 
    7.7502634258885887E+00 
    1.5012644843326662E+01 
    1.0999530861480730E+01 
    8.3904760276029950E+00 
    8.8444174458151306E+00 
    9.1280604163973962E+00 
    1.5270360701170413E+01 
    1.1089628964717273E+01 
    1.5924058576087093E+01 
    1.0958949909620639E+01 
    1.0897171012485014E+01 
    1.0516988916482124E+01 
    1.5099547087786487E+01 
    1.0811675383224209E+01 
    9.1706517812684059E+00 
    1.6886594834689749E+01 
    1.5186261934916935E+01 
    7.6884229197193772E+00 
    3.1572592077768160E+00 
    1.1079289643620285E+01 
    1.0365991098237098E+01 
    9.5949830907647549E+00 
    1.0324933849326603E+01 
    1.5136685699270897E+01 
    1.0794896080528137E+01 
    9.9128261530770274E+00 
    1.4987828958682373E+01 
    7.6258800015100894E+00 
    1.4633471024242951E+01 
    1.0016148885888944E+01 
    9.1443079395144071E+00 
    9.6744899116948879E+00 
    1.5597126559385535E+01 
    1.1039309612154275E+01 
    1.1047583724745850E+01 
    6.8832493061741751E+00 
    7.3983570988843868E+00 
    1.3823195755186861E+01 
    1.1057440121447236E+01 
    1.1118475300331975E+01 
    1.6616454796248373E+01 
    9.3326604877195898E+00 
    1.1069741768825129E+01 
    7.8830785429601420E+00 
    8.1293951274466565E+00 
    1.5096510241510909E+01 
    1.0690692544492872E+01 
    8.0994493424558396E+00 
    1.1635206589141907E+01 
    1.0951843564861942E+01 
    1.5098282318488424E+01 
    1.6709596119023864E+01 
    1.2025813153471472E+00 
    1.1084063235712417E+01 
    1.1298269440605363E+01 
    1.5162862153596018E+01 
    1.0610119316526159E+01 
    1.1012348460923112E+01 
    1.6172389947336558E+01 
    9.7083475039122344E+00 
    8.1664439550253007E+00 
    1.3205038335523074E+01 
    1.4939868530299561E+01 
    1.6015170377979356E+01 
    1.6281588209651588E+01 
    1.0930607742354363E+01 
    1.1075853654453768E+01 
    1.2384094973137506E+01 
    7.3346628725088907E+00 
    1.5072832803755745E+01 
    8.7520353155675252E+00 
    7.6133584973808812E+00 
    1.3721362751117722E+01 
    1.2992322075085701E+01 
    7.4774635255650308E+00 
    1.4977258804568597E+01 
    1.6000195593145197E+01 
    1.1484788988830072E+01 
    1.6811630624158006E+01 
    1.5011966002661111E+01 
    1.0673832516392819E+01 
    1.5730663898930745E+01 
    8.1191349680299059E+00 
    1.4959027307855893E+01 
    1.1083066438986226E+01 
    1.1045227085564310E+01 
    1.6787708400968963E+01 
    1.0766062516185709E+01 
    1.3504500092600042E+01 
    9.6565157697557780E+00 
    1.6120515112759687E+01 
    1.4861897930897669E+01 
    1.0026773253364739E+01 
    1.4914400318565196E+01 
    9.9988191865440363E+00 
    1.1020667794036646E+01 
    1.5958130500861888E+01 
    1.5250535720995087E+01 
    1.6003577145809874E+01 
    1.5167271481150545E+01 
    1.0231539746993214E+01 
    1.0439096140392984E+01 
    1.6010490436393571E+01 
    1.0560262063416726E+01 
    1.4783324792888914E+01 
    1.0750437197177032E+01 
    4.6643608689402374E+00 
    7.6862843507461651E+00 
    7.1370688438900816E+00 
    1.5961665244544882E+01 
    1.6716083026209432E+01 
    1.4933318051987969E+01 
    1.2646474804612305E+01 
    1.5240618931422539E+01 
    1.4984920059325420E+01 
    1.5595582183761580E+01 
    6.6664694827594007E+00 
    4.3411759851616258E+00 
    1.2420998869332307E+01 
    1.0760967200820266E+01 
    1.5138989722274127E+01 
    1.5136556906689403E+01 
    1.1326014911528759E+01 
    1.5175080961314634E+01 
    1.1070332928833359E+01 
    1.0981586934170570E+01 
    6.0360933176141343E+00 
    4.3241450485641453E+00 
    1.6487308069911158E+01 
    8.6207284505102759E+00 
    9.9587919511827305E+00 
    1.1214181341473038E+01 
    1.8100154264225988E+01 
    1.1307835267101813E+01 
    1.1365361754600915E+01 
    4.9192067353754929E+00 
    1.1308871157930444E+01 
    1.1323763725523021E+01 
    1.5457272782314174E+01 
    9.6795858945613720E+00 
    1.0577092848793225E+01 
    1.6659458469068682E+01 
    1.1092148739145788E+01 
    1.4950002360297251E+01 
    1.5193753995262353E+01 
    1.3462960611792335E+01 
    9.3763933427229489E+00 
    1.5168101753199199E+01 
    1.0893065890325303E+01 
    1.5125190001254591E+01 
    1.4886157155230327E+01 
    1.5981724592493185E+01 
    1.5162051158091352E+01 
    1.4241277844669764E+01 
    1.1081208872466771E+01 
    7.4128491156527110E+00 
    1.7975004738176160E+01 
    8.9184764654178359E+00 
    1.5898456532110695E+01 
    1.1078689550159284E+01 
    9.3795310279546893E+00 
    5.7010446428410706E+00 
    1.1362713157538229E+01 
    1.5152419080002472E+01 
    1.5151543421131231E+01 
    1.1000999673956905E+01 
    1.1073024206065348E+01 
    1.6869140962517655E+01 
    1.6223508242188920E+01 
    1.1326991260128867E+01 
    4.0361078455432660E+00 
    1.4143093065068317E+01 
    1.8226153329906516E+01 
    1.1084433732971901E+01 
    1.3041394776916491E+01 
    1.0608349379100314E+01 
    1.7833843383074864E+01 
    1.6307288703308210E+01 
    1.6059614686223497E+01 
    1.1349137352776330E+01 
    5.2550917286500667E+00 
    1.0568755739471719E+01 
    1.0631480639848871E+01 
    1.0672478740569113E+01 
    4.3937879102852078E+00 