# vtk DataFile Version 2.0
Pressure Field Data 
ASCII 
DATASET UNSTRUCTURED_GRID 

POINTS 2860 double 

    0.0000000000000000E+00     0.0000000000000000E+00     0.0000000000000000E+00 
    1.0000000000000000E+00     0.0000000000000000E+00     0.0000000000000000E+00 
    1.0000000000000000E+00     1.0000000000000000E+00     0.0000000000000000E+00 
    0.0000000000000000E+00     1.0000000000000000E+00     0.0000000000000000E+00 
    2.5000000000000000E-01     2.5000000000000000E-01     0.0000000000000000E+00 
    7.5000000000000000E-01     2.5000000000000000E-01     0.0000000000000000E+00 
    7.5000000000000000E-01     7.5000000000000000E-01     0.0000000000000000E+00 
    2.5000000000000000E-01     7.5000000000000000E-01     0.0000000000000000E+00 
    3.1249999999942091E-02     0.0000000000000000E+00     0.0000000000000000E+00 
    6.2499999999873469E-02     0.0000000000000000E+00     0.0000000000000000E+00 
    9.3749999999826514E-02     0.0000000000000000E+00     0.0000000000000000E+00 
    1.2499999999977961E-01     0.0000000000000000E+00     0.0000000000000000E+00 
    1.5624999999968961E-01     0.0000000000000000E+00     0.0000000000000000E+00 
    1.8749999999959971E-01     0.0000000000000000E+00     0.0000000000000000E+00 
    2.1874999999950970E-01     0.0000000000000000E+00     0.0000000000000000E+00 
    2.4999999999941969E-01     0.0000000000000000E+00     0.0000000000000000E+00 
    2.8124999999932920E-01     0.0000000000000000E+00     0.0000000000000000E+00 
    3.1249999999923850E-01     0.0000000000000000E+00     0.0000000000000000E+00 
    3.4374999999914790E-01     0.0000000000000000E+00     0.0000000000000000E+00 
    3.7499999999905720E-01     0.0000000000000000E+00     0.0000000000000000E+00 
    4.0624999999896660E-01     0.0000000000000000E+00     0.0000000000000000E+00 
    4.3749999999887590E-01     0.0000000000000000E+00     0.0000000000000000E+00 
    4.6874999999878530E-01     0.0000000000000000E+00     0.0000000000000000E+00 
    4.9999999999869471E-01     0.0000000000000000E+00     0.0000000000000000E+00 
    5.3124999999877620E-01     0.0000000000000000E+00     0.0000000000000000E+00 
    5.6249999999885780E-01     0.0000000000000000E+00     0.0000000000000000E+00 
    5.9374999999893940E-01     0.0000000000000000E+00     0.0000000000000000E+00 
    6.2499999999902101E-01     0.0000000000000000E+00     0.0000000000000000E+00 
    6.5624999999910261E-01     0.0000000000000000E+00     0.0000000000000000E+00 
    6.8749999999918421E-01     0.0000000000000000E+00     0.0000000000000000E+00 
    7.1874999999926570E-01     0.0000000000000000E+00     0.0000000000000000E+00 
    7.4999999999934730E-01     0.0000000000000000E+00     0.0000000000000000E+00 
    7.8124999999942890E-01     0.0000000000000000E+00     0.0000000000000000E+00 
    8.1249999999951039E-01     0.0000000000000000E+00     0.0000000000000000E+00 
    8.4374999999959199E-01     0.0000000000000000E+00     0.0000000000000000E+00 
    8.7499999999967359E-01     0.0000000000000000E+00     0.0000000000000000E+00 
    9.0624999999975520E-01     0.0000000000000000E+00     0.0000000000000000E+00 
    9.3749999999983680E-01     0.0000000000000000E+00     0.0000000000000000E+00 
    9.6874999999991840E-01     0.0000000000000000E+00     0.0000000000000000E+00 
    1.0000000000000000E+00     3.1249999999942091E-02     0.0000000000000000E+00 
    1.0000000000000000E+00     6.2499999999873469E-02     0.0000000000000000E+00 
    1.0000000000000000E+00     9.3749999999826514E-02     0.0000000000000000E+00 
    1.0000000000000000E+00     1.2499999999977961E-01     0.0000000000000000E+00 
    1.0000000000000000E+00     1.5624999999968961E-01     0.0000000000000000E+00 
    1.0000000000000000E+00     1.8749999999959971E-01     0.0000000000000000E+00 
    1.0000000000000000E+00     2.1874999999950970E-01     0.0000000000000000E+00 
    1.0000000000000000E+00     2.4999999999941969E-01     0.0000000000000000E+00 
    1.0000000000000000E+00     2.8124999999932920E-01     0.0000000000000000E+00 
    1.0000000000000000E+00     3.1249999999923850E-01     0.0000000000000000E+00 
    1.0000000000000000E+00     3.4374999999914790E-01     0.0000000000000000E+00 
    1.0000000000000000E+00     3.7499999999905720E-01     0.0000000000000000E+00 
    1.0000000000000000E+00     4.0624999999896660E-01     0.0000000000000000E+00 
    1.0000000000000000E+00     4.3749999999887590E-01     0.0000000000000000E+00 
    1.0000000000000000E+00     4.6874999999878530E-01     0.0000000000000000E+00 
    1.0000000000000000E+00     4.9999999999869471E-01     0.0000000000000000E+00 
    1.0000000000000000E+00     5.3124999999877620E-01     0.0000000000000000E+00 
    1.0000000000000000E+00     5.6249999999885780E-01     0.0000000000000000E+00 
    1.0000000000000000E+00     5.9374999999893940E-01     0.0000000000000000E+00 
    1.0000000000000000E+00     6.2499999999902101E-01     0.0000000000000000E+00 
    1.0000000000000000E+00     6.5624999999910261E-01     0.0000000000000000E+00 
    1.0000000000000000E+00     6.8749999999918421E-01     0.0000000000000000E+00 
    1.0000000000000000E+00     7.1874999999926570E-01     0.0000000000000000E+00 
    1.0000000000000000E+00     7.4999999999934730E-01     0.0000000000000000E+00 
    1.0000000000000000E+00     7.8124999999942890E-01     0.0000000000000000E+00 
    1.0000000000000000E+00     8.1249999999951039E-01     0.0000000000000000E+00 
    1.0000000000000000E+00     8.4374999999959199E-01     0.0000000000000000E+00 
    1.0000000000000000E+00     8.7499999999967359E-01     0.0000000000000000E+00 
    1.0000000000000000E+00     9.0624999999975520E-01     0.0000000000000000E+00 
    1.0000000000000000E+00     9.3749999999983680E-01     0.0000000000000000E+00 
    1.0000000000000000E+00     9.6874999999991840E-01     0.0000000000000000E+00 
    9.6875000000003686E-01     1.0000000000000000E+00     0.0000000000000000E+00 
    9.3750000000011691E-01     1.0000000000000000E+00     0.0000000000000000E+00 
    9.0625000000015765E-01     1.0000000000000000E+00     0.0000000000000000E+00 
    8.7500000000017863E-01     1.0000000000000000E+00     0.0000000000000000E+00 
    8.4375000000028044E-01     1.0000000000000000E+00     0.0000000000000000E+00 
    8.1250000000040856E-01     1.0000000000000000E+00     0.0000000000000000E+00 
    7.8125000000054956E-01     1.0000000000000000E+00     0.0000000000000000E+00 
    7.5000000000066480E-01     1.0000000000000000E+00     0.0000000000000000E+00 
    7.1875000000086831E-01     1.0000000000000000E+00     0.0000000000000000E+00 
    6.8750000000102829E-01     1.0000000000000000E+00     0.0000000000000000E+00 
    6.5625000000114431E-01     1.0000000000000000E+00     0.0000000000000000E+00 
    6.2500000000129829E-01     1.0000000000000000E+00     0.0000000000000000E+00 
    5.9375000000147926E-01     1.0000000000000000E+00     0.0000000000000000E+00 
    5.6250000000168354E-01     1.0000000000000000E+00     0.0000000000000000E+00 
    5.3125000000188671E-01     1.0000000000000000E+00     0.0000000000000000E+00 
    5.0000000000205835E-01     1.0000000000000000E+00     0.0000000000000000E+00 
    4.6875000000192979E-01     1.0000000000000000E+00     0.0000000000000000E+00 
    4.3750000000180111E-01     1.0000000000000000E+00     0.0000000000000000E+00 
    4.0625000000167238E-01     1.0000000000000000E+00     0.0000000000000000E+00 
    3.7500000000154382E-01     1.0000000000000000E+00     0.0000000000000000E+00 
    3.4375000000141509E-01     1.0000000000000000E+00     0.0000000000000000E+00 
    3.1250000000128642E-01     1.0000000000000000E+00     0.0000000000000000E+00 
    2.8125000000115769E-01     1.0000000000000000E+00     0.0000000000000000E+00 
    2.5000000000102918E-01     1.0000000000000000E+00     0.0000000000000000E+00 
    2.1875000000090050E-01     1.0000000000000000E+00     0.0000000000000000E+00 
    1.8750000000077180E-01     1.0000000000000000E+00     0.0000000000000000E+00 
    1.5625000000064329E-01     1.0000000000000000E+00     0.0000000000000000E+00 
    1.2500000000051459E-01     1.0000000000000000E+00     0.0000000000000000E+00 
    9.3750000000385914E-02     1.0000000000000000E+00     0.0000000000000000E+00 
    6.2500000000257239E-02     1.0000000000000000E+00     0.0000000000000000E+00 
    3.1250000000128557E-02     1.0000000000000000E+00     0.0000000000000000E+00 
    0.0000000000000000E+00     9.6875000000003686E-01     0.0000000000000000E+00 
    0.0000000000000000E+00     9.3750000000011691E-01     0.0000000000000000E+00 
    0.0000000000000000E+00     9.0625000000015765E-01     0.0000000000000000E+00 
    0.0000000000000000E+00     8.7500000000017863E-01     0.0000000000000000E+00 
    0.0000000000000000E+00     8.4375000000028044E-01     0.0000000000000000E+00 
    0.0000000000000000E+00     8.1250000000040856E-01     0.0000000000000000E+00 
    0.0000000000000000E+00     7.8125000000054956E-01     0.0000000000000000E+00 
    0.0000000000000000E+00     7.5000000000066480E-01     0.0000000000000000E+00 
    0.0000000000000000E+00     7.1875000000086831E-01     0.0000000000000000E+00 
    0.0000000000000000E+00     6.8750000000102829E-01     0.0000000000000000E+00 
    0.0000000000000000E+00     6.5625000000114431E-01     0.0000000000000000E+00 
    0.0000000000000000E+00     6.2500000000129829E-01     0.0000000000000000E+00 
    0.0000000000000000E+00     5.9375000000147926E-01     0.0000000000000000E+00 
    0.0000000000000000E+00     5.6250000000168354E-01     0.0000000000000000E+00 
    0.0000000000000000E+00     5.3125000000188671E-01     0.0000000000000000E+00 
    0.0000000000000000E+00     5.0000000000205835E-01     0.0000000000000000E+00 
    0.0000000000000000E+00     4.6875000000192979E-01     0.0000000000000000E+00 
    0.0000000000000000E+00     4.3750000000180111E-01     0.0000000000000000E+00 
    0.0000000000000000E+00     4.0625000000167238E-01     0.0000000000000000E+00 
[...]
CELL_DATA 2795 
SCALARS Pressure double 1 
LOOKUP_TABLE default 

    7.7824464774618045E+00 
    2.0856878086688198E+01 
    1.3029365476427541E+01 
    1.2591206720200471E+01 
    9.6919810418631211E+00 
    2.0265758470687011E+01 
    2.1807614755879822E+01 
    6.8920042064668596E+00 
    1.3793869059217839E+01 
    1.0325597343747418E+01 
    8.6879721765092039E+00 
    1.9819581171848977E+01 
    2.0488133267646742E+01 
    2.0210376095025481E+01 
    1.1905732887883158E+01 
    6.7687737050284529E+00 
    1.1384871864441598E+01 
    9.2955239942029930E+00 
    1.9075505455850482E+01 
    1.3010418924565794E+01 
    1.2860035140341866E+01 
    2.0069316347205618E+01 
    1.2168698008846533E+01 
    4.4726617459350942E-01 
    1.9837695017987365E+01 
    2.0622631323974822E+01 
    2.1889766952299546E+01 
    8.3306961148796503E+00 
    1.9655877731846775E+01 
    2.2008864588849200E+01 
    1.3315657199804999E+01 
    1.3313387620735449E+01 
    9.0234536249828068E+00 
    1.2975947494175880E+01 
    4.0226926713140418E+00 
    1.1391568193835136E+01 
    1.2958735265180659E+01 
    2.2085192765194932E+01 
    2.1762332429308131E+01 
    1.9841743613155419E+01 
    9.6025656794336953E+00 
    1.9946221880024250E+01 
    9.2831059312661779E-01 
    1.2969587381399286E+01 
    2.1386762446935098E+01 
    2.1039775880570303E+01 
    1.9801525551548082E+01 
    1.4376073200086612E+01 
    1.9805979879412153E+01 
    1.1681436842934433E+01 
    1.1054365186434195E+01 
    1.3266040981110860E+01 
    1.2811059025534265E+01 
    1.1460208825285839E+01 
    1.3432307279736474E+01 
    1.8660943010585871E+01 
    1.5984694223345290E+01 
    9.7473111844280851E+00 
    2.0095581650318373E+01 
    1.9934019071153518E+01 
    1.2610641724384919E+01 
    1.2482980048350608E+01 
    1.2439635889194054E+01 
    2.1823502360702633E+01 
    2.2185309903273424E+01 
    1.1400288515543640E+01 
    1.3264622849606262E+01 
    1.9378537360174615E+01 
    1.5747367604022157E+01 
    1.2533587675318017E+01 
    2.2195086061796189E+01 
    2.0171053358774412E+01 
    1.1217784812199055E+01 
    2.1203182894601529E+01 
    1.3809075875308720E+01 
    1.9632394210988341E+01 
    2.2133765369516457E+01 
    1.3838046850941266E+01 
    7.9213295321381789E+00 
    1.3290169587918387E+01 
    2.1772854638705301E+01 
    2.2367820887102287E+01 
    1.1447062638451214E+01 
    1.3175769594394978E+01 
    2.2435118127627440E+01 
    1.2960715990345285E+01 
    1.2305357671395656E+01 
    1.6482385602762196E+01 
    7.5443957888501263E+00 
    1.1088438945542782E+01 
    1.3174423802605148E+01 
    1.4010470089028976E+01 
    2.4692780721467180E+01 
    9.4027342615276570E+00 
    1.3275734818191765E+01 
    1.9770320495077033E+01 
    2.0387316039869692E+01 
    8.2019025727148431E+00 
    1.2773295085145898E+01 
    1.3217781208166084E+01 
    2.0440036717082531E+01 
    1.3216405379914601E+01 
    2.0290975546280546E+01 
    4.8619863800627181E+00 
    8.4364862160328542E+00 
    1.3583239186985892E+01 
    2.0890012084598784E+01 
    1.1335047995507354E+01 
    1.2280202425197823E+01 
    1.3193522468176520E+01 
    1.2262306008210379E+01 
    1.5408411182375705E+01 
    1.1882941198107112E+01 
    1.1226375712386897E+01 
    8.6501197604308313E+00 
    1.6474849456168595E+01 
    1.3316758861422462E+01 
    2.1691251383183673E+01 
    1.1295295345546652E+01 
    1.2565575057253561E+01 
    2.0184977542159228E+01 
    1.0194263602055729E+01 
    2.1070678907920339E+01 
    1.3068900964731636E+01 
    1.2455222027401199E+01 
    2.0403879125739099E+01 
    1.3307466292842872E+01 
    2.2064012517127299E+01 
    1.6522922934762921E+01 
    1.8335985251776112E+01 
    2.1927670415644574E+01 
    9.4209207333013882E+00 
    1.3611046130709573E+01 
    2.0519254113261464E+01 
    3.6136169758078251E+00 
    1.3396956414711553E+01 
    2.1852882954084880E+01 
    1.2502888220800644E+01 
    1.4966777744832697E+01 
    8.1238271544272447E+00 
    1.9817192340809097E+01 
    2.5391505436919527E+01 
    1.7366689079235467E+01 
    1.2498253766362790E+01 
    1.0946819051394963E+01 
    1.4462664545758170E+01 
    1.3092950606896675E+01 
    8.7787212601380116E+00 
    2.1940976461228487E+01 
    2.0469131226078421E+01 
    1.9776644030961354E+01 
    1.4023899704629684E+01 
    1.1180084795366216E+01 
    1.2856462192349262E+01 
    2.1227683996417010E+01 
    1.1537915258266274E+01 
    1.3227970352032393E+01 
    1.1801506095207637E+01 
    1.6154388582011652E+01 
    2.5376130425455610E+01 
    1.9746557361709733E+01 
    1.1106853704555364E+01 
    2.0759420476010675E+01 
    2.0799673630680150E+01 
    2.0965218107546715E+01 
    2.2806014529015382E+01 
    2.3692859029934922E+01 
    2.0963836586665810E+01 
    1.3253109089372661E+01 
    1.4672473048215725E+01 
    2.0576219111201798E+01 
    2.1628441795991144E+01 
    9.1786024141086191E+00 
    1.9790917391232107E+01 
    2.1123933831417148E+01 
    8.9299768908980468E+00 
    2.2552233786979084E+01 
    2.2625901973189805E+01 
    1.9201255413446024E+01 
    1.3712996837041031E+01 
    3.3197879994941180E+00 
    2.1876609967787175E+01 
    1.3494746047179786E+01 
    2.2240348464640281E+01 
    1.2398978169285860E+01 
    2.1488056846373468E+01 
    1.1623148122977198E+00 
    1.8324863171049142E+01 
    1.2544714666108913E+01 
    1.1120025891937273E+01 
    1.0797400457474039E+01 
    1.3025238431733387E+01 
    1.4793335595632252E+01 
    1.3923509090018110E+01 
    8.7823707355474561E+00 
    2.1661088062680694E+01 
    2.0608911677249456E+01 
    1.5940839383638105E+01 
    1.3569962661279789E+01 
    1.8152533012241823E+00 
    9.8871756088583709E+00 
    6.7016640404838741E+00 
    2.2041274648689775E+01 
    1.5224050911686343E+01 
    2.0386133464033957E+01 
    2.0716538835657488E+01 
    1.1701818676685159E+01 
    1.6097353428098732E+01 
    1.9735977751789871E+01 
    2.2598872355919596E+01 
    8.0962941320526554E+00 
    1.7436140540328211E+01 
    1.3886947459908333E+01 
    7.1566734528594491E+00 
    1.1664141607542042E+01 
    1.7043293927500255E+01 
    2.0657914842653206E+01 
    1.3101587628966534E+01 
    2.0901185686689466E+01 
    2.0378813289502084E+01 
    2.0285075809403150E+01 
    1.2864730403529574E+01 
    1.1071014483209122E+01 
    1.9797378096390059E+01 
    1.1211863880508806E+01 
    1.3223611585837734E+01 
    1.0957746999915727E+01 
    1.3156101497718030E+01 
    2.0715055408180344E+01 
    7.9414166480057036E+00 
    1.1531705687949270E+01 
    2.1811314502556026E+01 
    1.2881823612740190E+01 
    1.5054455965991352E+01 
    8.1467649868429781E+00 
    1.1309405610330423E+01 
    2.0319478215971998E+01 
    2.1015463290092239E+01 
    6.6468558611990360E+00 
    1.2891214755333575E+01 
    1.1027238434772833E+01 
    2.3329487119742677E+01 
    2.2389756366861040E+01 
    2.3756118550752905E+01 
    1.2920410107418995E+01 
    2.0692896653865791E+01 
    1.9624793498163417E+01 
    1.2735717551084869E+01 
    1.9768966818548144E+01 
    1.3570122136991559E+01 
    7.2536417299287601E+00 
    1.3446069347005414E+01 
    2.1870790905656502E+01 
    1.9760333243887601E+01 
    8.6348219952278598E+00 
    1.9808793246609000E+01 
    1.4837015193653642E+01 
    1.3367643170844216E+01 
    1.2625059913052299E+01 
    1.9476400296102675E+01 
    1.4198486510437428E+01 
    1.9799294283437874E+01 
    1.2871568941903792E+01 
    7.5206167420698113E+00 
    1.3322828194274907E+01 
    1.0816541975458454E+01 
    1.7407241052260051E+01 
    2.2153014356930054E+01 
    1.9808438935436900E+01 
    2.1829901534479909E+01 
    1.2806657189423152E+01 
    8.4115856323249591E+00 
    8.5355692211140273E+00 
    1.3664093825032035E+01 
    1.3189647633688237E+01 
    1.8249345377930077E+00 
    1.8714784356806675E+01 
    2.2833148115281752E+01 
    1.2416512407283728E+01 
    7.5807492905561524E+00 
    1.5859217605426295E+01 
    1.9794661630502510E+01 
    9.0914550433485068E+00 
    6.0396556732055933E+00 
    1.3158279265912336E+01 
    2.0018256350430878E+01 
    2.1531236627070566E+01 
    2.0963439026777387E+01 
    2.1044686685729744E+01 
    8.8550142377388337E+00 
    1.3354115653905028E+01 
    1.9081683794431999E+01 
    1.0124033917870337E+01 
    2.0465298584244614E+01 
    1.6480290423891056E+01 
    8.6630559517081860E+00 
    1.9891767788775820E+01 
    2.1923006130394548E+01 
    2.0083629750238952E+01 
    8.7384862311683591E+00 
    1.3259300295088316E+01 
    9.6608658025753762E+00 
    1.2459239804034169E+01 
    1.9790832658654949E+01 
    1.9773342565051486E+01 
    8.7904358584799613E+00 
    2.1543208672600787E+01 
    1.4099180711277306E+01 
    1.9916017104280293E+01 
    2.1702672698590064E+01 
    1.9851884516240798E+01 
    1.7795335536626101E+01 
    2.3457533032175050E+01 
    1.2357641233470565E+01 
    2.1761653679077611E+01 
    1.9917979835513268E+01 
    2.1933900739528703E+01 
    2.1512085615724743E+01 
    1.2509730625633004E+01 
    1.3016533176347629E+01 
    1.2400906577890268E+01 
    1.6866755606177659E+01 
    4.8855008511852152E+00 
    1.3561896323761289E+01 
    2.3642837804293723E+01 
    1.3578531380392731E+01 
    1.3890139989495747E+01 
    2.1872591433907001E+01 
    2.2338674018515391E+01 
    1.2280940335668866E+01 
    1.9812066568724575E+01 
    1.9782523985971036E+01 
    1.3869097220572252E+01 
    2.1403166627780315E+01 
    9.1245480920174060E+00 
    5.7835789156298354E+00 
    1.4343266337213455E+01 
    1.3597616309622394E+01 
    1.9751245637519055E+01 
    8.1809651629561486E+00 
    2.0795285658586931E+01 
    5.8981691845858215E+00 
    1.3504977269863531E+01 
    1.2597248300348269E+01 
    1.3226740269423779E+01 
    2.5439450319768309E+01 
    4.7378811957246834E+00 
    1.3426352386992590E+01 
    1.6877463632671169E+01 
    1.2667143057174234E+01 
    9.7377265512604456E+00 
    2.1080477996445300E+01 
    2.4816269092456611E+01 
    2.1482144352269039E+01 
    1.3331774134603686E+01 
    7.1156384948870732E+00 
    2.4666657039887077E+01 
    2.0536931416067631E+01 
    9.2744435127848650E+00 
    1.2728914221024985E+01 
    2.2775583663701081E+01 
    4.0161515759166386E+00 
    1.3684242357518174E+01 
    2.1487068155497024E+01 
    1.3245490775657531E+01 
    1.1413698192741885E+01 
    1.3491475972779504E+01 
    1.9234032881668838E+01 
    1.3219327373875323E+01 
    6.2975585990391645E+00 
    1.1474795374719000E+00 
    9.6114721015132556E+00 
    2.3144501625289156E+01 
    1.2398551263762547E+01 
    1.5532191042790013E+01 
    1.4705562552564697E+01 
    1.7509632819679954E+01 
    1.3264063765544165E+01 
    2.0325567966485078E+01 
    2.5456556094592742E+01 
    1.6342081651696581E+01 
    2.1692670397902965E+01 
    6.6952268608542609E-01 
    1.9771976845149279E+01 
    7.0125945139623864E+00 
    2.3891727698496354E+01 
    1.3448662343051977E+01 
    1.1610870557127974E+01 
    9.8671261263583929E+00 
    6.6349378532728620E+00 
    1.5125866603241658E+01 
    1.0227593052182085E+01 
    1.7215670934435423E+01 
    2.7852109879509830E+00 
    1.4899757222606206E+01 
    1.9610344007529104E+01 
    7.7342185464242776E+00 
    2.0693360236435797E+01 
    2.3437128371205354E+01 
    2.0491841273329207E+01 
    1.3235502980487544E+01 
    1.3219332065596499E+01 
    1.3436697793717249E+01 
    7.2166219330793666E+00 
    1.1966203826566872E+01 
    1.1719657576142300E+01 
    1.3418822146063587E+01 
    1.2297799087024556E+01 
    8.5846654109984621E-01 
    8.0856418324456261E+00 
    1.2908811382598188E+01 
    1.3379103562248121E+01 
    1.7854209336926814E+01 
    2.6231926060165622E+00 
    1.3801577496943997E+01 
    1.3609346435287026E+01 
    4.5536623418630118E+00 
    2.0193658346122309E+01 
    1.1263565858143080E+01 
    1.3406616740124818E+01 
    2.0478475499018245E+01 
    6.6547447680171583E+00 
    2.0374166753374762E+01 
    1.1402953773737197E+01 
    1.1805311756805297E+00 
    1.2495644387645299E+01 
    2.1666195263745291E+01 
    1.9787352148746592E+01 
    1.9833416943979163E+01 
    1.4001674912389452E+01 
    1.3508958634523443E+01 
    1.1219921258558221E+01 
    8.8256412845510663E+00 
    2.0635095509112645E+01 
    1.2721397893509836E+01 
    8.5811860663034185E+00 
    1.9813941929954886E+01 
    2.1271461900388264E+01 
    1.3699831925008603E+01 
    1.2948878314302878E+01 
    2.5304738125795414E+01 
    1.3870717597666500E+01 
    2.0775154183624057E+01 
    1.0591130868904203E+01 
    2.5487026732898023E+01 
    8.4855325426334840E+00 
    1.1888668867016944E+01 
    9.5510608856939481E+00 
    1.4260541410549672E+01 
    1.1073836652060351E+01 
    2.5468266180123113E+01 
    1.3951603383372424E+01 
    1.9222730982101830E+01 
    8.7294403019081379E+00 
    1.3259087775301065E+01 
    2.0490390130361757E+01 
    1.1112845867901187E+01 
    9.2092370386809108E+00 
    1.5362303821165405E+01 
    2.0672952027043138E+01 
    9.4211577583189197E+00 
    1.2627532563015807E+01 
    1.2993603737167232E+01 
    1.9731357206610593E+01 
    1.2705285463581198E+01 
    2.0971057586165674E+01 
    2.2007134985338887E+01 
    1.1247175208198396E+01 
    1.0997121762073963E+01 
    1.0291243773315756E+01 
    1.9978588656015138E+01 
    1.3622547416206059E+01 
    2.4871111624550089E+01 
    1.8063863874132380E+01 
    2.0367639373910414E+01 
    2.4478987432123326E+01 
    2.3422649087222201E+01 
    1.3323399478842557E+01 
    1.3394687090158072E+01 
    1.9218294639357804E+01 
    1.9834866777298725E+01 
    2.0927241365858595E+01 
    2.0555911005792630E+01 
    2.5331353607926236E+01 
    1.3869903099091996E+01 
    1.1418355701918793E+01 
    1.3815344540411411E+01 
    2.1791114818662521E+01 
    1.3458192991225184E+01 
    7.5448382461181867E+00 
    1.3210089140544142E+01 
    2.2719516859625273E+01 
    1.3667834539111499E+01 
    1.1415151951900173E+01 
    1.2909092487436769E+01 
    2.2916716919761910E+01 
    2.0091548401043759E+01 
    1.0761038005034903E+01 
    2.3149182071998727E+01 
    1.3364026784115287E+01 
    2.1153808550178557E+01 
    2.2936654072192649E+01 
    1.4370257495855572E+01 
    6.6674490941421816E+00 
    1.5113195462864757E+01 
    6.9056521631249206E+00 
    1.3528907289012823E+01 
    1.3248225241527924E+01 
    1.6164839384775107E+01 
    7.3230480880835582E+00 
    1.7502804249015163E+01 
    1.3275751949406725E+01 
    2.0548211377721493E+01 
    1.4555274210476680E+01 
    1.0463177109562952E+01 
    1.2726131240378118E+01 
    1.4253924388648043E+01 
    1.4044338281937288E+01 
    2.2175211634164942E+01 
    1.0821329149860260E+01 
    1.0611645550012630E+01 
    7.7262191616782196E+00 
    2.1058327026476750E+01 
    1.2786356275251181E+01 
    1.9635041059688611E+01 
    1.3206822545508833E+01 
    8.5050210044635044E+00 
    2.0098209795705927E+01 
    1.3172402399033951E+01 
    9.3427541045409974E+00 
    9.9511935787448351E+00 
    1.0338072460870022E+01 
    2.0579594336085723E+01 
    1.3422016570788509E+01 
    2.1713393874625972E+01 
    1.3114395968059602E+01 
    1.3027040073539627E+01 
    1.2497271603095491E+01 
    2.0263500651176642E+01 
    1.2909091245067028E+01 
    1.0390270878324813E+01 
    2.3415206595322164E+01 
    2.0409892219195324E+01 
    8.9001998464232184E+00 
    3.3124641583672587E+00 
    1.3404696349125818E+01 
    1.2331472421290741E+01 
    1.0987730583640198E+01 
    1.2191264177366861E+01 
    2.0106474567873299E+01 
    1.2944094537054079E+01 
    1.1517638515045673E+01 
    1.9877390662843403E+01 
    8.8203709894020061E+00 
    1.9157073731944156E+01 
    1.1884609489386975E+01 
    1.0300024016333477E+01 
    1.1115888055290752E+01 
    2.1322102890665739E+01 
    1.3230844331713485E+01 
    1.3242155294780147E+01 
    7.4424764282826636E+00 
    8.0925807145109445E+00 
    1.7946978100168156E+01 
    1.3255863348037435E+01 
    1.3469720044485985E+01 
    2.3134046680462422E+01 
    1.0617007851977021E+01 
    1.3273059731652415E+01 
    9.1464293894933064E+00 
    9.4597545674533237E+00 
    2.0184046726023915E+01 
    1.2748830475649209E+01 
    8.9850343804772006E+00 
    1.4024656273670779E+01 
    1.3098564728624119E+01 
    2.0217767539886417E+01 
    2.3291017753271920E+01 
    1.2474644791103691E+00 
    1.3412539511854010E+01 
    1.3595883568829221E+01 
    2.0387916608324975E+01 
    1.2608857943636801E+01 
    1.3194107493636256E+01 
    2.2140939880853274E+01 
    1.1150305923149734E+01 
    9.0703047729287398E+00 
    1.6676035898037529E+01 
    1.9806612603879827E+01 
    2.1930240423225641E+01 
    2.2548575158996691E+01 
    1.3160888760252128E+01 
    1.3399418123623857E+01 
    1.5208715762208108E+01 
    8.4363328885313358E+00 
    2.0013535541013574E+01 
    9.8275197132176970E+00 
    8.8033393008825875E+00 
    1.7508246698206491E+01 
    1.6173631470522679E+01 
    8.6247554177099666E+00 
    1.9865505490879155E+01 
    2.1898419602369927E+01 
    1.3896478280681926E+01 
    2.3461150811848086E+01 
    1.9917360618827715E+01 
    1.2728025497796981E+01 
    2.1257961006514243E+01 
    9.4587622104270821E+00 
    1.9822215606632849E+01 
    1.3411069679061104E+01 
    1.3347017695148962E+01 
    2.3445655453963226E+01 
    1.2836549665100751E+01 
    1.7028926141631839E+01 
    1.1080453150518691E+01 
    2.2181534349673822E+01 
    1.9633537333446238E+01 
    1.1626355090998727E+01 
    1.9801052113160253E+01 
    1.1881419930514667E+01 
    1.3207003663163077E+01 
    2.1803425305907396E+01 
    2.0467483871883022E+01 
    2.1904492170271382E+01 
    2.0386271914314570E+01 
    1.1995604556362856E+01 
    1.2350833236321845E+01 
    2.1919144111543744E+01 
    1.2544917857305798E+01 
    1.9433332924909028E+01 
    1.2818903639410602E+01 
    4.9343805879789988E+00 
    8.9052648035499704E+00 
    8.2305240716571753E+00 
    2.1808130027160797E+01 
    2.3308531801955905E+01 
    1.9811838193723162E+01 
    1.5770062907478900E+01 
    2.0304377414024152E+01 
    1.9867210750912637E+01 
    2.1028142154664348E+01 
    7.1655053744853623E+00 
    4.5832491557645714E+00 
    1.5396627054300840E+01 
    1.2859102357046506E+01 
    2.0126225206725657E+01 
    2.0124098841996286E+01 
    1.3623828800110630E+01 
    2.0186673695216637E+01 
    1.3390420311711054E+01 
    1.3228221594347943E+01 
    6.4360200220805641E+00 
    4.5569604365940881E+00 
    2.2909911599525060E+01 
    1.0098889852436976E+01 
    1.1544551841459558E+01 
    1.3475822988436713E+01 
    2.5307985770872065E+01 
    1.3610363742264571E+01 
    1.3870321462569532E+01 
    5.2493738938175198E+00 
    1.3610131970780857E+01 
    1.3631076466164073E+01 
    2.0736494172405997E+01 
    1.1129006130286589E+01 
    1.2610559597128121E+01 
    2.3205237192776860E+01 
    1.3425815234128144E+01 
    1.9831122107567321E+01 
    2.0270739554148221E+01 
    1.7131840288785284E+01 
    1.1066199744879924E+01 
    2.0375950780291141E+01 
    1.3089695951362289E+01 
    2.0181127881396961E+01 
    1.9699831693648001E+01 
    2.1856787550885073E+01 
    2.0415997651693889E+01 
    1.8363742641002791E+01 
    1.3408080040283751E+01 
    8.5610476590924947E+00 
    2.5138443849093598E+01 
    1.0051125713799202E+01 
    2.1864779519021219E+01 
    1.3403869134996530E+01 
    1.0703927169314751E+01 
    6.2220431827800757E+00 
    1.3685803400840355E+01 
    2.0361438603635918E+01 
    2.0327724626619254E+01 
    1.3180054931701426E+01 
    1.3394387387666075E+01 
    2.3508676180684944E+01 
    2.2443440642595984E+01 
    1.3640387818855720E+01 
    4.2648439291399676E+00 
    1.8198276446282645E+01 
    2.5462254640526773E+01 
    1.3413481449287417E+01 
    1.6422565879905026E+01 
    1.2604612242972639E+01 
    2.4947053320008671E+01 
    2.2588492377106896E+01 
    2.1915555037354654E+01 
    1.3674128903682995E+01 
    5.8311812826123477E+00 
    1.2538827347668365E+01 
    1.2643961901412098E+01 
    1.2716458314862187E+01 
    4.6774233639214309E+00 