# vtk DataFile Version 2.0
Pressure Field Data 
ASCII 
DATASET UNSTRUCTURED_GRID 

POINTS 2860 double 

    0.0000000000000000E+00     0.0000000000000000E+00     0.0000000000000000E+00 
    1.0000000000000000E+00     0.0000000000000000E+00     0.0000000000000000E+00 
    1.0000000000000000E+00     1.0000000000000000E+00     0.0000000000000000E+00 
    0.0000000000000000E+00     1.0000000000000000E+00     0.0000000000000000E+00 
    2.5000000000000000E-01     2.5000000000000000E-01     0.0000000000000000E+00 
    7.5000000000000000E-01     2.5000000000000000E-01     0.0000000000000000E+00 
    7.5000000000000000E-01     7.5000000000000000E-01     0.0000000000000000E+00 
    2.5000000000000000E-01     7.5000000000000000E-01     0.0000000000000000E+00 
    3.1249999999942091E-02     0.0000000000000000E+00     0.0000000000000000E+00 
    6.2499999999873469E-02     0.0000000000000000E+00     0.0000000000000000E+00 
    9.3749999999826514E-02     0.0000000000000000E+00     0.0000000000000000E+00 
    1.2499999999977961E-01     0.0000000000000000E+00     0.0000000000000000E+00 
    1.5624999999968961E-01     0.0000000000000000E+00     0.0000000000000000E+00 
    1.8749999999959971E-01     0.0000000000000000E+00     0.0000000000000000E+00 
    2.1874999999950970E-01     0.0000000000000000E+00     0.0000000000000000E+00 
    2.4999999999941969E-01     0.0000000000000000E+00     0.0000000000000000E+00 
    2.8124999999932920E-01     0.0000000000000000E+00     0.0000000000000000E+00 
    3.1249999999923850E-01     0.0000000000000000E+00     0.0000000000000000E+00 
    3.4374999999914790E-01     0.0000000000000000E+00     0.0000000000000000E+00 
    3.7499999999905720E-01     0.0000000000000000E+00     0.0000000000000000E+00 
    4.0624999999896660E-01     0.0000000000000000E+00     0.0000000000000000E+00 
    4.3749999999887590E-01     0.0000000000000000E+00     0.0000000000000000E+00 
    4.6874999999878530E-01     0.0000000000000000E+00     0.0000000000000000E+00 
    4.9999999999869471E-01     0.0000000000000000E+00     0.0000000000000000E+00 
    5.3124999999877620E-01     0.0000000000000000E+00     0.0000000000000000E+00 
    5.6249999999885780E-01     0.0000000000000000E+00     0.0000000000000000E+00 
    5.9374999999893940E-01     0.0000000000000000E+00     0.0000000000000000E+00 
    6.2499999999902101E-01     0.0000000000000000E+00     0.0000000000000000E+00 
    6.5624999999910261E-01     0.0000000000000000E+00     0.0000000000000000E+00 
    6.8749999999918421E-01     0.0000000000000000E+00     0.0000000000000000E+00 
    7.1874999999926570E-01     0.0000000000000000E+00     0.0000000000000000E+00 
    7.4999999999934730E-01     0.0000000000000000E+00     0.0000000000000000E+00 
    7.8124999999942890E-01     0.0000000000000000E+00     0.0000000000000000E+00 
    8.1249999999951039E-01     0.0000000000000000E+00     0.0000000000000000E+00 
    8.4374999999959199E-01     0.0000000000000000E+00     0.0000000000000000E+00 
    8.7499999999967359E-01     0.0000000000000000E+00     0.0000000000000000E+00 
    9.0624999999975520E-01     0.0000000000000000E+00     0.0000000000000000E+00 
    9.3749999999983680E-01     0.0000000000000000E+00     0.0000000000000000E+00 
    9.6874999999991840E-01     0.0000000000000000E+00     0.0000000000000000E+00 
    1.0000000000000000E+00     3.1249999999942091E-02     0.0000000000000000E+00 
    1.0000000000000000E+00     6.2499999999873469E-02     0.0000000000000000E+00 
    1.0000000000000000E+00     9.3749999999826514E-02     0.0000000000000000E+00 
    1.0000000000000000E+00     1.2499999999977961E-01     0.0000000000000000E+00 
    1.0000000000000000E+00     1.5624999999968961E-01     0.0000000000000000E+00 
    1.0000000000000000E+00     1.8749999999959971E-01     0.0000000000000000E+00 
    1.0000000000000000E+00     2.1874999999950970E-01     0.0000000000000000E+00 
    1.0000000000000000E+00     2.4999999999941969E-01     0.0000000000000000E+00 
    1.0000000000000000E+00     2.8124999999932920E-01     0.0000000000000000E+00 
    1.0000000000000000E+00     3.1249999999923850E-01     0.0000000000000000E+00 
    1.0000000000000000E+00     3.4374999999914790E-01     0.0000000000000000E+00 
    1.0000000000000000E+00     3.7499999999905720E-01     0.0000000000000000E+00 
    1.0000000000000000E+00     4.0624999999896660E-01     0.0000000000000000E+00 
    1.0000000000000000E+00     4.3749999999887590E-01     0.0000000000000000E+00 
    1.0000000000000000E+00     4.6874999999878530E-01     0.0000000000000000E+00 
    1.0000000000000000E+00     4.9999999999869471E-01     0.0000000000000000E+00 
    1.0000000000000000E+00     5.3124999999877620E-01     0.0000000000000000E+00 
    1.0000000000000000E+00     5.6249999999885780E-01     0.0000000000000000E+00 
    1.0000000000000000E+00     5.9374999999893940E-01     0.0000000000000000E+00 
    1.0000000000000000E+00     6.2499999999902101E-01     0.0000000000000000E+00 
    1.0000000000000000E+00     6.5624999999910261E-01     0.0000000000000000E+00 
    1.0000000000000000E+00     6.8749999999918421E-01     0.0000000000000000E+00 
    1.0000000000000000E+00     7.1874999999926570E-01     0.0000000000000000E+00 
    1.0000000000000000E+00     7.4999999999934730E-01     0.0000000000000000E+00 
    1.0000000000000000E+00     7.8124999999942890E-01     0.0000000000000000E+00 
    1.0000000000000000E+00     8.1249999999951039E-01     0.0000000000000000E+00 
    1.0000000000000000E+00     8.4374999999959199E-01     0.0000000000000000E+00 
    1.0000000000000000E+00     8.7499999999967359E-01     0.0000000000000000E+00 
    1.0000000000000000E+00     9.0624999999975520E-01     0.0000000000000000E+00 
    1.0000000000000000E+00     9.3749999999983680E-01     0.0000000000000000E+00 
    1.0000000000000000E+00     9.6874999999991840E-01     0.0000000000000000E+00 
    9.6875000000003686E-01     1.0000000000000000E+00     0.0000000000000000E+00 
    9.3750000000011691E-01     1.0000000000000000E+00     0.0000000000000000E+00 
    9.0625000000015765E-01     1.0000000000000000E+00     0.0000000000000000E+00 
    8.7500000000017863E-01     1.0000000000000000E+00     0.0000000000000000E+00 
    8.4375000000028044E-01     1.0000000000000000E+00     0.0000000000000000E+00 
    8.1250000000040856E-01     1.0000000000000000E+00     0.0000000000000000E+00 
    7.8125000000054956E-01     1.0000000000000000E+00     0.0000000000000000E+00 
    7.5000000000066480E-01     1.0000000000000000E+00     0.0000000000000000E+00 
    7.1875000000086831E-01     1.0000000000000000E+00     0.0000000000000000E+00 
    6.8750000000102829E-01     1.0000000000000000E+00     0.0000000000000000E+00 
    6.5625000000114431E-01     1.0000000000000000E+00     0.0000000000000000E+00 
    6.2500000000129829E-01     1.0000000000000000E+00     0.0000000000000000E+00 
    5.9375000000147926E-01     1.0000000000000000E+00     0.0000000000000000E+00 
    5.6250000000168354E-01     1.0000000000000000E+00     0.0000000000000000E+00 
    5.3125000000188671E-01     1.0000000000000000E+00     0.0000000000000000E+00 
    5.0000000000205835E-01     1.0000000000000000E+00     0.0000000000000000E+00 
    4.6875000000192979E-01     1.0000000000000000E+00     0.0000000000000000E+00 
    4.3750000000180111E-01     1.0000000000000000E+00     0.0000000000000000E+00 
    4.0625000000167238E-01     1.0000000000000000E+00     0.0000000000000000E+00 
    3.7500000000154382E-01     1.0000000000000000E+00     0.0000000000000000E+00 
    3.4375000000141509E-01     1.0000000000000000E+00     0.0000000000000000E+00 
    3.1250000000128642E-01     1.0000000000000000E+00     0.0000000000000000E+00 
    2.8125000000115769E-01     1.0000000000000000E+00     0.0000000000000000E+00 
    2.5000000000102918E-01     1.0000000000000000E+00     0.0000000000000000E+00 
    2.1875000000090050E-01     1.0000000000000000E+00     0.0000000000000000E+00 
    1.8750000000077180E-01     1.0000000000000000E+00     0.0000000000000000E+00 
    1.5625000000064329E-01     1.0000000000000000E+00     0.0000000000000000E+00 
    1.2500000000051459E-01     1.0000000000000000E+00     0.0000000000000000E+00 
    9.3750000000385914E-02     1.0000000000000000E+00     0.0000000000000000E+00 
    6.2500000000257239E-02     1.0000000000000000E+00     0.0000000000000000E+00 
    3.1250000000128557E-02     1.0000000000000000E+00     0.0000000000000000E+00 
    0.0000000000000000E+00     9.6875000000003686E-01     0.0000000000000000E+00 
    0.0000000000000000E+00     9.3750000000011691E-01     0.0000000000000000E+00 
    0.0000000000000000E+00     9.0625000000015765E-01     0.0000000000000000E+00 
    0.0000000000000000E+00     8.7500000000017863E-01     0.0000000000000000E+00 
    0.0000000000000000E+00     8.4375000000028044E-01     0.0000000000000000E+00 
    0.0000000000000000E+00     8.1250000000040856E-01     0.0000000000000000E+00 
    0.0000000000000000E+00     7.8125000000054956E-01     0.0000000000000000E+00 
    0.0000000000000000E+00     7.5000000000066480E-01     0.0000000000000000E+00 
    0.0000000000000000E+00     7.1875000000086831E-01     0.0000000000000000E+00 
    0.0000000000000000E+00     6.8750000000102829E-01     0.0000000000000000E+00 
    0.0000000000000000E+00     6.5625000000114431E-01     0.0000000000000000E+00 
    0.0000000000000000E+00     6.2500000000129829E-01     0.0000000000000000E+00 
    0.0000000000000000E+00     5.9375000000147926E-01     0.0000000000000000E+00 
    0.0000000000000000E+00     5.6250000000168354E-01     0.0000000000000000E+00 
    0.0000000000000000E+00     5.3125000000188671E-01     0.0000000000000000E+00 
    0.0000000000000000E+00     5.0000000000205835E-01     0.0000000000000000E+00 
    0.0000000000000000E+00     4.6875000000192979E-01     0.0000000000000000E+00 
    0.0000000000000000E+00     4.3750000000180111E-01     0.0000000000000000E+00 
    0.0000000000000000E+00     4.0625000000167238E-01     0.0000000000000000E+00 
[...]
CELL_DATA 2795 
SCALARS Pressure double 1 
LOOKUP_TABLE default 

    7.5667934558581056E+00 
    1.6435670866351288E+01 
    1.1613815795479990E+01 
    1.1330192667080185E+01 
    9.2028481511498814E+00 
    1.6300848093242372E+01 
    1.7099700562268861E+01 
    6.7920036593976354E+00 
    1.2165401670089262E+01 
    9.3982092365749370E+00 
    8.0618169256338454E+00 
    1.6015514680112354E+01 
    1.6342677214582935E+01 
    1.6268081120152541E+01 
    1.0719206352240668E+01 
    6.6765471531862088E+00 
    1.0532443500682604E+01 
    8.5616556941599224E+00 
    1.5617790518587453E+01 
    1.1596305093351349E+01 
    1.1495316680374559E+01 
    1.6192496481241040E+01 
    1.1053387029919397E+01 
    4.4466662256379524E-01 
    1.5936393195831334E+01 
    1.6297269704122876E+01 
    1.7134013230619736E+01 
    7.8252579290386191E+00 
    1.5929108756914044E+01 
    1.7113120127163821E+01 
    1.1774915773241981E+01 
    1.1798385245520997E+01 
    8.5341080779131850E+00 
    1.1577420367159537E+01 
    3.8950659624687582E+00 
    1.0531965335536103E+01 
    1.1563773686357012E+01 
    1.7155148469942109E+01 
    1.7074983556208007E+01 
    1.6029633357878073E+01 
    9.1820519173063619E+00 
    1.5966428756459493E+01 
    9.3071364959601510E-01 
    1.1569384898576921E+01 
    1.6896584967599555E+01 
    1.6634662020878864E+01 
    1.6003802592302954E+01 
    1.2542760519280867E+01 
    1.6064040849465531E+01 
    1.0759259137187367E+01 
    1.0290731803050438E+01 
    1.1762798498698109E+01 
    1.1472035531629295E+01 
    1.0598270280399104E+01 
    1.1845755546113910E+01 
    1.5387258395986258E+01 
    1.3580727176841714E+01 
    9.2495153882906269E+00 
    1.6199870478363408E+01 
    1.6112340971466107E+01 
    1.1310105930698256E+01 
    1.1187029197725213E+01 
    1.1231639731608524E+01 
    1.7007702766367309E+01 
    1.7324905122351037E+01 
    1.0550922667522244E+01 
    1.1761320586636517E+01 
    1.5792377690549328E+01 
    1.3553597491813223E+01 
    1.1236966435242188E+01 
    1.7303348717767800E+01 
    1.6115964025828308E+01 
    1.0410304602006411E+01 
    1.6753938375619263E+01 
    1.2083672625046301E+01 
    1.5777136557770573E+01 
    1.7179065718613042E+01 
    1.2121039088302748E+01 
    7.6932650545808157E+00 
    1.1779217473686424E+01 
    1.7084378890068578E+01 
    1.7322857259094164E+01 
    1.0549516528039460E+01 
    1.1706012783028903E+01 
    1.7377895957935809E+01 
    1.1562983962273901E+01 
    1.1143693668275162E+01 
    1.4059760541821163E+01 
    7.3774899919235173E+00 
    1.0321327535114555E+01 
    1.1703360785099092E+01 
    1.2322423536529037E+01 
    1.8894443070023872E+01 
    8.9550742202069937E+00 
    1.1769057741461138E+01 
    1.5979657842567862E+01 
    1.6281391450358200E+01 
    7.9377210476061197E+00 
    1.1428990900528785E+01 
    1.1736742154973903E+01 
    1.6307854211203843E+01 
    1.1728003408843762E+01 
    1.6221263477390110E+01 
    4.8632631384155678E+00 
    7.8363630814866241E+00 
    1.1983323273154491E+01 
    1.6445469708876661E+01 
    1.0496791812042813E+01 
    1.1077935148381258E+01 
    1.1707352608190337E+01 
    1.1112160756287343E+01 
    1.3188163298812494E+01 
    1.0807002339099480E+01 
    1.0417856184615353E+01 
    8.3877790466312785E+00 
    1.3826836939493925E+01 
    1.1803842736592923E+01 
    1.6914844598704168E+01 
    1.0178661732365011E+01 
    1.1311029521459893E+01 
    1.6106033997298773E+01 
    9.6281199538247986E+00 
    1.6618584031555823E+01 
    1.1634943517802432E+01 
    1.1241153159021399E+01 
    1.6284917477614229E+01 
    1.1791377790360551E+01 
    1.7188258790555651E+01 
    1.4111186976470309E+01 
    1.5206823874498133E+01 
    1.7152148600347971E+01 
    8.9713256202913794E+00 
    1.2006189934890665E+01 
    1.6278657346150837E+01 
    3.6272770322531560E+00 
    1.1823848937310231E+01 
    1.7115832025745320E+01 
    1.1269192234148800E+01 
    1.2851460664417869E+01 
    7.8808481925165568E+00 
    1.5974986594297430E+01 
    1.9384180203643488E+01 
    1.4629406004894001E+01 
    1.1269598015888397E+01 
    1.0206662414365985E+01 
    1.2496152992295809E+01 
    1.1651642479489986E+01 
    8.1697450908680054E+00 
    1.7144927696734214E+01 
    1.6329377652638758E+01 
    1.5981351925860098E+01 
    1.2316763789343364E+01 
    1.0387821053186425E+01 
    1.1491208340238259E+01 
    1.6795521375044665E+01 
    1.0637364804359745E+01 
    1.1732353691259066E+01 
    1.0807129687402304E+01 
    1.3567839491940363E+01 
    1.9372255814031107E+01 
    1.5972682768848218E+01 
    1.0390452365298476E+01 
    1.6515041600341288E+01 
    1.6398997439853463E+01 
    1.6489596524905092E+01 
    1.7588002542837234E+01 
    1.8156069266268130E+01 
    1.6624219646207219E+01 
    1.1753178331937269E+01 
    1.2643193227812777E+01 
    1.6444729022021502E+01 
    1.6933149806314756E+01 
    8.5297230099743597E+00 
    1.6003508260961901E+01 
    1.6756216123457268E+01 
    8.2945342824408730E+00 
    1.7509261649536892E+01 
    1.7478111928213682E+01 
    1.5690738256816225E+01 
    1.2080412249086498E+01 
    3.2240742889390863E+00 
    1.7114263218903048E+01 
    1.1924454258895056E+01 
    1.7253010838714008E+01 
    1.1198606047786905E+01 
    1.6921645838541348E+01 
    1.1611331768294140E+00 
    1.5201167322048699E+01 
    1.1232562281478822E+01 
    1.0339819845719475E+01 
    1.0100007365187054E+01 
    1.1603780601184353E+01 
    1.2785744989005297E+01 
    1.2186292134945218E+01 
    8.4512746351087724E+00 
    1.6921909542862224E+01 
    1.6306159449098761E+01 
    1.3633723594128911E+01 
    1.1975898174612746E+01 
    1.8376245273251026E+00 
    9.3657218253759780E+00 
    6.6040173230354746E+00 
    1.7126001396581501E+01 
    1.2976399803081854E+01 
    1.6355125375239378E+01 
    1.6381631173289403E+01 
    1.0716999961440832E+01 
    1.3526863629290350E+01 
    1.5976143328605421E+01 
    1.7465472114207653E+01 
    7.8972013367102560E+00 
    1.4440829481188786E+01 
    1.2145034049999643E+01 
    7.0222243333192456E+00 
    1.0712113690376011E+01 
    1.4123097025167992E+01 
    1.6338024296119730E+01 
    1.1654558033893531E+01 
    1.6464067140051750E+01 
    1.6195946983593696E+01 
    1.6138105953761631E+01 
    1.1495278773032490E+01 
    1.0236699693198080E+01 
    1.5989712892836353E+01 
    1.0406044628076776E+01 
    1.1735824777351038E+01 
    1.0224699378048246E+01 
    1.1690778418159780E+01 
    1.6391955717117323E+01 
    7.3974849306877060E+00 
    1.0618413377683009E+01 
    1.7038933800979851E+01 
    1.1504145185889145E+01 
    1.2870269962314486E+01 
    7.5874131276742816E+00 
    1.0466976644175789E+01 
    1.6171113765437344E+01 
    1.6526797629942251E+01 
    6.2233840705741343E+00 
    1.1515511543631810E+01 
    1.0281905178276059E+01 
    1.7914135180584672E+01 
    1.7335901085765716E+01 
    1.8185264370140199E+01 
    1.1535310967672270E+01 
    1.6361277594784834E+01 
    1.5924487666515251E+01 
    1.1397919754617236E+01 
    1.5982048788948134E+01 
    1.1977413359014795E+01 
    7.0975671511945171E+00 
    1.1867074912673578E+01 
    1.7021395720601120E+01 
    1.5978671723756836E+01 
    8.0565870225733160E+00 
    1.6011136345978425E+01 
    1.2811342107678369E+01 
    1.1803529581836994E+01 
    1.1343806119225880E+01 
    1.5833338529419720E+01 
    1.2330848031157952E+01 
    1.5995724464884519E+01 
    1.1506795398967025E+01 
    7.3252249660750115E+00 
    1.1813814686939844E+01 
    1.0104272862602485E+01 
    1.4663830958226683E+01 
    1.7243011638106292E+01 
    1.5986944893074092E+01 
    1.7108496938705148E+01 
    1.1447174227193294E+01 
    7.8296144146015161E+00 
    7.9330635762343711E+00 
    1.1992735930232374E+01 
    1.1708759216560464E+01 
    1.7950542213261369E+00 
    1.5425813970390465E+01 
    1.7637268447748767E+01 
    1.1213905429670406E+01 
    7.4166364182765570E+00 
    1.3410204924812600E+01 
    1.6009402573589558E+01 
    8.6920574807224007E+00 
    5.9649024109096382E+00 
    1.1691993289971524E+01 
    1.6088069872050134E+01 
    1.6818552368023628E+01 
    1.6682751108625862E+01 
    1.6531255988660114E+01 
    8.5850672511944275E+00 
    1.1797584209930161E+01 
    1.5461088688199659E+01 
    9.2321655482363809E+00 
    1.6326601220362029E+01 
    1.3766745327147365E+01 
    8.0362983935389707E+00 
    1.6112959472640323E+01 
    1.7140136232514394E+01 
    1.6111721803733001E+01 
    8.3866155363944941E+00 
    1.1757485923758354E+01 
    9.1762288892122523E+00 
    1.1116287676670664E+01 
    1.6000122661496118E+01 
    1.5987125640779389E+01 
    8.4328221766688163E+00 
    1.6974277506459927E+01 
    1.2324427031658924E+01 
    1.6017558377689003E+01 
    1.6951059599188959E+01 
    1.6006256515787264E+01 
    1.4862670616332100E+01 
    1.7973534913547088E+01 
    1.1163344827733832E+01 
    1.7074912117049500E+01 
    1.6047989616185319E+01 
    1.7153905453185402E+01 
    1.6970340817894016E+01 
    1.1266617379320211E+01 
    1.1603305275060103E+01 
    1.1204706277938843E+01 
    1.4266307304295502E+01 
    4.8737269925403757E+00 
    1.1927545693973842E+01 
    1.8103287735291836E+01 
    1.1979824873917513E+01 
    1.2186357212685765E+01 
    1.7124374636653748E+01 
    1.7375057936150061E+01 
    1.1076357240693840E+01 
    1.6016044032352383E+01 
    1.5982438042598709E+01 
    1.2172476566809529E+01 
    1.6924008549385370E+01 
    8.4415345828071526E+00 
    5.4451980315526711E+00 
    1.2485754247006296E+01 
    1.1993311928325452E+01 
    1.5988354065748952E+01 
    7.9138894654789569E+00 
    1.6601515350944087E+01 
    5.5577254474498394E+00 
    1.1928994255072071E+01 
    1.1289541832155129E+01 
    1.1734751939103244E+01 
    1.9421752778414103E+01 
    4.7382923719070797E+00 
    1.1841910205619826E+01 
    1.4064842411454936E+01 
    1.1343733895908073E+01 
    9.3477631238403056E+00 
    1.6736157312313196E+01 
    1.8989485190444203E+01 
    1.6884922273273990E+01 
    1.1779678719698088E+01 
    6.9902013174583617E+00 
    1.8831106991542416E+01 
    1.6293971084993494E+01 
    8.8419127347962689E+00 
    1.1418962478546868E+01 
    1.7568455351128080E+01 
    4.0189236681421470E+00 
    1.2050182125363987E+01 
    1.6875320295919821E+01 
    1.1749577359934086E+01 
    1.0273097015862495E+01 
    1.1883139073709737E+01 
    1.5552008418000138E+01 
    1.1731916630262152E+01 
    6.2413832181873019E+00 
    1.1523244922465539E+00 
    8.8340887200054361E+00 
    1.7804819205429638E+01 
    1.1203559641777822E+01 
    1.3170032189529143E+01 
    1.2649053144005517E+01 
    1.4412852469018885E+01 
    1.1763037464821524E+01 
    1.6190083215542508E+01 
    1.9435912868527943E+01 
    1.4005936223094434E+01 
    1.7044410720435568E+01 
    6.6567298015120380E-01 
    1.5989385740036338E+01 
    6.8688750912406578E+00 
    1.8276477337134285E+01 
    1.1856034245100165E+01 
    1.0471577564166015E+01 
    9.3473048911819472E+00 
    6.5407611492506215E+00 
    1.3066661361599653E+01 
    9.3429071364695222E+00 
    1.4553543343255026E+01 
    2.7376508134140609E+00 
    1.2851955250633926E+01 
    1.5912720140640486E+01 
    7.2049687038178272E+00 
    1.6474362809986857E+01 
    1.8076306598572554E+01 
    1.6322350823381601E+01 
    1.1715774537261723E+01 
    1.1728896671606568E+01 
    1.1848494210434332E+01 
    7.0805215689903704E+00 
    1.0919550750441958E+01 
    1.0757388116994884E+01 
    1.1837112050797719E+01 
    1.1134063469843769E+01 
    8.5669828843580931E-01 
    7.8243562739587169E+00 
    1.1532024516441830E+01 
    1.1811030039443690E+01 
    1.4931107658433172E+01 
    2.6287860070933009E+00 
    1.2127819276100121E+01 
    1.2000494929783876E+01 
    4.5525770647842725E+00 
    1.6176583040647394E+01 
    1.0414079246840053E+01 
    1.1860452617393843E+01 
    1.6292557066015917E+01 
    6.5733432335664101E+00 
    1.6294228176956800E+01 
    1.0542901752488948E+01 
    1.1913336516883997E+00 
    1.1266872898540885E+01 
    1.6991365897304998E+01 
    1.5988874451186305E+01 
    1.6008529295354336E+01 
    1.2205072923145980E+01 
    1.1932020363026755E+01 
    1.0401350390884529E+01 
    8.4752358262589969E+00 
    1.6422429566201860E+01 
    1.1413653828740513E+01 
    8.2509995401698575E+00 
    1.6004020437328990E+01 
    1.6746362372943320E+01 
    1.2016345484602931E+01 
    1.1551924822245775E+01 
    1.9315027098852269E+01 
    1.2173524141200643E+01 
    1.6436846493951876E+01 
    9.9315681505840985E+00 
    1.9463824602796013E+01 
    7.8856322566528965E+00 
    1.0808340522759284E+01 
    8.8162876839394659E+00 
    1.2430688770778772E+01 
    1.0030219009004419E+01 
    1.9447462699140090E+01 
    1.2226916274265493E+01 
    1.5505220885755934E+01 
    8.1102474470291153E+00 
    1.1757723378733399E+01 
    1.6254556738952278E+01 
    1.0084885300111656E+01 
    8.8622019148981757E+00 
    1.3114850935884707E+01 
    1.6529395684879230E+01 
    8.6604768759727673E+00 
    1.1311830341392612E+01 
    1.1587325017448656E+01 
    1.5962588329369517E+01 
    1.1367502805581168E+01 
    1.6487670932418141E+01 
    1.7185293209532826E+01 
    1.0430828868499463E+01 
    1.0244797825965339E+01 
    9.3659233154702779E+00 
    1.6117598218975122E+01 
    1.2033683299102636E+01 
    1.9026372787704851E+01 
    1.4919450050425665E+01 
    1.6208454181426248E+01 
    1.8701793258238041E+01 
    1.8078632573786642E+01 
    1.1803978531327163E+01 
    1.1821370194020403E+01 
    1.5711676095648405E+01 
    1.6031447015151603E+01 
    1.6631451492096783E+01 
    1.6318518691828899E+01 
    1.9338061626808067E+01 
    1.2172991150001808E+01 
    1.0538585489135729E+01 
    1.2173054685709102E+01 
    1.7090867952034383E+01 
    1.1897607691273521E+01 
    7.0817318761353771E+00 
    1.1699031999326150E+01 
    1.7543401298678585E+01 
    1.2039417018023547E+01 
    1.0545827201705533E+01 
    1.1529111794721372E+01 
    1.7656156185669566E+01 
    1.6029020571449532E+01 
    1.0099363405086972E+01 
    1.7801905165680243E+01 
    1.1831920195118439E+01 
    1.6605086715943340E+01 
    1.7670401527088785E+01 
    1.2446373986467602E+01 
    6.5799307554511870E+00 
    1.2915372403760157E+01 
    6.7992059724141027E+00 
    1.1946650374906286E+01 
    1.1753929659154105E+01 
    1.3584536594622074E+01 
    7.1842566437141571E+00 
    1.4447617427320974E+01 
    1.1770281782810871E+01 
    1.6306692699036869E+01 
    1.2571585962930234E+01 
    9.9277095598052032E+00 
    1.1391986894079071E+01 
    1.2364953421600863E+01 
    1.2288392518837385E+01 
    1.7249993433335010E+01 
    1.0118112663373715E+01 
    9.9564850930257212E+00 
    7.5565216398013542E+00 
    1.6652167823554262E+01 
    1.1437492327406003E+01 
    1.5795707738689190E+01 
    1.1723062321069504E+01 
    8.2499159647697855E+00 
    1.6064388332160359E+01 
    1.1699988752451690E+01 
    8.9347755756041174E+00 
    9.4180327945991760E+00 
    9.7257003813206833E+00 
    1.6342641588881001E+01 
    1.1839173234278434E+01 
    1.7057257133171973E+01 
    1.1661006784707306E+01 
    1.1601187177698309E+01 
    1.1227834614788787E+01 
    1.6158445528153994E+01 
    1.1516888663184137E+01 
    9.7726540500681178E+00 
    1.8065007496550688E+01 
    1.6251984871278097E+01 
    8.2570923149810245E+00 
    3.3271913470620964E+00 
    1.1828316325843888E+01 
    1.1070984695699082E+01 
    1.0239468421557131E+01 
    1.1021613528848873E+01 
    1.6216597085678856E+01 
    1.1525103245822006E+01 
    1.0580824710253642E+01 
    1.6055825210440720E+01 
    8.1798450494915560E+00 
    1.5673371739259419E+01 
    1.0687940312178579E+01 
    9.7746813889169886E+00 
    1.0327008570584550E+01 
    1.6701257118615320E+01 
    1.1737308375642547E+01 
    1.1745563796089682E+01 
    7.2754993811972453E+00 
    7.8359008643752626E+00 
    1.4694941099321092E+01 
    1.1755264240841678E+01 
    1.1869618477278591E+01 
    1.7786894248245446E+01 
    9.9499034406806430E+00 
    1.1767328821721840E+01 
    8.4533808652854461E+00 
    8.7125232808091173E+00 
    1.6138970695281941E+01 
    1.1394039099974661E+01 
    8.6003230550734990E+00 
    1.2321282060378444E+01 
    1.1657628366615780E+01 
    1.6148113767222036E+01 
    1.7883896955129583E+01 
    1.2619623369376884E+00 
    1.1833369833450124E+01 
    1.1991936671232075E+01 
    1.6227374045438914E+01 
    1.1339266214017988E+01 
    1.1710345197952661E+01 
    1.7321588951351199E+01 
    1.0363833364112963E+01 
    8.6728612815723523E+00 
    1.4024582333881622E+01 
    1.6004165736949812E+01 
    1.7153294166095190E+01 
    1.7431634608727986E+01 
    1.1670668391216930E+01 
    1.1824571562902657E+01 
    1.3092534962066015E+01 
    7.8704104345951258E+00 
    1.6148602093136400E+01 
    9.3148862572225166E+00 
    8.1710952629262170E+00 
    1.4574318867428040E+01 
    1.3746148348792561E+01 
    8.0252452377726229E+00 
    1.6043897675839027E+01 
    1.7137686121368713E+01 
    1.2190537543605874E+01 
    1.7990624113066168E+01 
    1.6081227860326411E+01 
    1.1401936892951669E+01 
    1.6853337139401862E+01 
    8.6991390810346694E+00 
    1.6025178208158287E+01 
    1.1832267976740347E+01 
    1.1792756927222419E+01 
    1.7966905766472149E+01 
    1.1477642099753943E+01 
    1.4313846612866991E+01 
    1.0305114691526834E+01 
    1.7264602242613730E+01 
    1.5921398082873615E+01 
    1.0715407525273989E+01 
    1.5975503136412017E+01 
    1.0720228703555597E+01 
    1.1717741590791244E+01 
    1.7093186086796631E+01 
    1.6321205545053896E+01 
    1.7141183428807899E+01 
    1.6231742241159047E+01 
    1.0932003624045347E+01 
    1.1149966837710423E+01 
    1.7148613784084034E+01 
    1.1280284851250659E+01 
    1.5829508833287459E+01 
    1.1460393179290781E+01 
    4.9236910308119439E+00 
    8.2394573620795644E+00 
    7.6537787728236024E+00 
    1.7096983992525097E+01 
    1.7891219893908566E+01 
    1.5996400668857715E+01 
    1.3428271916478833E+01 
    1.6322283005281434E+01 
    1.6053232796833342E+01 
    1.6707673313662248E+01 
    7.0378714444960293E+00 
    4.5806414471118044E+00 
    1.3184875037283470E+01 
    1.1497689592761740E+01 
    1.6220064314820622E+01 
    1.6217638984589712E+01 
    1.2014178100373178E+01 
    1.6258823691716383E+01 
    1.1818702913822083E+01 
    1.1728706165321981E+01 
    6.3624391366839745E+00 
    4.5604423498659958E+00 
    1.7649943075624929E+01 
    9.2309864121153975E+00 
    1.0637013594433670E+01 
    1.1908837932137219E+01 
    1.9317208163395346E+01 
    1.2001726731670116E+01 
    1.2130908890383063E+01 
    5.2149206342363872E+00 
    1.2001997072621277E+01 
    1.2016480233941847E+01 
    1.6518965732349379E+01 
    1.0331052668505448E+01 
    1.1270270636165268E+01 
    1.7831243925176839E+01 
    1.1841927387430372E+01 
    1.6014387304465966E+01 
    1.6264909177361734E+01 
    1.4313761339420800E+01 
    1.0033542998646523E+01 
    1.6231965939798599E+01 
    1.1633874631422774E+01 
    1.6192685978120256E+01 
    1.5947753100643476E+01 
    1.7118203412845034E+01 
    1.6227439947210559E+01 
    1.5199277660803657E+01 
    1.1830282994131464E+01 
    7.9502447968369321E+00 
    1.9189613409196635E+01 
    9.4971600604923410E+00 
    1.7024657122782099E+01 
    1.1827635233433377E+01 
    1.0000971249525310E+01 
    6.0833386703486099E+00 
    1.2054325723246640E+01 
    1.6215735741650366E+01 
    1.6212245970024171E+01 
    1.1698160397253830E+01 
    1.1821685805819991E+01 
    1.8049226091751279E+01 
    1.7370347547614671E+01 
    1.2021780278983949E+01 
    4.2614329201266994E+00 
    1.5018724404430422E+01 
    1.9444740211150346E+01 
    1.1833669903026179E+01 
    1.3854303194151399E+01 
    1.1337919123315707E+01 
    1.9044626911822348E+01 
    1.7459799971754904E+01 
    1.7204232786013876E+01 
    1.2044560221646163E+01 
    5.5951037928108285E+00 
    1.1296044369694897E+01 
    1.1361918169693597E+01 
    1.1403629047983102E+01 
    4.6528845768254987E+00 