# vtk DataFile Version 2.0
Pressure Field Data 
ASCII 
DATASET UNSTRUCTURED_GRID 

POINTS 2860 double 

    0.0000000000000000E+00     0.0000000000000000E+00     0.0000000000000000E+00 
    1.0000000000000000E+00     0.0000000000000000E+00     0.0000000000000000E+00 
    1.0000000000000000E+00     1.0000000000000000E+00     0.0000000000000000E+00 
    0.0000000000000000E+00     1.0000000000000000E+00     0.0000000000000000E+00 
    2.5000000000000000E-01     2.5000000000000000E-01     0.0000000000000000E+00 
    7.5000000000000000E-01     2.5000000000000000E-01     0.0000000000000000E+00 
    7.5000000000000000E-01     7.5000000000000000E-01     0.0000000000000000E+00 
    2.5000000000000000E-01     7.5000000000000000E-01     0.0000000000000000E+00 
    3.1249999999942091E-02     0.0000000000000000E+00     0.0000000000000000E+00 
    6.2499999999873469E-02     0.0000000000000000E+00     0.0000000000000000E+00 
    9.3749999999826514E-02     0.0000000000000000E+00     0.0000000000000000E+00 
    1.2499999999977961E-01     0.0000000000000000E+00     0.0000000000000000E+00 
    1.5624999999968961E-01     0.0000000000000000E+00     0.0000000000000000E+00 
    1.8749999999959971E-01     0.0000000000000000E+00     0.0000000000000000E+00 
    2.1874999999950970E-01     0.0000000000000000E+00     0.0000000000000000E+00 
    2.4999999999941969E-01     0.0000000000000000E+00     0.0000000000000000E+00 
    2.8124999999932920E-01     0.0000000000000000E+00     0.0000000000000000E+00 
    3.1249999999923850E-01     0.0000000000000000E+00     0.0000000000000000E+00 
    3.4374999999914790E-01     0.0000000000000000E+00     0.0000000000000000E+00 
    3.7499999999905720E-01     0.0000000000000000E+00     0.0000000000000000E+00 
    4.0624999999896660E-01     0.0000000000000000E+00     0.0000000000000000E+00 
    4.3749999999887590E-01     0.0000000000000000E+00     0.0000000000000000E+00 
    4.6874999999878530E-01     0.0000000000000000E+00     0.0000000000000000E+00 
    4.9999999999869471E-01     0.0000000000000000E+00     0.0000000000000000E+00 
    5.3124999999877620E-01     0.0000000000000000E+00     0.0000000000000000E+00 
    5.6249999999885780E-01     0.0000000000000000E+00     0.0000000000000000E+00 
    5.9374999999893940E-01     0.0000000000000000E+00     0.0000000000000000E+00 
    6.2499999999902101E-01     0.0000000000000000E+00     0.0000000000000000E+00 
    6.5624999999910261E-01     0.0000000000000000E+00     0.0000000000000000E+00 
    6.8749999999918421E-01     0.0000000000000000E+00     0.0000000000000000E+00 
    7.1874999999926570E-01     0.0000000000000000E+00     0.0000000000000000E+00 
    7.4999999999934730E-01     0.0000000000000000E+00     0.0000000000000000E+00 
    7.8124999999942890E-01     0.0000000000000000E+00     0.0000000000000000E+00 
    8.1249999999951039E-01     0.0000000000000000E+00     0.0000000000000000E+00 
    8.4374999999959199E-01     0.0000000000000000E+00     0.0000000000000000E+00 
    8.7499999999967359E-01     0.0000000000000000E+00     0.0000000000000000E+00 
    9.0624999999975520E-01     0.0000000000000000E+00     0.0000000000000000E+00 
    9.3749999999983680E-01     0.0000000000000000E+00     0.0000000000000000E+00 
    9.6874999999991840E-01     0.0000000000000000E+00     0.0000000000000000E+00 
    1.0000000000000000E+00     3.1249999999942091E-02     0.0000000000000000E+00 
    1.0000000000000000E+00     6.2499999999873469E-02     0.0000000000000000E+00 
    1.0000000000000000E+00     9.3749999999826514E-02     0.0000000000000000E+00 
    1.0000000000000000E+00     1.2499999999977961E-01     0.0000000000000000E+00 
    1.0000000000000000E+00     1.5624999999968961E-01     0.0000000000000000E+00 
    1.0000000000000000E+00     1.8749999999959971E-01     0.0000000000000000E+00 
    1.0000000000000000E+00     2.1874999999950970E-01     0.0000000000000000E+00 
    1.0000000000000000E+00     2.4999999999941969E-01     0.0000000000000000E+00 
    1.0000000000000000E+00     2.8124999999932920E-01     0.0000000000000000E+00 
    1.0000000000000000E+00     3.1249999999923850E-01     0.0000000000000000E+00 
    1.0000000000000000E+00     3.4374999999914790E-01     0.0000000000000000E+00 
    1.0000000000000000E+00     3.7499999999905720E-01     0.0000000000000000E+00 
    1.0000000000000000E+00     4.0624999999896660E-01     0.0000000000000000E+00 
    1.0000000000000000E+00     4.3749999999887590E-01     0.0000000000000000E+00 
    1.0000000000000000E+00     4.6874999999878530E-01     0.0000000000000000E+00 
    1.0000000000000000E+00     4.9999999999869471E-01     0.0000000000000000E+00 
    1.0000000000000000E+00     5.3124999999877620E-01     0.0000000000000000E+00 
    1.0000000000000000E+00     5.6249999999885780E-01     0.0000000000000000E+00 
    1.0000000000000000E+00     5.9374999999893940E-01     0.0000000000000000E+00 
    1.0000000000000000E+00     6.2499999999902101E-01     0.0000000000000000E+00 
    1.0000000000000000E+00     6.5624999999910261E-01     0.0000000000000000E+00 
    1.0000000000000000E+00     6.8749999999918421E-01     0.0000000000000000E+00 
    1.0000000000000000E+00     7.1874999999926570E-01     0.0000000000000000E+00 
    1.0000000000000000E+00     7.4999999999934730E-01     0.0000000000000000E+00 
    1.0000000000000000E+00     7.8124999999942890E-01     0.0000000000000000E+00 
    1.0000000000000000E+00     8.1249999999951039E-01     0.0000000000000000E+00 
    1.0000000000000000E+00     8.4374999999959199E-01     0.0000000000000000E+00 
    1.0000000000000000E+00     8.7499999999967359E-01     0.0000000000000000E+00 
    1.0000000000000000E+00     9.0624999999975520E-01     0.0000000000000000E+00 
    1.0000000000000000E+00     9.3749999999983680E-01     0.0000000000000000E+00 
    1.0000000000000000E+00     9.6874999999991840E-01     0.0000000000000000E+00 
    9.6875000000003686E-01     1.0000000000000000E+00     0.0000000000000000E+00 
    9.3750000000011691E-01     1.0000000000000000E+00     0.0000000000000000E+00 
    9.0625000000015765E-01     1.0000000000000000E+00     0.0000000000000000E+00 
    8.7500000000017863E-01     1.0000000000000000E+00     0.0000000000000000E+00 
    8.4375000000028044E-01     1.0000000000000000E+00     0.0000000000000000E+00 
    8.1250000000040856E-01     1.0000000000000000E+00     0.0000000000000000E+00 
    7.8125000000054956E-01     1.0000000000000000E+00     0.0000000000000000E+00 
    7.5000000000066480E-01     1.0000000000000000E+00     0.0000000000000000E+00 
    7.1875000000086831E-01     1.0000000000000000E+00     0.0000000000000000E+00 
    6.8750000000102829E-01     1.0000000000000000E+00     0.0000000000000000E+00 
    6.5625000000114431E-01     1.0000000000000000E+00     0.0000000000000000E+00 
    6.2500000000129829E-01     1.0000000000000000E+00     0.0000000000000000E+00 
    5.9375000000147926E-01     1.0000000000000000E+00     0.0000000000000000E+00 
    5.6250000000168354E-01     1.0000000000000000E+00     0.0000000000000000E+00 
    5.3125000000188671E-01     1.0000000000000000E+00     0.0000000000000000E+00 
    5.0000000000205835E-01     1.0000000000000000E+00     0.0000000000000000E+00 
    4.6875000000192979E-01     1.0000000000000000E+00     0.0000000000000000E+00 
    4.3750000000180111E-01     1.0000000000000000E+00     0.0000000000000000E+00 
    4.0625000000167238E-01     1.0000000000000000E+00     0.0000000000000000E+00 
    3.7500000000154382E-01     1.0000000000000000E+00     0.0000000000000000E+00 
    3.4375000000141509E-01     1.0000000000000000E+00     0.0000000000000000E+00 
    3.1250000000128642E-01     1.0000000000000000E+00     0.0000000000000000E+00 
    2.8125000000115769E-01     1.0000000000000000E+00     0.0000000000000000E+00 
    2.5000000000102918E-01     1.0000000000000000E+00     0.0000000000000000E+00 
    2.1875000000090050E-01     1.0000000000000000E+00     0.0000000000000000E+00 
    1.8750000000077180E-01     1.0000000000000000E+00     0.0000000000000000E+00 
    1.5625000000064329E-01     1.0000000000000000E+00     0.0000000000000000E+00 
    1.2500000000051459E-01     1.0000000000000000E+00     0.0000000000000000E+00 
    9.3750000000385914E-02     1.0000000000000000E+00     0.0000000000000000E+00 
    6.2500000000257239E-02     1.0000000000000000E+00     0.0000000000000000E+00 
    3.1250000000128557E-02     1.0000000000000000E+00     0.0000000000000000E+00 
    0.0000000000000000E+00     9.6875000000003686E-01     0.0000000000000000E+00 
    0.0000000000000000E+00     9.3750000000011691E-01     0.0000000000000000E+00 
    0.0000000000000000E+00     9.0625000000015765E-01     0.0000000000000000E+00 
    0.0000000000000000E+00     8.7500000000017863E-01     0.0000000000000000E+00 
    0.0000000000000000E+00     8.4375000000028044E-01     0.0000000000000000E+00 
    0.0000000000000000E+00     8.1250000000040856E-01     0.0000000000000000E+00 
    0.0000000000000000E+00     7.8125000000054956E-01     0.0000000000000000E+00 
    0.0000000000000000E+00     7.5000000000066480E-01     0.0000000000000000E+00 
    0.0000000000000000E+00     7.1875000000086831E-01     0.0000000000000000E+00 
    0.0000000000000000E+00     6.8750000000102829E-01     0.0000000000000000E+00 
    0.0000000000000000E+00     6.5625000000114431E-01     0.0000000000000000E+00 
    0.0000000000000000E+00     6.2500000000129829E-01     0.0000000000000000E+00 
    0.0000000000000000E+00     5.9375000000147926E-01     0.0000000000000000E+00 
    0.0000000000000000E+00     5.6250000000168354E-01     0.0000000000000000E+00 
    0.0000000000000000E+00     5.3125000000188671E-01     0.0000000000000000E+00 
    0.0000000000000000E+00     5.0000000000205835E-01     0.0000000000000000E+00 
    0.0000000000000000E+00     4.6875000000192979E-01     0.0000000000000000E+00 
    0.0000000000000000E+00     4.3750000000180111E-01     0.0000000000000000E+00 
    0.0000000000000000E+00     4.0625000000167238E-01     0.0000000000000000E+00 
[...]
CELL_DATA 2795 
SCALARS Pressure double 1 
LOOKUP_TABLE default 

    7.9201896340086515E+00 
    1.7265165084018232E+01 
    1.2173088913505474E+01 
    1.1896739321942894E+01 
    9.6507657328110206E+00 
    1.7126050949571777E+01 
    1.7970559140386499E+01 
    7.1017414604734812E+00 
    1.2711243620450643E+01 
    9.8776521455384909E+00 
    8.4937006494757323E+00 
    1.6821186980374353E+01 
    1.7157655876665444E+01 
    1.7090454846243777E+01 
    1.1260581686721688E+01 
    6.9807390751759923E+00 
    1.1053623709133198E+01 
    9.0122013380351742E+00 
    1.6395975330425255E+01 
    1.2155346888098832E+01 
    1.2055494479361618E+01 
    1.7009742468356706E+01 
    1.1606282730236938E+01 
    4.6816795038218234E-01 
    1.6690220287347806E+01 
    1.7118104743187200E+01 
    1.8006688133831354E+01 
    8.2441779514118778E+00 
    1.6728909153413436E+01 
    1.7983542549651531E+01 
    1.2362720995085345E+01 
    1.2354656445849979E+01 
    8.9867059496197363E+00 
    1.2137375110544808E+01 
    4.1076059305182797E+00 
    1.1053341421428115E+01 
    1.2123578449222340E+01 
    1.8027660987588060E+01 
    1.7944656226108542E+01 
    1.6836298727943390E+01 
    9.6088045001385609E+00 
    1.6755478094116658E+01 
    9.7754307298372278E-01 
    1.2147052276751571E+01 
    1.7739174254194229E+01 
    1.7466115880172772E+01 
    1.6808637932124444E+01 
    1.3098049399772307E+01 
    1.6854638290302390E+01 
    1.1293449247216085E+01 
    1.0798984141051365E+01 
    1.2319477913147649E+01 
    1.2046215874898127E+01 
    1.1124399439315001E+01 
    1.2436986731243831E+01 
    1.6149302313797534E+01 
    1.4200917708731714E+01 
    9.6998505131012518E+00 
    1.7018283203696853E+01 
    1.6922372381135492E+01 
    1.1873559468486379E+01 
    1.1736034747375841E+01 
    1.1793516477978649E+01 
    1.7872260189682741E+01 
    1.8203921396423830E+01 
    1.1073706015779537E+01 
    1.2317944308097108E+01 
    1.6537256245720052E+01 
    1.4060452075919923E+01 
    1.1789502684313177E+01 
    1.8183420685653260E+01 
    1.6901327867313451E+01 
    1.0924634423857324E+01 
    1.7583698662893443E+01 
    1.2686974779696916E+01 
    1.6542295741374595E+01 
    1.8054510392017640E+01 
    1.2721660538459695E+01 
    8.0118424211347197E+00 
    1.2335964343189262E+01 
    1.7954448785167756E+01 
    1.8204367824188299E+01 
    1.1072017008026528E+01 
    1.2263357701750868E+01 
    1.8263062790340115E+01 
    1.2122382246155491E+01 
    1.1701396122984583E+01 
    1.4569954711342350E+01 
    7.6931086718865656E+00 
    1.0831020610278108E+01 
    1.2260698682146398E+01 
    1.2864698301968733E+01 
    1.9832695360765278E+01 
    9.3892248818300832E+00 
    1.2325728961139770E+01 
    1.6782824755940773E+01 
    1.7090516841313057E+01 
    8.3105462795718008E+00 
    1.1988132442400218E+01 
    1.2293448352045969E+01 
    1.7120265522109076E+01 
    1.2284568380493328E+01 
    1.7016998036110220E+01 
    5.0884401644072916E+00 
    8.2561671909367202E+00 
    1.2541775024146697E+01 
    1.7276312049336624E+01 
    1.1016514071362812E+01 
    1.1628447226275718E+01 
    1.2262814913082416E+01 
    1.1667890590184834E+01 
    1.3801303997933395E+01 
    1.1342843513315110E+01 
    1.0933185805007710E+01 
    8.6936993317809339E+00 
    1.4489720718774368E+01 
    1.2359512209462004E+01 
    1.7774484247411220E+01 
    1.0683743910857846E+01 
    1.1876464754551883E+01 
    1.6906027168368979E+01 
    1.0106467051362385E+01 
    1.7453752072824635E+01 
    1.2193433279876434E+01 
    1.1803288015228574E+01 
    1.7095322447049622E+01 
    1.2348205759518990E+01 
    1.8063777002230566E+01 
    1.4610658002844543E+01 
    1.5940878139873329E+01 
    1.8025735814162417E+01 
    9.4060050960219215E+00 
    1.2562681815092766E+01 
    1.7094750638113041E+01 
    3.7964921508438865E+00 
    1.2413997248550247E+01 
    1.7987528219691352E+01 
    1.1832429483459480E+01 
    1.3476784465531797E+01 
    8.2121663866412540E+00 
    1.6776028155936757E+01 
    2.0333644244484184E+01 
    1.5203838247038911E+01 
    1.1833117210137338E+01 
    1.0710508292173264E+01 
    1.3120404092092301E+01 
    1.2209952630551605E+01 
    8.6135019558821639E+00 
    1.8018341189317155E+01 
    1.7146994834324829E+01 
    1.6784467248151380E+01 
    1.2861946765189868E+01 
    1.0902436769413558E+01 
    1.2050984504624331E+01 
    1.7619437218331495E+01 
    1.1165282029994522E+01 
    1.2317261951972345E+01 
    1.1345228098674456E+01 
    1.4259654601684680E+01 
    2.0321484201621512E+01 
    1.6775587547153854E+01 
    1.0885369546144799E+01 
    1.7344305334241177E+01 
    1.7226463619683198E+01 
    1.7323037996384102E+01 
    1.8483648203536035E+01 
    1.9074211750825302E+01 
    1.7452077017127309E+01 
    1.2309737836452134E+01 
    1.3269000582558361E+01 
    1.7267046220135718E+01 
    1.7789821124343483E+01 
    8.9915684704070173E+00 
    1.6808169387972431E+01 
    1.7578183064659566E+01 
    8.7449268324146612E+00 
    1.8415389940717976E+01 
    1.8368015204062342E+01 
    1.6471512790400688E+01 
    1.2635272879697565E+01 
    3.4017099442392298E+00 
    1.7986187628307238E+01 
    1.2481028924964429E+01 
    1.8131753392301601E+01 
    1.1758010898825217E+01 
    1.7762324629544036E+01 
    1.2210795163798986E+00 
    1.5876241099338086E+01 
    1.1782174455396570E+01 
    1.0850391979413381E+01 
    1.0598040877405291E+01 
    1.2162254205312303E+01 
    1.3377540567172005E+01 
    1.2791214371299011E+01 
    8.7853310864916079E+00 
    1.7781642021111619E+01 
    1.7126056744491834E+01 
    1.4183987755034488E+01 
    1.2533197113657886E+01 
    1.9235655936822125E+00 
    9.8228306228738109E+00 
    6.8911865392668039E+00 
    1.7997488226307738E+01 
    1.3625095705393612E+01 
    1.7172758703339692E+01 
    1.7206246349050513E+01 
    1.1248835161211852E+01 
    1.4203722172998740E+01 
    1.6778272322011301E+01 
    1.8355656063310487E+01 
    8.2167844487208423E+00 
    1.5117135417067226E+01 
    1.2749330522617411E+01 
    7.3297830883873543E+00 
    1.1244234636703904E+01 
    1.4830406541283534E+01 
    1.7159852305002516E+01 
    1.2212466480731818E+01 
    1.7295291965193275E+01 
    1.7006044464309280E+01 
    1.6945117965230406E+01 
    1.2054606656650119E+01 
    1.0741239280696211E+01 
    1.6792853164944077E+01 
    1.0920776549605399E+01 
    1.2292693476611554E+01 
    1.0729226547751926E+01 
    1.2273298724373953E+01 
    1.7216642914403366E+01 
    7.7917672268241862E+00 
    1.1145191328951599E+01 
    1.7906356041906253E+01 
    1.2062722169745189E+01 
    1.3513021153706950E+01 
    7.9938567005932599E+00 
    1.0984819172998419E+01 
    1.6978555720401683E+01 
    1.7362000402754610E+01 
    6.5550054668735855E+00 
    1.2075216574311773E+01 
    1.0795794917739450E+01 
    1.8823947654643469E+01 
    1.8219077936164123E+01 
    1.9105481356496359E+01 
    1.2094853331273249E+01 
    1.7184577618853830E+01 
    1.6717849760038543E+01 
    1.1955773388605444E+01 
    1.6785474555425786E+01 
    1.2533982991118718E+01 
    7.3993250388434157E+00 
    1.2458887566882492E+01 
    1.7887230598920979E+01 
    1.6781945750582100E+01 
    8.4950442342608667E+00 
    1.6816504326103288E+01 
    1.3407090913474537E+01 
    1.2392566518752439E+01 
    1.1910537917107225E+01 
    1.6626874623166593E+01 
    1.2946248747450872E+01 
    1.6799556100382659E+01 
    1.2081605895827435E+01 
    7.6231420365767280E+00 
    1.2368742836709886E+01 
    1.0602928221286154E+01 
    1.5277129099377520E+01 
    1.8121471726866858E+01 
    1.6789489084895433E+01 
    1.7979863869648650E+01 
    1.2004679320547037E+01 
    8.2508113931806850E+00 
    8.3587710817514935E+00 
    1.2591317389785987E+01 
    1.2265160937166678E+01 
    1.8903733912107563E+00 
    1.6170367572504482E+01 
    1.8538014820362939E+01 
    1.1774477089654336E+01 
    7.7402164441044548E+00 
    1.4058779731320021E+01 
    1.6814084931779366E+01 
    9.1098962238087786E+00 
    6.2485209574961713E+00 
    1.2249412521681174E+01 
    1.6894551538819389E+01 
    1.7672214443842069E+01 
    1.7504311678499811E+01 
    1.7367527722535659E+01 
    8.9168019413435324E+00 
    1.2386460859959874E+01 
    1.6204704717496284E+01 
    9.7054300793656978E+00 
    1.7140365800942064E+01 
    1.4457443559535122E+01 
    8.4662542219492405E+00 
    1.6909993149399675E+01 
    1.8025456491529141E+01 
    1.6884558326222688E+01 
    8.7879002502585593E+00 
    1.2314067692218932E+01 
    9.6232641202657749E+00 
    1.1652325085586876E+01 
    1.6804711381068199E+01 
    1.6790894606353127E+01 
    8.8365021081405395E+00 
    1.7821771836370147E+01 
    1.2897958210956936E+01 
    1.6820249038871609E+01 
    1.7807628391029976E+01 
    1.6809477483784882E+01 
    1.5475652418683199E+01 
    1.8888500191974618E+01 
    1.1720292257414755E+01 
    1.7944576341127700E+01 
    1.6853340900570174E+01 
    1.8027754479701123E+01 
    1.7818886000828510E+01 
    1.1829228110841779E+01 
    1.2162640703475033E+01 
    1.1765003189171958E+01 
    1.4827441317890116E+01 
    5.1027517862760448E+00 
    1.2522938681045442E+01 
    1.9021409802411466E+01 
    1.2538399899842355E+01 
    1.2753684083687306E+01 
    1.7996730688512930E+01 
    1.8257492647611127E+01 
    1.1626697995164632E+01 
    1.6821658246147646E+01 
    1.6785426820920911E+01 
    1.2739165091477615E+01 
    1.7770148345228357E+01 
    8.9016515359966881E+00 
    5.7363588036622524E+00 
    1.3066437110450186E+01 
    1.2551848018392258E+01 
    1.6790674910459543E+01 
    8.2866866265792787E+00 
    1.7425706864738792E+01 
    5.8547355935983125E+00 
    1.2486894021280285E+01 
    1.1851302230738552E+01 
    1.2291233497366861E+01 
    2.0371335370819754E+01 
    4.9590544192093562E+00 
    1.2432946298646044E+01 
    1.4773236416315314E+01 
    1.1900106396325825E+01 
    9.6831060969852381E+00 
    1.7587221660622756E+01 
    1.9930301879302061E+01 
    1.7726822199406513E+01 
    1.2367454054346096E+01 
    7.3013259207768275E+00 
    1.9768718067185034E+01 
    1.7111014478101875E+01 
    9.1923029929104683E+00 
    1.1989858984892168E+01 
    1.8462779975467235E+01 
    4.2083759284608337E+00 
    1.2611524015493748E+01 
    1.7722769089527556E+01 
    1.2306301323102607E+01 
    1.0781113407257317E+01 
    1.2476265594086783E+01 
    1.6281811258153475E+01 
    1.2288785468018057E+01 
    6.5220567152667615E+00 
    1.2131945217067304E+00 
    9.2955209099688396E+00 
    1.8718248175449741E+01 
    1.1764013735799395E+01 
    1.3829192197772182E+01 
    1.3281302345628854E+01 
    1.5139539159737600E+01 
    1.2319647870568851E+01 
    1.6996997095270594E+01 
    2.0385682868477126E+01 
    1.4493589535419876E+01 
    1.7912480089191451E+01 
    7.0115087375516472E-01 
    1.6793242746212428E+01 
    7.1544299563345595E+00 
    1.9199661149497715E+01 
    1.2447788421299656E+01 
    1.0993476822882551E+01 
    9.8035869932329334E+00 
    6.8434177742902795E+00 
    1.3620051091765808E+01 
    9.8234525362155907E+00 
    1.5162800484563077E+01 
    2.8877041884438026E+00 
    1.3450248478498416E+01 
    1.6708524824446560E+01 
    7.5907782818027618E+00 
    1.7298957880977390E+01 
    1.8986106954991360E+01 
    1.7139726225286477E+01 
    1.2300175302778564E+01 
    1.2285212593626978E+01 
    1.2439864536267702E+01 
    7.4052496405854713E+00 
    1.1464443960735522E+01 
    1.1292490518309606E+01 
    1.2427903487789859E+01 
    1.1690288442615794E+01 
    9.0221664547845715E-01 
    8.1439075838073833E+00 
    1.2108019273392280E+01 
    1.2400457597311242E+01 
    1.5592087945133793E+01 
    2.7529420491609020E+00 
    1.2692546979027215E+01 
    1.2559766837602247E+01 
    4.7665962093260035E+00 
    1.6986936968725903E+01 
    1.0928797179739194E+01 
    1.2417799234880020E+01 
    1.7107430081936805E+01 
    6.8724604925196839E+00 
    1.7110320044377730E+01 
    1.1065134764545432E+01 
    1.2468812307536381E+00 
    1.1830175022509785E+01 
    1.7849955518331093E+01 
    1.6792409580786384E+01 
    1.6812566169374811E+01 
    1.2814611052085693E+01 
    1.2489807416730907E+01 
    1.0915971780875545E+01 
    8.8112185993554757E+00 
    1.7240799390037839E+01 
    1.1984242809123849E+01 
    8.5745277660962902E+00 
    1.6808318668191124E+01 
    1.7586687685512118E+01 
    1.2616024644891819E+01 
    1.2110724060976070E+01 
    2.0262469893599789E+01 
    1.2740277602612490E+01 
    1.7263366179815037E+01 
    1.0422782678027312E+01 
    2.0413612373865895E+01 
    8.3082437531980950E+00 
    1.1344174399940014E+01 
    9.2979021064318683E+00 
    1.3009262210029796E+01 
    1.0551681782252674E+01 
    2.0397089719701288E+01 
    1.2796097225941786E+01 
    1.6273312266678378E+01 
    8.5487680460391502E+00 
    1.2314363032770880E+01 
    1.7069350357448933E+01 
    1.0619503911803301E+01 
    9.1760855619629407E+00 
    1.3767827715444865E+01 
    1.7368725655572327E+01 
    9.1137919001435606E+00 
    1.1874874654374285E+01 
    1.2146836491766409E+01 
    1.6764996538146018E+01 
    1.1922834311192609E+01 
    1.7321481997805662E+01 
    1.8060744827831989E+01 
    1.0946839059211515E+01 
    1.0751828650752103E+01 
    9.8434144147821385E+00 
    1.6928460532850391E+01 
    1.2583544754977716E+01 
    1.9968006269578353E+01 
    1.5630596641491216E+01 
    1.7017642885307851E+01 
    1.9635635330455667E+01 
    1.8988780912899980E+01 
    1.2360591755945507E+01 
    1.2411343551237145E+01 
    1.6469657335655391E+01 
    1.6838130556098218E+01 
    1.7460021617263457E+01 
    1.7136643362404783E+01 
    2.0286748281198655E+01 
    1.2739716762140251E+01 
    1.1060875987912150E+01 
    1.2720069938723666E+01 
    1.7961322337495488E+01 
    1.2454706439155517E+01 
    7.4574612155151732E+00 
    1.2282555287899610E+01 
    1.8438010481744364E+01 
    1.2600221207601409E+01 
    1.1067805624045988E+01 
    1.2089036087982198E+01 
    1.8555497576531923E+01 
    1.6830139215362166E+01 
    1.0608771261680765E+01 
    1.8706981310461419E+01 
    1.2388724654357059E+01 
    1.7444734167087923E+01 
    1.8569716917273141E+01 
    1.3065858674692420E+01 
    6.8761085451214976E+00 
    1.3556168763853098E+01 
    7.1062893691028277E+00 
    1.2504141201219424E+01 
    1.2310508929251167E+01 
    1.4249710623723107E+01 
    7.5034575384300197E+00 
    1.5135731543968168E+01 
    1.2326944424209094E+01 
    1.7124473423649359E+01 
    1.3217521193584293E+01 
    1.0301920932732802E+01 
    1.1950276519850096E+01 
    1.2982319507979186E+01 
    1.2860149622264014E+01 
    1.8125904638348246E+01 
    1.0616685849701858E+01 
    1.0446418287745987E+01 
    7.8810715780975098E+00 
    1.7484033270404925E+01 
    1.1996284638096148E+01 
    1.6552089603799018E+01 
    1.2279952348755316E+01 
    8.6063191806034869E+00 
    1.6854976182606226E+01 
    1.2257084849190571E+01 
    9.3597847331236252E+00 
    9.8791442846439956E+00 
    1.0203144138537054E+01 
    1.7161219909057458E+01 
    1.2430070418576069E+01 
    1.7926031683183076E+01 
    1.2218414909773037E+01 
    1.2158808149397000E+01 
    1.1786556583167041E+01 
    1.6960909625990030E+01 
    1.2073971501021319E+01 
    1.0252152869137799E+01 
    1.8975077304225909E+01 
    1.7064103434283513E+01 
    8.7041934098913778E+00 
    3.4834498052373508E+00 
    1.2418670327802566E+01 
    1.1615450527823143E+01 
    1.0744578482594074E+01 
    1.1569251910533962E+01 
    1.7035730655312729E+01 
    1.2099580270328888E+01 
    1.1104794612068412E+01 
    1.6864297369034176E+01 
    8.6182268943652769E+00 
    1.6441802220442991E+01 
    1.1216576305081677E+01 
    1.0229785542923739E+01 
    1.0837413638545417E+01 
    1.7546451759942713E+01 
    1.2293733028648173E+01 
    1.2302093815493222E+01 
    7.6114393796757120E+00 
    8.2045073892620390E+00 
    1.5427124074414856E+01 
    1.2311862018445357E+01 
    1.2462047769095163E+01 
    1.8692627346668353E+01 
    1.0439429730182592E+01 
    1.2324003072668496E+01 
    8.9027152927629878E+00 
    9.1709676297467340E+00 
    1.6921024891698416E+01 
    1.1948389339745665E+01 
    9.0134901204731221E+00 
    1.2865631070790045E+01 
    1.2215910898820175E+01 
    1.6936032451885776E+01 
    1.8793088943578216E+01 
    1.3210871967873032E+00 
    1.2423980789392028E+01 
    1.2550579206930731E+01 
    1.7037707085338514E+01 
    1.1906125591094199E+01 
    1.2266403098763949E+01 
    1.8204538124241122E+01 
    1.0876008098713131E+01 
    9.0899983378654063E+00 
    1.4675676414190542E+01 
    1.6808809603730801E+01 
    1.8026616608020358E+01 
    1.8318771179379734E+01 
    1.2252932759716163E+01 
    1.2414716965307788E+01 
    1.3671134393101902E+01 
    8.2982133765471957E+00 
    1.6963547732681754E+01 
    9.7691310850349726E+00 
    8.6120660795365023E+00 
    1.5248937853113997E+01 
    1.4338499529238922E+01 
    8.4600111475741091E+00 
    1.6851392420427800E+01 
    1.8010485482757282E+01 
    1.2758057320952284E+01 
    1.8904144550266523E+01 
    1.6891059128230715E+01 
    1.1971102606003777E+01 
    1.7701076230669297E+01 
    9.1704611728838010E+00 
    1.6831227395643840E+01 
    1.2422816936013961E+01 
    1.2381380632699178E+01 
    1.8881181855488151E+01 
    1.2037617838555008E+01 
    1.4926902596220625E+01 
    1.0814377754548660E+01 
    1.8144053861501806E+01 
    1.6719827279893675E+01 
    1.1246700147069054E+01 
    1.6776978258729198E+01 
    1.1269981829362202E+01 
    1.2273455544247188E+01 
    1.7963772385331247E+01 
    1.7135119751038690E+01 
    1.8014065183734033E+01 
    1.7042234398864377E+01 
    1.1477824667895129E+01 
    1.1705617878671884E+01 
    1.8022083913851546E+01 
    1.1842987314438281E+01 
    1.6599131873235958E+01 
    1.2019078481916326E+01 
    5.1548974137322068E+00 
    8.6777813166156026E+00 
    8.0636512562725748E+00 
    1.7967776646970652E+01 
    1.8801370777915363E+01 
    1.6799883391565583E+01 
    1.4051051758178339E+01 
    1.7141453083113358E+01 
    1.6861460522425727E+01 
    1.7556966888096138E+01 
    7.3578353996349382E+00 
    4.7949036286403741E+00 
    1.3793931965223061E+01 
    1.2072129516967633E+01 
    1.7039983707503769E+01 
    1.7037407917505725E+01 
    1.2571197124263438E+01 
    1.7081487655993779E+01 
    1.2408543832203394E+01 
    1.2314170930028128E+01 
    6.6535038706732346E+00 
    4.7726501846901188E+00 
    1.8548495128364621E+01 
    9.7133942689103829E+00 
    1.1164730057402151E+01 
    1.2466494062708092E+01 
    2.0265049160893064E+01 
    1.2560637464539170E+01 
    1.2735724963898008E+01 
    5.4534567331254413E+00 
    1.2560609065052473E+01 
    1.2575247178714083E+01 
    1.7344477307458291E+01 
    1.0841205639030399E+01 
    1.1817910348608278E+01 
    1.8738098491454281E+01 
    1.2432970510515750E+01 
    1.6819268685519120E+01 
    1.7079884539388779E+01 
    1.4988708942511773E+01 
    1.0532597630798680E+01 
    1.7041846876889494E+01 
    1.2214797656694907E+01 
    1.7004276308058344E+01 
    1.6749245571199324E+01 
    1.7990077466834165E+01 
    1.7038890033054908E+01 
    1.5860974886279054E+01 
    1.2420727745783383E+01 
    8.3764423210502841E+00 
    2.0135144350159379E+01 
    9.9616159813354681E+00 
    1.7889979505511235E+01 
    1.2417947547952155E+01 
    1.0493139055683120E+01 
    6.3517794910063827E+00 
    1.2613486007593693E+01 
    1.7024555187512554E+01 
    1.7015276372743390E+01 
    1.2253645939416609E+01 
    1.2411702052836020E+01 
    1.8962865141730386E+01 
    1.8254326407093863E+01 
    1.2581414455007186E+01 
    4.4633425483285825E+00 
    1.5722838154798840E+01 
    2.0394015058105960E+01 
    1.2424284275761897E+01 
    1.4500488256046404E+01 
    1.1904775850131903E+01 
    1.9986801236935435E+01 
    1.8348699517646182E+01 
    1.8084123680598662E+01 
    1.2604828900722627E+01 
    5.8856439106513339E+00 
    1.1860903474909586E+01 
    1.1929890674203502E+01 
    1.1973445172166628E+01 
    4.8774692450331383E+00 