# vtk DataFile Version 2.0
Pressure Field Data 
ASCII 
DATASET UNSTRUCTURED_GRID 

POINTS 2860 double 

    0.0000000000000000E+00     0.0000000000000000E+00     0.0000000000000000E+00 
    1.0000000000000000E+00     0.0000000000000000E+00     0.0000000000000000E+00 
    1.0000000000000000E+00     1.0000000000000000E+00     0.0000000000000000E+00 
    0.0000000000000000E+00     1.0000000000000000E+00     0.0000000000000000E+00 
    2.5000000000000000E-01     2.5000000000000000E-01     0.0000000000000000E+00 
    7.5000000000000000E-01     2.5000000000000000E-01     0.0000000000000000E+00 
    7.5000000000000000E-01     7.5000000000000000E-01     0.0000000000000000E+00 
    2.5000000000000000E-01     7.5000000000000000E-01     0.0000000000000000E+00 
    3.1249999999942091E-02     0.0000000000000000E+00     0.0000000000000000E+00 
    6.2499999999873469E-02     0.0000000000000000E+00     0.0000000000000000E+00 
    9.3749999999826514E-02     0.0000000000000000E+00     0.0000000000000000E+00 
    1.2499999999977961E-01     0.0000000000000000E+00     0.0000000000000000E+00 
    1.5624999999968961E-01     0.0000000000000000E+00     0.0000000000000000E+00 
    1.8749999999959971E-01     0.0000000000000000E+00     0.0000000000000000E+00 
    2.1874999999950970E-01     0.0000000000000000E+00     0.0000000000000000E+00 
    2.4999999999941969E-01     0.0000000000000000E+00     0.0000000000000000E+00 
    2.8124999999932920E-01     0.0000000000000000E+00     0.0000000000000000E+00 
    3.1249999999923850E-01     0.0000000000000000E+00     0.0000000000000000E+00 
    3.4374999999914790E-01     0.0000000000000000E+00     0.0000000000000000E+00 
    3.7499999999905720E-01     0.0000000000000000E+00     0.0000000000000000E+00 
    4.0624999999896660E-01     0.0000000000000000E+00     0.0000000000000000E+00 
    4.3749999999887590E-01     0.0000000000000000E+00     0.0000000000000000E+00 
    4.6874999999878530E-01     0.0000000000000000E+00     0.0000000000000000E+00 
    4.9999999999869471E-01     0.0000000000000000E+00     0.0000000000000000E+00 
    5.3124999999877620E-01     0.0000000000000000E+00     0.0000000000000000E+00 
    5.6249999999885780E-01     0.0000000000000000E+00     0.0000000000000000E+00 
    5.9374999999893940E-01     0.0000000000000000E+00     0.0000000000000000E+00 
    6.2499999999902101E-01     0.0000000000000000E+00     0.0000000000000000E+00 
    6.5624999999910261E-01     0.0000000000000000E+00     0.0000000000000000E+00 
    6.8749999999918421E-01     0.0000000000000000E+00     0.0000000000000000E+00 
    7.1874999999926570E-01     0.0000000000000000E+00     0.0000000000000000E+00 
    7.4999999999934730E-01     0.0000000000000000E+00     0.0000000000000000E+00 
    7.8124999999942890E-01     0.0000000000000000E+00     0.0000000000000000E+00 
    8.1249999999951039E-01     0.0000000000000000E+00     0.0000000000000000E+00 
    8.4374999999959199E-01     0.0000000000000000E+00     0.0000000000000000E+00 
    8.7499999999967359E-01     0.0000000000000000E+00     0.0000000000000000E+00 
    9.0624999999975520E-01     0.0000000000000000E+00     0.0000000000000000E+00 
    9.3749999999983680E-01     0.0000000000000000E+00     0.0000000000000000E+00 
    9.6874999999991840E-01     0.0000000000000000E+00     0.0000000000000000E+00 
    1.0000000000000000E+00     3.1249999999942091E-02     0.0000000000000000E+00 
    1.0000000000000000E+00     6.2499999999873469E-02     0.0000000000000000E+00 
    1.0000000000000000E+00     9.3749999999826514E-02     0.0000000000000000E+00 
    1.0000000000000000E+00     1.2499999999977961E-01     0.0000000000000000E+00 
    1.0000000000000000E+00     1.5624999999968961E-01     0.0000000000000000E+00 
    1.0000000000000000E+00     1.8749999999959971E-01     0.0000000000000000E+00 
    1.0000000000000000E+00     2.1874999999950970E-01     0.0000000000000000E+00 
    1.0000000000000000E+00     2.4999999999941969E-01     0.0000000000000000E+00 
    1.0000000000000000E+00     2.8124999999932920E-01     0.0000000000000000E+00 
    1.0000000000000000E+00     3.1249999999923850E-01     0.0000000000000000E+00 
    1.0000000000000000E+00     3.4374999999914790E-01     0.0000000000000000E+00 
    1.0000000000000000E+00     3.7499999999905720E-01     0.0000000000000000E+00 
    1.0000000000000000E+00     4.0624999999896660E-01     0.0000000000000000E+00 
    1.0000000000000000E+00     4.3749999999887590E-01     0.0000000000000000E+00 
    1.0000000000000000E+00     4.6874999999878530E-01     0.0000000000000000E+00 
    1.0000000000000000E+00     4.9999999999869471E-01     0.0000000000000000E+00 
    1.0000000000000000E+00     5.3124999999877620E-01     0.0000000000000000E+00 
    1.0000000000000000E+00     5.6249999999885780E-01     0.0000000000000000E+00 
    1.0000000000000000E+00     5.9374999999893940E-01     0.0000000000000000E+00 
    1.0000000000000000E+00     6.2499999999902101E-01     0.0000000000000000E+00 
    1.0000000000000000E+00     6.5624999999910261E-01     0.0000000000000000E+00 
    1.0000000000000000E+00     6.8749999999918421E-01     0.0000000000000000E+00 
    1.0000000000000000E+00     7.1874999999926570E-01     0.0000000000000000E+00 
    1.0000000000000000E+00     7.4999999999934730E-01     0.0000000000000000E+00 
    1.0000000000000000E+00     7.8124999999942890E-01     0.0000000000000000E+00 
    1.0000000000000000E+00     8.1249999999951039E-01     0.0000000000000000E+00 
    1.0000000000000000E+00     8.4374999999959199E-01     0.0000000000000000E+00 
    1.0000000000000000E+00     8.7499999999967359E-01     0.0000000000000000E+00 
    1.0000000000000000E+00     9.0624999999975520E-01     0.0000000000000000E+00 
    1.0000000000000000E+00     9.3749999999983680E-01     0.0000000000000000E+00 
    1.0000000000000000E+00     9.6874999999991840E-01     0.0000000000000000E+00 
    9.6875000000003686E-01     1.0000000000000000E+00     0.0000000000000000E+00 
    9.3750000000011691E-01     1.0000000000000000E+00     0.0000000000000000E+00 
    9.0625000000015765E-01     1.0000000000000000E+00     0.0000000000000000E+00 
    8.7500000000017863E-01     1.0000000000000000E+00     0.0000000000000000E+00 
    8.4375000000028044E-01     1.0000000000000000E+00     0.0000000000000000E+00 
    8.1250000000040856E-01     1.0000000000000000E+00     0.0000000000000000E+00 
    7.8125000000054956E-01     1.0000000000000000E+00     0.0000000000000000E+00 
    7.5000000000066480E-01     1.0000000000000000E+00     0.0000000000000000E+00 
    7.1875000000086831E-01     1.0000000000000000E+00     0.0000000000000000E+00 
    6.8750000000102829E-01     1.0000000000000000E+00     0.0000000000000000E+00 
    6.5625000000114431E-01     1.0000000000000000E+00     0.0000000000000000E+00 
    6.2500000000129829E-01     1.0000000000000000E+00     0.0000000000000000E+00 
    5.9375000000147926E-01     1.0000000000000000E+00     0.0000000000000000E+00 
    5.6250000000168354E-01     1.0000000000000000E+00     0.0000000000000000E+00 
    5.3125000000188671E-01     1.0000000000000000E+00     0.0000000000000000E+00 
    5.0000000000205835E-01     1.0000000000000000E+00     0.0000000000000000E+00 
    4.6875000000192979E-01     1.0000000000000000E+00     0.0000000000000000E+00 
    4.3750000000180111E-01     1.0000000000000000E+00     0.0000000000000000E+00 
    4.0625000000167238E-01     1.0000000000000000E+00     0.0000000000000000E+00 
    3.7500000000154382E-01     1.0000000000000000E+00     0.0000000000000000E+00 
    3.4375000000141509E-01     1.0000000000000000E+00     0.0000000000000000E+00 
    3.1250000000128642E-01     1.0000000000000000E+00     0.0000000000000000E+00 
    2.8125000000115769E-01     1.0000000000000000E+00     0.0000000000000000E+00 
    2.5000000000102918E-01     1.0000000000000000E+00     0.0000000000000000E+00 
    2.1875000000090050E-01     1.0000000000000000E+00     0.0000000000000000E+00 
    1.8750000000077180E-01     1.0000000000000000E+00     0.0000000000000000E+00 
    1.5625000000064329E-01     1.0000000000000000E+00     0.0000000000000000E+00 
    1.2500000000051459E-01     1.0000000000000000E+00     0.0000000000000000E+00 
    9.3750000000385914E-02     1.0000000000000000E+00     0.0000000000000000E+00 
    6.2500000000257239E-02     1.0000000000000000E+00     0.0000000000000000E+00 
    3.1250000000128557E-02     1.0000000000000000E+00     0.0000000000000000E+00 
    0.0000000000000000E+00     9.6875000000003686E-01     0.0000000000000000E+00 
    0.0000000000000000E+00     9.3750000000011691E-01     0.0000000000000000E+00 
    0.0000000000000000E+00     9.0625000000015765E-01     0.0000000000000000E+00 
    0.0000000000000000E+00     8.7500000000017863E-01     0.0000000000000000E+00 
    0.0000000000000000E+00     8.4375000000028044E-01     0.0000000000000000E+00 
    0.0000000000000000E+00     8.1250000000040856E-01     0.0000000000000000E+00 
    0.0000000000000000E+00     7.8125000000054956E-01     0.0000000000000000E+00 
    0.0000000000000000E+00     7.5000000000066480E-01     0.0000000000000000E+00 
    0.0000000000000000E+00     7.1875000000086831E-01     0.0000000000000000E+00 
    0.0000000000000000E+00     6.8750000000102829E-01     0.0000000000000000E+00 
    0.0000000000000000E+00     6.5625000000114431E-01     0.0000000000000000E+00 
    0.0000000000000000E+00     6.2500000000129829E-01     0.0000000000000000E+00 
    0.0000000000000000E+00     5.9375000000147926E-01     0.0000000000000000E+00 
    0.0000000000000000E+00     5.6250000000168354E-01     0.0000000000000000E+00 
    0.0000000000000000E+00     5.3125000000188671E-01     0.0000000000000000E+00 
    0.0000000000000000E+00     5.0000000000205835E-01     0.0000000000000000E+00 
    0.0000000000000000E+00     4.6875000000192979E-01     0.0000000000000000E+00 
    0.0000000000000000E+00     4.3750000000180111E-01     0.0000000000000000E+00 
    0.0000000000000000E+00     4.0625000000167238E-01     0.0000000000000000E+00 
[...]
CELL_DATA 2795 
SCALARS Pressure double 1 
LOOKUP_TABLE default 

    5.3631706695397634E+00 
    1.2303243203956431E+01 
    8.7457694941527695E+00 
    8.3408115656571375E+00 
    6.6122583872201002E+00 
    1.2199772987584435E+01 
    1.2831540578783805E+01 
    4.7851391295154144E+00 
    9.2411217599941793E+00 
    7.0619027635628777E+00 
    6.0182630617180859E+00 
    1.1981031825184109E+01 
    1.2214802687763784E+01 
    1.2173043465868098E+01 
    8.0641185127091308E+00 
    4.7045126992056323E+00 
    7.6665057486526331E+00 
    6.4128663134192418E+00 
    1.1674078152183903E+01 
    8.7430906263327373E+00 
    8.6280905808071058E+00 
    1.2117410107772807E+01 
    8.1083428226882663E+00 
    3.1526634251292940E-01 
    1.1955277605231529E+01 
    1.2195091760673609E+01 
    1.2859890094646788E+01 
    5.7842075495485696E+00 
    1.1913352880307215E+01 
    1.2858464204524399E+01 
    8.7995971990672288E+00 
    8.9783030802059223E+00 
    6.2486384031620785E+00 
    8.7063019471141079E+00 
    2.7752803295993100E+00 
    7.6709847394297563E+00 
    8.6986102671466714E+00 
    1.2894855322657214E+01 
    1.2811956706817112E+01 
    1.1991971952276810E+01 
    6.5494012813158333E+00 
    1.1937361098069623E+01 
    6.5705481788755582E-01 
    8.5570691349964072E+00 
    1.2643806549605141E+01 
    1.2496168880099265E+01 
    1.1971950788992055E+01 
    9.5582015738268975E+00 
    1.2033782279507109E+01 
    7.8478665229886255E+00 
    7.4678847828585857E+00 
    8.9448498938021945E+00 
    8.4556095811744676E+00 
    7.7122047959794138E+00 
    8.8738489665816012E+00 
    1.1496368523737420E+01 
    1.0414622337274754E+01 
    6.6485269605507087E+00 
    1.2120725188275197E+01 
    1.2055244475739142E+01 
    8.3739056427545204E+00 
    8.3949820563883417E+00 
    8.2551683582159860E+00 
    1.2771060763076390E+01 
    1.2995449442703173E+01 
    7.6756055685748725E+00 
    8.9433596902046304E+00 
    1.1897134550754618E+01 
    1.0220071919624536E+01 
    8.4369938649542053E+00 
    1.3004332676990458E+01 
    1.2053892201181437E+01 
    7.5649788800848112E+00 
    1.2582850850281821E+01 
    9.1244226575611567E+00 
    1.1827836887855538E+01 
    1.2904274332969875E+01 
    9.0044086530495342E+00 
    5.4642566854313994E+00 
    8.9605665997603783E+00 
    1.2819221471667026E+01 
    1.3035115850590557E+01 
    7.6819483051064346E+00 
    8.8725411132221641E+00 
    1.3071618956051001E+01 
    8.7047929336937528E+00 
    8.1828153410690856E+00 
    1.0566924545472798E+01 
    5.2095802901555439E+00 
    7.4880992997782077E+00 
    8.8742251635062672E+00 
    9.3616584615825431E+00 
    1.4442703916582712E+01 
    6.4229267083805412E+00 
    8.9507492851015744E+00 
    1.1953300401558442E+01 
    1.2172036374810533E+01 
    5.6451194675758760E+00 
    8.5758400558625478E+00 
    8.9032805920349354E+00 
    1.2190235172341993E+01 
    8.9093618444712295E+00 
    1.2130265072133575E+01 
    3.4324734714889749E+00 
    5.8497002044796940E+00 
    9.1497114115158187E+00 
    1.2311376740929278E+01 
    7.6391198254704316E+00 
    8.1803847865188004E+00 
    8.8938141436929037E+00 
    8.1542119431173781E+00 
    1.0140670163750189E+01 
    7.9439273138232736E+00 
    7.5724134119697197E+00 
    5.9369769089868987E+00 
    1.0295262209997849E+01 
    8.9799503330013728E+00 
    1.2693004444640719E+01 
    7.6747311976907264E+00 
    8.3289368358730567E+00 
    1.2045228498271507E+01 
    6.9252212582181221E+00 
    1.2440786732908512E+01 
    8.7890099896270684E+00 
    8.2628198665046710E+00 
    1.2174147845301858E+01 
    8.9724783734433959E+00 
    1.2910427396824048E+01 
    1.0575870747826928E+01 
    1.1370287800825897E+01 
    1.2874938870769993E+01 
    6.4363256663063639E+00 
    9.1646794233816475E+00 
    1.2178716466415175E+01 
    2.5777122846883604E+00 
    8.8508915887663786E+00 
    1.2845034032524190E+01 
    8.2921661085168630E+00 
    9.5662356704327554E+00 
    5.5920365893761748E+00 
    1.1952970806124315E+01 
    1.4914914896827606E+01 
    1.0969143434663566E+01 
    8.2871968598114840E+00 
    7.4005381568430062E+00 
    9.5074847347565630E+00 
    8.8062547148111960E+00 
    6.0832625942789731E+00 
    1.2871312705299010E+01 
    1.2265103519332595E+01 
    1.1954817919723293E+01 
    9.3789389888600194E+00 
    7.5401811594147938E+00 
    8.6276835283216116E+00 
    1.2607050918447595E+01 
    7.7591429263842846E+00 
    8.6922636525166990E+00 
    7.9022744259688853E+00 
    1.0078385187484876E+01 
    1.4903562621558470E+01 
    1.1947387968301280E+01 
    7.5054653753453557E+00 
    1.2343034430032290E+01 
    1.2274835536313585E+01 
    1.2346152523721999E+01 
    1.3255080832828533E+01 
    1.3759084013923259E+01 
    1.2492573008939615E+01 
    8.9356034978344372E+00 
    9.4538604668010464E+00 
    1.2342023305941060E+01 
    1.2701271831041156E+01 
    6.3527759548603537E+00 
    1.1971537879930299E+01 
    1.2573528342931057E+01 
    6.1840899865287344E+00 
    1.3169827139364438E+01 
    1.3163813663621188E+01 
    1.1733521842659881E+01 
    9.2193517775731895E+00 
    2.2531795447908918E+00 
    1.2845442587952347E+01 
    9.0951586375675806E+00 
    1.2957739439555560E+01 
    8.2317624637416795E+00 
    1.2695793158211355E+01 
    8.0128986853232187E-01 
    1.1387134692420320E+01 
    8.4335727092558415E+00 
    7.5044977815791416E+00 
    7.3100887922391609E+00 
    8.7588803328986575E+00 
    9.8217943075917624E+00 
    9.0288102096707377E+00 
    6.0266100383325973E+00 
    1.2698165989304544E+01 
    1.2201431309828997E+01 
    1.0327397263836106E+01 
    9.1418150021373084E+00 
    1.3209208526051930E+00 
    6.7381394782490380E+00 
    4.6487043724429364E+00 
    1.2869437561285254E+01 
    9.9081256781029658E+00 
    1.2253805922967652E+01 
    1.2259415878590145E+01 
    7.8292882069426559E+00 
    1.0335526807664431E+01 
    1.1950703266531043E+01 
    1.3147294918581462E+01 
    5.5730926844672410E+00 
    1.0776740978713862E+01 
    9.0605452482948792E+00 
    4.9566075437073529E+00 
    7.8206434664540110E+00 
    1.0773732367849004E+01 
    1.2226093021293359E+01 
    8.8182182203022226E+00 
    1.2325358598290199E+01 
    1.2115379396187944E+01 
    1.2071199096752741E+01 
    8.6355216148070468E+00 
    7.4604061254216365E+00 
    1.1961920450080818E+01 
    7.5609525764319967E+00 
    8.9126510313902418E+00 
    7.4089656686493139E+00 
    8.6422154915278533E+00 
    1.2266876792752564E+01 
    5.4978134745264153E+00 
    7.7411256367509012E+00 
    1.2788931079908791E+01 
    8.6513124382955962E+00 
    9.8043229160872141E+00 
    5.6421729952636390E+00 
    7.6156736673244927E+00 
    1.2095924942003414E+01 
    1.2375454394373174E+01 
    4.5906558289041248E+00 
    8.6524719317669483E+00 
    7.4450174377742844E+00 
    1.3538383710551765E+01 
    1.3041981537256229E+01 
    1.3783204786610540E+01 
    8.6747614851681387E+00 
    1.2244008782108267E+01 
    1.1914415636442969E+01 
    8.5530826789542793E+00 
    1.1954968526352703E+01 
    9.1411612009366863E+00 
    5.0219543313196517E+00 
    8.8358915598358312E+00 
    1.2778998904047484E+01 
    1.1952199513502912E+01 
    5.9872240501584368E+00 
    1.1977520068515153E+01 
    9.8174817620005737E+00 
    8.8338615697189837E+00 
    8.3689150223638169E+00 
    1.1838507032685170E+01 
    9.3371244056021308E+00 
    1.1966237804873339E+01 
    8.5075706875046553E+00 
    5.2106187354456388E+00 
    8.9771405950244212E+00 
    7.3179719638060758E+00 
    1.0969476972718514E+01 
    1.2953780052535494E+01 
    1.1961105162685085E+01 
    1.2838906817264432E+01 
    8.5991414455495399E+00 
    5.8279405575567749E+00 
    5.9118379304986801E+00 
    9.0289589981558773E+00 
    8.8903823994551416E+00 
    1.2445760067275760E+00 
    1.1540821041965955E+01 
    1.3279477619519055E+01 
    8.2405114320961932E+00 
    5.2332341244795684E+00 
    1.0032013618312499E+01 
    1.1976252921182162E+01 
    6.2230023386520266E+00 
    4.2161046421190793E+00 
    8.8625320110657224E+00 
    1.2060581953767336E+01 
    1.2612585077351484E+01 
    1.2509753283129443E+01 
    1.2379710728142907E+01 
    6.0680940345078307E+00 
    8.8237636074527526E+00 
    1.1541566726640795E+01 
    6.9358355311504836E+00 
    1.2203399286537953E+01 
    1.0529228091352660E+01 
    6.0037323355699561E+00 
    1.2070186606135366E+01 
    1.2859021392308593E+01 
    1.2060051092624940E+01 
    5.9897706213037587E+00 
    8.9395653690272656E+00 
    6.5894854513735774E+00 
    8.4187560881613486E+00 
    1.1968954727029690E+01 
    1.1958850587112348E+01 
    6.0252148370167893E+00 
    1.2731349178724743E+01 
    9.4200607559004155E+00 
    1.1995870670726022E+01 
    1.2706491455231591E+01 
    1.1980078736586142E+01 
    1.1178443360271004E+01 
    1.3586320546392322E+01 
    8.2115870107163147E+00 
    1.2811967708751370E+01 
    1.2018857717962703E+01 
    1.2876723290263373E+01 
    1.2725460191791697E+01 
    8.3006575671446718E+00 
    8.7406951691773287E+00 
    8.2312501885081328E+00 
    1.0762182915145928E+01 
    3.4423757578167171E+00 
    8.9582024137523355E+00 
    1.3705962032409145E+01 
    9.1461553900696746E+00 
    9.3116228080349526E+00 
    1.2852242055886189E+01 
    1.3064950373348372E+01 
    8.1814011219191940E+00 
    1.1981212541330406E+01 
    1.1955890647532755E+01 
    9.3007917007114358E+00 
    1.2685597272650536E+01 
    6.3093597000765289E+00 
    3.9892765093918134E+00 
    9.5501117914646478E+00 
    9.1584614192912976E+00 
    1.1960690092552516E+01 
    5.6295635033414495E+00 
    1.2436618700956091E+01 
    4.0623191521029680E+00 
    9.1002377570401478E+00 
    8.3707166396685171E+00 
    8.9170015338848945E+00 
    1.4954098708355106E+01 
    3.3469430545292402E+00 
    8.8696903729500711E+00 
    1.0470811285608175E+01 
    8.5120393199199977E+00 
    6.6402839880373632E+00 
    1.2542143640713004E+01 
    1.4526578961437854E+01 
    1.2669144833573002E+01 
    8.8122676339872754E+00 
    4.9309815904706760E+00 
    1.4387490166029554E+01 
    1.2190092130912355E+01 
    6.3705667700296909E+00 
    8.4142786257335445E+00 
    1.3240388628270468E+01 
    2.8460184858511397E+00 
    9.2033563469261352E+00 
    1.2639519107349617E+01 
    8.9301373514588427E+00 
    7.7522206586815088E+00 
    8.9135963309312043E+00 
    1.1727851949833378E+01 
    8.9104716326440094E+00 
    4.3937261532657663E+00 
    7.7123187601761511E-01 
    6.6117725572349340E+00 
    1.3437410537565977E+01 
    8.2306205296861972E+00 
    1.0073182466398366E+01 
    9.6486305169644364E+00 
    1.0997791883053823E+01 
    8.9433307603300740E+00 
    1.2108769838036384E+01 
    1.4968019593659967E+01 
    1.0486000529247438E+01 
    1.2787666364607182E+01 
    4.6758048822911558E-01 
    1.1960533606832975E+01 
    4.8663187486209010E+00 
    1.3866521816350465E+01 
    8.8837277768536254E+00 
    7.8573832255752238E+00 
    6.7229175742274236E+00 
    4.6123127962964068E+00 
    9.9300142346430746E+00 
    7.0014789781683628E+00 
    1.0878376823853175E+01 
    1.8800374581209889E+00 
    9.8430625124407598E+00 
    1.1903110920006519E+01 
    5.3592565358087798E+00 
    1.2381404857071749E+01 
    1.3682931668961769E+01 
    1.2250461247810414E+01 
    8.7542427703420422E+00 
    8.9119866051104957E+00 
    8.8763860164005077E+00 
    4.9993055177951273E+00 
    7.9975823102544839E+00 
    7.8611225146455341E+00 
    8.8649903427714154E+00 
    8.1718494788395493E+00 
    5.8892678289951561E-01 
    5.5816530181557118E+00 
    8.5151102259519806E+00 
    8.8408373417192134E+00 
    1.1172198207456928E+01 
    1.8746241795677472E+00 
    9.2652295812813446E+00 
    9.1633562686802001E+00 
    3.2180201956351535E+00 
    1.2138511750400188E+01 
    7.5780185665801083E+00 
    9.0368916721241064E+00 
    1.2185252779238271E+01 
    4.6292817547597123E+00 
    1.2236544028148183E+01 
    7.6786142016522678E+00 
    8.6316227487102326E-01 
    8.2860350867353016E+00 
    1.2744248516483088E+01 
    1.1960699436685777E+01 
    1.1978124711149608E+01 
    9.2456342760609864E+00 
    9.1035086989752720E+00 
    7.5595319057226869E+00 
    6.0612246391328730E+00 
    1.2281174314133043E+01 
    8.4132356750628077E+00 
    5.9223601420442122E+00 
    1.1973091530825398E+01 
    1.2573117773765343E+01 
    9.0465323767942127E+00 
    8.7006570229958360E+00 
    1.4851774603782818E+01 
    9.3014779593821153E+00 
    1.2300982830427012E+01 
    7.1749248606142171E+00 
    1.4996472108089083E+01 
    5.8770521404828937E+00 
    7.9475946954705057E+00 
    6.5945639705797552E+00 
    9.5025395288261194E+00 
    7.5517893875286157E+00 
    1.4980300594570027E+01 
    9.3433856669235098E+00 
    1.1674363573010336E+01 
    6.0473584947175931E+00 
    8.9399324622647587E+00 
    1.2160643682782526E+01 
    7.5795910139216423E+00 
    6.3019637527795362E+00 
    9.7384923112209361E+00 
    1.2373190896301235E+01 
    6.4904172270817533E+00 
    8.3881451054584026E+00 
    8.7247535024827609E+00 
    1.1939400902733876E+01 
    8.5334762828005672E+00 
    1.2344874159646665E+01 
    1.2903062397326213E+01 
    7.5837982658007075E+00 
    7.4280649832583610E+00 
    7.0414521284911009E+00 
    1.2060751074525065E+01 
    9.1592845633683808E+00 
    1.4564657509747333E+01 
    1.1383124769098748E+01 
    1.2123263960240264E+01 
    1.4267062515860204E+01 
    1.3690252369710812E+01 
    8.9848774293401785E+00 
    8.8502318498938273E+00 
    1.1761573761408663E+01 
    1.1993030178785077E+01 
    1.2435479753807577E+01 
    1.2207747147517452E+01 
    1.4870213824431556E+01 
    9.3010857076176023E+00 
    7.6716835121731046E+00 
    9.2680074187225969E+00 
    1.2824740183930860E+01 
    9.0726109862830047E+00 
    5.2285236130082158E+00 
    8.7388649308373587E+00 
    1.3209127640170138E+01 
    9.1950792554824989E+00 
    7.6812091784452470E+00 
    8.6633614639598164E+00 
    1.3311384559331380E+01 
    1.1987631503689002E+01 
    7.2819227705131846E+00 
    1.3437984647568838E+01 
    9.0116527220014735E+00 
    1.2437461787528845E+01 
    1.3323139671886439E+01 
    9.3447851610477954E+00 
    4.6310975089411190E+00 
    9.7078074640089191E+00 
    4.7921175754076639E+00 
    9.1171374854930853E+00 
    8.9305182623303700E+00 
    1.0212752945332863E+01 
    5.0679147067483612E+00 
    1.0838056242475476E+01 
    8.9517396961415194E+00 
    1.2199327850937138E+01 
    9.3161383917337108E+00 
    7.1077975202834400E+00 
    8.5482902848151294E+00 
    9.3793488348715428E+00 
    9.3938763160922800E+00 
    1.2945086342515030E+01 
    7.3231754941887441E+00 
    7.1950179256520252E+00 
    5.3341419845843658E+00 
    1.2460955684416678E+01 
    8.5839339543207061E+00 
    1.1805063910805883E+01 
    8.9013070701110504E+00 
    5.8437485389065751E+00 
    1.2011226648110165E+01 
    8.8750537613946090E+00 
    6.3841454638289026E+00 
    6.7730269527224483E+00 
    7.0187762583497166E+00 
    1.2225451338762392E+01 
    8.8669721916868305E+00 
    1.2797276438802120E+01 
    8.8310306457092178E+00 
    8.7656865919881124E+00 
    8.3088495933313187E+00 
    1.2083739778959247E+01 
    8.6774686091508570E+00 
    7.0561868225322701E+00 
    1.3678257073505003E+01 
    1.2153981460617295E+01 
    6.1619908163843808E+00 
    2.3658060491308834E+00 
    8.8560013837400717E+00 
    8.3137687798058888E+00 
    7.4221296154164982E+00 
    8.1262572610152475E+00 
    1.2135953846985652E+01 
    8.5774450228055610E+00 
    7.7268073083411819E+00 
    1.2011759945940529E+01 
    6.1051789367383371E+00 
    1.1726942962683792E+01 
    8.0255110516156023E+00 
    6.9953213667006251E+00 
    7.4950864640609014E+00 
    1.2514030369673767E+01 
    8.9199437732565023E+00 
    8.9279298465513808E+00 
    5.1456378321373251E+00 
    5.5703679963822275E+00 
    1.1124904989003175E+01 
    8.9375899191361654E+00 
    8.9010951474237938E+00 
    1.3423842227552681E+01 
    7.1963057980945671E+00 
    8.9492874737787798E+00 
    6.3157243428097072E+00 
    6.5145200088526423E+00 
    1.2075695093801455E+01 
    8.5644373823656039E+00 
    6.1530475418513975E+00 
    9.3798064639929475E+00 
    8.8058956875376460E+00 
    1.2079140394819031E+01 
    1.3510858506745757E+01 
    9.1129885161357405E-01 
    8.8609159005340636E+00 
    9.1571362315177645E+00 
    1.2136898843789210E+01 
    8.3550550114983260E+00 
    8.8942328549623522E+00 
    1.2991110357506640E+01 
    7.5264309440271271E+00 
    6.2089324941537702E+00 
    1.0758464420647018E+01 
    1.1972425286294106E+01 
    1.2875997762857002E+01 
    1.3126081937867175E+01 
    8.7071022506602986E+00 
    8.8530375709302582E+00 
    9.9907009897776096E+00 
    5.8505046229270876E+00 
    1.2082470960632746E+01 
    6.6997620075411497E+00 
    6.0967093428162658E+00 
    1.1113185105597138E+01 
    1.0460060213399695E+01 
    5.9774467486420813E+00 
    1.2003221340920861E+01 
    1.2862996913486493E+01 
    9.3148834342612563E+00 
    1.3605995390072955E+01 
    1.2031253917476935E+01 
    8.4367684552345139E+00 
    1.2626549820707810E+01 
    6.5205175965514099E+00 
    1.1988225943527995E+01 
    8.8600497728395684E+00 
    8.8196931883583591E+00 
    1.3581187204781697E+01 
    8.6136905795032863E+00 
    1.0857780154767894E+01 
    7.4811775819377528E+00 
    1.2970498520948958E+01 
    1.1908202878145239E+01 
    7.8139082660139838E+00 
    1.1952352365611086E+01 
    8.0465274758194951E+00 
    8.9034743960205827E+00 
    1.2826671435101373E+01 
    1.2200231995956445E+01 
    1.2866007401474242E+01 
    1.2139510227233211E+01 
    8.0027668395949849E+00 
    8.2122430984868124E+00 
    1.2872019891807389E+01 
    8.3272676890792372E+00 
    1.1851032928337247E+01 
    8.6054180645504044E+00 
    3.4718471463070935E+00 
    6.1617263271151472E+00 
    5.7002257082114358E+00 
    1.2829689098824421E+01 
    1.3516156537117086E+01 
    1.1967840172270066E+01 
    1.0331487114831001E+01 
    1.2214665047655604E+01 
    1.2009605529528091E+01 
    1.2520501704168556E+01 
    4.9668753301506854E+00 
    3.2383311431811821E+00 
    1.0139243830455536E+01 
    8.5050249237612547E+00 
    1.2137333079849535E+01 
    1.2135144537897011E+01 
    9.1723820054699203E+00 
    1.2167374442110377E+01 
    8.8475498433167257E+00 
    8.7277317952223967E+00 
    4.4831710379795986E+00 
    3.2252381237798082E+00 
    1.3308601754480852E+01 
    6.9236020867725463E+00 
    7.7588518598662350E+00 
    9.0818079614803420E+00 
    1.4852686984358655E+01 
    9.1653900429316462E+00 
    9.0954026446055423E+00 
    3.6674136604021492E+00 
    9.1659158053071828E+00 
    9.1779067669079808E+00 
    1.2409060957168084E+01 
    7.4988665901923293E+00 
    8.4797987158488262E+00 
    1.3464637246051609E+01 
    8.8701707390157214E+00 
    1.1981307232507678E+01 
    1.2200920121062261E+01 
    1.0988640392601180E+01 
    7.5208975173587831E+00 
    1.2138761622358139E+01 
    8.6587063377807141E+00 
    1.2149818070872733E+01 
    1.1927606708958336E+01 
    1.2846943825784821E+01 
    1.2138525799620405E+01 
    1.1426797523548574E+01 
    8.8582719851508944E+00 
    5.9307463253298698E+00 
    1.4729156085969965E+01 
    6.8379796039629950E+00 
    1.2787435796525237E+01 
    8.8556265168144037E+00 
    7.2329724814172272E+00 
    4.3406420923047255E+00 
    9.2081926807337648E+00 
    1.2127631360884976E+01 
    1.2123382961080143E+01 
    8.8845048556803672E+00 
    8.8496931678208277E+00 
    1.3659506565974249E+01 
    1.3073273025185776E+01 
    9.1821381280712782E+00 
    3.0145246010688829E+00 
    1.1400541506934289E+01 
    1.4978511914656929E+01 
    8.8616896190657783E+00 
    1.0651773064466573E+01 
    8.3503560993786881E+00 
    1.4591398687414550E+01 
    1.3145117296367498E+01 
    1.2897852226781719E+01 
    9.2018806700315352E+00 
    4.0448133015869905E+00 
    8.3106510340628290E+00 
    8.3763562381716063E+00 
    8.4243326817669946E+00 
    3.2778260199720530E+00 