# vtk DataFile Version 2.0
Pressure Field Data 
ASCII 
DATASET UNSTRUCTURED_GRID 

POINTS 2860 double 

    0.0000000000000000E+00     0.0000000000000000E+00     0.0000000000000000E+00 
    1.0000000000000000E+00     0.0000000000000000E+00     0.0000000000000000E+00 
    1.0000000000000000E+00     1.0000000000000000E+00     0.0000000000000000E+00 
    0.0000000000000000E+00     1.0000000000000000E+00     0.0000000000000000E+00 
    2.5000000000000000E-01     2.5000000000000000E-01     0.0000000000000000E+00 
    7.5000000000000000E-01     2.5000000000000000E-01     0.0000000000000000E+00 
    7.5000000000000000E-01     7.5000000000000000E-01     0.0000000000000000E+00 
    2.5000000000000000E-01     7.5000000000000000E-01     0.0000000000000000E+00 
    3.1249999999942091E-02     0.0000000000000000E+00     0.0000000000000000E+00 
    6.2499999999873469E-02     0.0000000000000000E+00     0.0000000000000000E+00 
    9.3749999999826514E-02     0.0000000000000000E+00     0.0000000000000000E+00 
    1.2499999999977961E-01     0.0000000000000000E+00     0.0000000000000000E+00 
    1.5624999999968961E-01     0.0000000000000000E+00     0.0000000000000000E+00 
    1.8749999999959971E-01     0.0000000000000000E+00     0.0000000000000000E+00 
    2.1874999999950970E-01     0.0000000000000000E+00     0.0000000000000000E+00 
    2.4999999999941969E-01     0.0000000000000000E+00     0.0000000000000000E+00 
    2.8124999999932920E-01     0.0000000000000000E+00     0.0000000000000000E+00 
    3.1249999999923850E-01     0.0000000000000000E+00     0.0000000000000000E+00 
    3.4374999999914790E-01     0.0000000000000000E+00     0.0000000000000000E+00 
    3.7499999999905720E-01     0.0000000000000000E+00     0.0000000000000000E+00 
    4.0624999999896660E-01     0.0000000000000000E+00     0.0000000000000000E+00 
    4.3749999999887590E-01     0.0000000000000000E+00     0.0000000000000000E+00 
    4.6874999999878530E-01     0.0000000000000000E+00     0.0000000000000000E+00 
    4.9999999999869471E-01     0.0000000000000000E+00     0.0000000000000000E+00 
    5.3124999999877620E-01     0.0000000000000000E+00     0.0000000000000000E+00 
    5.6249999999885780E-01     0.0000000000000000E+00     0.0000000000000000E+00 
    5.9374999999893940E-01     0.0000000000000000E+00     0.0000000000000000E+00 
    6.2499999999902101E-01     0.0000000000000000E+00     0.0000000000000000E+00 
    6.5624999999910261E-01     0.0000000000000000E+00     0.0000000000000000E+00 
    6.8749999999918421E-01     0.0000000000000000E+00     0.0000000000000000E+00 
    7.1874999999926570E-01     0.0000000000000000E+00     0.0000000000000000E+00 
    7.4999999999934730E-01     0.0000000000000000E+00     0.0000000000000000E+00 
    7.8124999999942890E-01     0.0000000000000000E+00     0.0000000000000000E+00 
    8.1249999999951039E-01     0.0000000000000000E+00     0.0000000000000000E+00 
    8.4374999999959199E-01     0.0000000000000000E+00     0.0000000000000000E+00 
    8.7499999999967359E-01     0.0000000000000000E+00     0.0000000000000000E+00 
    9.0624999999975520E-01     0.0000000000000000E+00     0.0000000000000000E+00 
    9.3749999999983680E-01     0.0000000000000000E+00     0.0000000000000000E+00 
    9.6874999999991840E-01     0.0000000000000000E+00     0.0000000000000000E+00 
    1.0000000000000000E+00     3.1249999999942091E-02     0.0000000000000000E+00 
    1.0000000000000000E+00     6.2499999999873469E-02     0.0000000000000000E+00 
    1.0000000000000000E+00     9.3749999999826514E-02     0.0000000000000000E+00 
    1.0000000000000000E+00     1.2499999999977961E-01     0.0000000000000000E+00 
    1.0000000000000000E+00     1.5624999999968961E-01     0.0000000000000000E+00 
    1.0000000000000000E+00     1.8749999999959971E-01     0.0000000000000000E+00 
    1.0000000000000000E+00     2.1874999999950970E-01     0.0000000000000000E+00 
    1.0000000000000000E+00     2.4999999999941969E-01     0.0000000000000000E+00 
    1.0000000000000000E+00     2.8124999999932920E-01     0.0000000000000000E+00 
    1.0000000000000000E+00     3.1249999999923850E-01     0.0000000000000000E+00 
    1.0000000000000000E+00     3.4374999999914790E-01     0.0000000000000000E+00 
    1.0000000000000000E+00     3.7499999999905720E-01     0.0000000000000000E+00 
    1.0000000000000000E+00     4.0624999999896660E-01     0.0000000000000000E+00 
    1.0000000000000000E+00     4.3749999999887590E-01     0.0000000000000000E+00 
    1.0000000000000000E+00     4.6874999999878530E-01     0.0000000000000000E+00 
    1.0000000000000000E+00     4.9999999999869471E-01     0.0000000000000000E+00 
    1.0000000000000000E+00     5.3124999999877620E-01     0.0000000000000000E+00 
    1.0000000000000000E+00     5.6249999999885780E-01     0.0000000000000000E+00 
    1.0000000000000000E+00     5.9374999999893940E-01     0.0000000000000000E+00 
    1.0000000000000000E+00     6.2499999999902101E-01     0.0000000000000000E+00 
    1.0000000000000000E+00     6.5624999999910261E-01     0.0000000000000000E+00 
    1.0000000000000000E+00     6.8749999999918421E-01     0.0000000000000000E+00 
    1.0000000000000000E+00     7.1874999999926570E-01     0.0000000000000000E+00 
    1.0000000000000000E+00     7.4999999999934730E-01     0.0000000000000000E+00 
    1.0000000000000000E+00     7.8124999999942890E-01     0.0000000000000000E+00 
    1.0000000000000000E+00     8.1249999999951039E-01     0.0000000000000000E+00 
    1.0000000000000000E+00     8.4374999999959199E-01     0.0000000000000000E+00 
    1.0000000000000000E+00     8.7499999999967359E-01     0.0000000000000000E+00 
    1.0000000000000000E+00     9.0624999999975520E-01     0.0000000000000000E+00 
    1.0000000000000000E+00     9.3749999999983680E-01     0.0000000000000000E+00 
    1.0000000000000000E+00     9.6874999999991840E-01     0.0000000000000000E+00 
    9.6875000000003686E-01     1.0000000000000000E+00     0.0000000000000000E+00 
    9.3750000000011691E-01     1.0000000000000000E+00     0.0000000000000000E+00 
    9.0625000000015765E-01     1.0000000000000000E+00     0.0000000000000000E+00 
    8.7500000000017863E-01     1.0000000000000000E+00     0.0000000000000000E+00 
    8.4375000000028044E-01     1.0000000000000000E+00     0.0000000000000000E+00 
    8.1250000000040856E-01     1.0000000000000000E+00     0.0000000000000000E+00 
    7.8125000000054956E-01     1.0000000000000000E+00     0.0000000000000000E+00 
    7.5000000000066480E-01     1.0000000000000000E+00     0.0000000000000000E+00 
    7.1875000000086831E-01     1.0000000000000000E+00     0.0000000000000000E+00 
    6.8750000000102829E-01     1.0000000000000000E+00     0.0000000000000000E+00 
    6.5625000000114431E-01     1.0000000000000000E+00     0.0000000000000000E+00 
    6.2500000000129829E-01     1.0000000000000000E+00     0.0000000000000000E+00 
    5.9375000000147926E-01     1.0000000000000000E+00     0.0000000000000000E+00 
    5.6250000000168354E-01     1.0000000000000000E+00     0.0000000000000000E+00 
    5.3125000000188671E-01     1.0000000000000000E+00     0.0000000000000000E+00 
    5.0000000000205835E-01     1.0000000000000000E+00     0.0000000000000000E+00 
    4.6875000000192979E-01     1.0000000000000000E+00     0.0000000000000000E+00 
    4.3750000000180111E-01     1.0000000000000000E+00     0.0000000000000000E+00 
    4.0625000000167238E-01     1.0000000000000000E+00     0.0000000000000000E+00 
    3.7500000000154382E-01     1.0000000000000000E+00     0.0000000000000000E+00 
    3.4375000000141509E-01     1.0000000000000000E+00     0.0000000000000000E+00 
    3.1250000000128642E-01     1.0000000000000000E+00     0.0000000000000000E+00 
    2.8125000000115769E-01     1.0000000000000000E+00     0.0000000000000000E+00 
    2.5000000000102918E-01     1.0000000000000000E+00     0.0000000000000000E+00 
    2.1875000000090050E-01     1.0000000000000000E+00     0.0000000000000000E+00 
    1.8750000000077180E-01     1.0000000000000000E+00     0.0000000000000000E+00 
    1.5625000000064329E-01     1.0000000000000000E+00     0.0000000000000000E+00 
    1.2500000000051459E-01     1.0000000000000000E+00     0.0000000000000000E+00 
    9.3750000000385914E-02     1.0000000000000000E+00     0.0000000000000000E+00 
    6.2500000000257239E-02     1.0000000000000000E+00     0.0000000000000000E+00 
    3.1250000000128557E-02     1.0000000000000000E+00     0.0000000000000000E+00 
    0.0000000000000000E+00     9.6875000000003686E-01     0.0000000000000000E+00 
    0.0000000000000000E+00     9.3750000000011691E-01     0.0000000000000000E+00 
    0.0000000000000000E+00     9.0625000000015765E-01     0.0000000000000000E+00 
    0.0000000000000000E+00     8.7500000000017863E-01     0.0000000000000000E+00 
    0.0000000000000000E+00     8.4375000000028044E-01     0.0000000000000000E+00 
    0.0000000000000000E+00     8.1250000000040856E-01     0.0000000000000000E+00 
    0.0000000000000000E+00     7.8125000000054956E-01     0.0000000000000000E+00 
    0.0000000000000000E+00     7.5000000000066480E-01     0.0000000000000000E+00 
    0.0000000000000000E+00     7.1875000000086831E-01     0.0000000000000000E+00 
    0.0000000000000000E+00     6.8750000000102829E-01     0.0000000000000000E+00 
    0.0000000000000000E+00     6.5625000000114431E-01     0.0000000000000000E+00 
    0.0000000000000000E+00     6.2500000000129829E-01     0.0000000000000000E+00 
    0.0000000000000000E+00     5.9375000000147926E-01     0.0000000000000000E+00 
    0.0000000000000000E+00     5.6250000000168354E-01     0.0000000000000000E+00 
    0.0000000000000000E+00     5.3125000000188671E-01     0.0000000000000000E+00 
    0.0000000000000000E+00     5.0000000000205835E-01     0.0000000000000000E+00 
    0.0000000000000000E+00     4.6875000000192979E-01     0.0000000000000000E+00 
    0.0000000000000000E+00     4.3750000000180111E-01     0.0000000000000000E+00 
    0.0000000000000000E+00     4.0625000000167238E-01     0.0000000000000000E+00 
[...]
CELL_DATA 2795 
SCALARS Pressure double 1 
LOOKUP_TABLE default 

    5.5027150162946485E+00 
    1.2641006230349456E+01 
    8.9655804462895716E+00 
    8.5599903141533975E+00 
    6.7847582657455074E+00 
    1.2533462772761506E+01 
    1.3181215749169407E+01 
    4.9090635973735672E+00 
    9.4834500582217327E+00 
    7.2451694232843264E+00 
    6.1648449467830178E+00 
    1.2308224712945943E+01 
    1.2551967546213911E+01 
    1.2506010911306252E+01 
    8.2654488755056068E+00 
    4.8263112318310002E+00 
    7.8669569283152949E+00 
    6.5721737480238369E+00 
    1.1992111027714706E+01 
    8.9625223654682245E+00 
    8.8458754713076662E+00 
    1.2448852208354301E+01 
    8.3213526331453362E+00 
    3.2304845957274703E-01 
    1.2286762552055940E+01 
    1.2530386651030684E+01 
    1.3210031847971205E+01 
    5.9248544032286317E+00 
    1.2238516311924394E+01 
    1.3207611514069642E+01 
    9.0102787697147768E+00 
    9.2055782325594748E+00 
    6.4028748838786047E+00 
    8.9243733865870851E+00 
    2.8459281858194925E+00 
    7.8716175164616358E+00 
    8.9161959444839507E+00 
    1.3244542510554123E+01 
    1.3161063964499137E+01 
    1.2319533293881511E+01 
    6.7194098487848715E+00 
    1.2266494741693958E+01 
    6.7311264817084437E-01 
    8.7828703015333680E+00 
    1.2990098418423377E+01 
    1.2839333640154365E+01 
    1.2298838752183313E+01 
    9.8066107109871545E+00 
    1.2363036357468154E+01 
    8.0527580067215485E+00 
    7.6632114612643418E+00 
    9.1710738626823964E+00 
    8.6788852046661535E+00 
    7.9136634161048143E+00 
    9.0817514997940467E+00 
    1.1809053290287164E+01 
    1.0689470352962491E+01 
    6.8219701823953658E+00 
    1.2452224675372047E+01 
    1.2384842301394587E+01 
    8.5820546193619052E+00 
    8.6118921669081558E+00 
    8.4721914019885816E+00 
    1.3118460649374363E+01 
    1.3348268549331435E+01 
    7.8762374257325911E+00 
    9.1694055037279778E+00 
    1.2222371056746889E+01 
    1.0491409749269383E+01 
    8.6498066073036615E+00 
    1.3356867338765426E+01 
    1.2386662104098413E+01 
    7.7628596615002978E+00 
    1.2928272244332499E+01 
    9.3357349068874456E+00 
    1.2154910111386494E+01 
    1.3254157738531191E+01 
    9.2457606907442607E+00 
    5.6049618538862038E+00 
    9.1871883081124075E+00 
    1.3168623796505834E+01 
    1.3387213679970335E+01 
    7.8833879682587682E+00 
    9.0948343205644004E+00 
    1.3425186834859053E+01 
    8.9221842260044930E+00 
    8.3978793137263086E+00 
    1.0849834106150871E+01 
    5.3449230647763493E+00 
    7.6839087105774393E+00 
    9.0973207985030466E+00 
    9.6085089306076874E+00 
    1.4812503163745717E+01 
    6.5905235918127723E+00 
    9.1769879583163299E+00 
    1.2279526705913595E+01 
    1.2508285865150583E+01 
    5.7919372141431094E+00 
    8.7932097685990858E+00 
    9.1253820640877965E+00 
    1.2526794471081532E+01 
    9.1342046929472769E+00 
    1.2465549405980749E+01 
    3.5195104796760148E+00 
    5.9924009026764358E+00 
    9.3832511754758965E+00 
    1.2649148001586122E+01 
    7.8390486807722262E+00 
    8.3840973038200381E+00 
    9.1188748259945047E+00 
    8.3683624983201490E+00 
    1.0383560238700067E+01 
    8.1445195531778918E+00 
    7.7705277340417700E+00 
    6.0897218177886465E+00 
    1.0576153296549764E+01 
    9.2065938519426762E+00 
    1.3038637000206386E+01 
    7.8751025095372764E+00 
    8.5466213169239236E+00 
    1.2377392116046440E+01 
    7.1058761124790140E+00 
    1.2782185262926895E+01 
    9.0099390155767214E+00 
    8.4799971174535962E+00 
    1.2510337505256091E+01 
    9.1996809466634648E+00 
    1.3261292730370386E+01 
    1.0859147552441479E+01 
    1.1679018933145114E+01 
    1.3225362852908319E+01 
    6.6042162356432357E+00 
    9.3995979381436161E+00 
    1.2514182396077279E+01 
    2.6417718423929353E+00 
    9.0598597639832512E+00 
    1.3194844072020709E+01 
    8.5089722923216939E+00 
    9.8251975199617050E+00 
    5.7364349381749822E+00 
    1.2278739789314496E+01 
    1.5288065841678906E+01 
    1.1265176930473572E+01 
    8.5049949271170906E+00 
    7.5940797272878715E+00 
    9.7495386368847274E+00 
    9.0273541719815427E+00 
    6.2307345419513620E+00 
    1.3221599749100763E+01 
    1.2602999441150205E+01 
    1.2281070611002109E+01 
    9.6229853629878495E+00 
    7.7373318727947566E+00 
    8.8449010717192351E+00 
    1.2953108876186544E+01 
    7.9624215032905079E+00 
    8.9232147227511120E+00 
    8.1094905430940347E+00 
    1.0351280692505034E+01 
    1.5276623324923126E+01 
    1.2273506900621566E+01 
    7.6984168364671683E+00 
    1.2683151637858726E+01 
    1.2611892950172514E+01 
    1.2684699785453473E+01 
    1.3611204960650584E+01 
    1.4121916077669555E+01 
    1.2836304875039820E+01 
    9.1613544602650219E+00 
    9.7101979643436973E+00 
    1.2681501291946663E+01 
    1.3047635317156356E+01 
    6.5069736188797593E+00 
    1.2298455967577970E+01 
    1.2918831092187462E+01 
    6.3338664474530129E+00 
    1.3525808808379908E+01 
    1.3518292314843778E+01 
    1.2053377005165629E+01 
    9.4562339779152627E+00 
    2.3115642731272645E+00 
    1.3195252041617071E+01 
    9.3280496614199677E+00 
    1.3308893516816836E+01 
    8.4468550223586014E+00 
    1.3043288386659412E+01 
    8.2180754356007957E-01 
    1.1696383511740450E+01 
    8.6536584317310066E+00 
    7.7006952214344189E+00 
    7.5011957134505556E+00 
    8.9780015240053039E+00 
    1.0068041952329530E+01 
    9.2705170784847724E+00 
    6.1806295293929550E+00 
    1.3044111253235869E+01 
    1.2537121047614765E+01 
    1.0602249935331855E+01 
    9.3756875646567135E+00 
    1.3525391576569843E+00 
    6.9139176452996285E+00 
    4.7684347444887480E+00 
    1.3218490990997397E+01 
    1.0174360654731517E+01 
    1.2590043653004727E+01 
    1.2596566353050354E+01 
    8.0331900439467923E+00 
    1.0620379137424152E+01 
    1.2277023745891873E+01 
    1.3501622607564315E+01 
    5.7175079035507155E+00 
    1.1072653368542841E+01 
    9.3037249249641896E+00 
    5.0851610398501972E+00 
    8.0255443535241469E+00 
    1.1073688141124517E+01 
    1.2562393376219511E+01 
    9.0402070759998576E+00 
    1.2663639576354855E+01 
    1.2449309868768768E+01 
    1.2403922273786037E+01 
    8.8515194480126187E+00 
    7.6523566032771910E+00 
    1.2288357817712422E+01 
    7.7586865017726341E+00 
    9.1369414858749991E+00 
    7.6026758961699228E+00 
    8.8716368449802818E+00 
    1.2604304760085288E+01 
    5.6318421296086205E+00 
    7.9438343858813933E+00 
    1.3137149201818174E+01 
    8.8661478412397177E+00 
    1.0067299579692619E+01 
    5.7794801014580823E+00 
    7.8149278335253740E+00 
    1.2429415749282688E+01 
    1.2714746703440726E+01 
    4.7036762351167640E+00 
    8.8679421479463461E+00 
    7.6394224376358375E+00 
    1.3898689057779807E+01 
    1.3394307716979803E+01 
    1.4146560434150237E+01 
    8.8901283944870446E+00 
    1.2580755042054738E+01 
    1.2239734244172757E+01 
    8.7699349532459223E+00 
    1.2281284870950104E+01 
    9.3755110769967978E+00 
    5.1512287849995282E+00 
    9.0698696835147317E+00 
    1.3126376116572347E+01 
    1.2278446852685830E+01 
    6.1325015053486025E+00 
    1.2304604180799489E+01 
    1.0057427765759787E+01 
    9.0422995788995966E+00 
    8.5847190770577271E+00 
    1.2161446882796104E+01 
    9.5753667080124991E+00 
    1.2292883743049897E+01 
    8.7304154811079790E+00 
    5.3428272152942160E+00 
    9.2029538112585225E+00 
    7.5093309773585002E+00 
    1.1265566639825639E+01 
    1.3305565925876595E+01 
    1.2287340852510626E+01 
    1.3188666918400259E+01 
    8.8176033263450844E+00 
    5.9695508804587059E+00 
    6.0555317589089386E+00 
    9.2431882360696278E+00 
    9.1141444552457891E+00 
    1.2770266340999215E+00 
    1.1854859858654393E+01 
    1.3636630450857130E+01 
    8.4568184332775473E+00 
    5.3692477557056275E+00 
    1.0306131815268399E+01 
    1.2303346530809204E+01 
    6.3852239911657271E+00 
    4.3247123344242455E+00 
    9.0857662285541689E+00 
    1.2391032396727008E+01 
    1.2956622229516714E+01 
    1.2853296861492325E+01 
    1.2718892299435566E+01 
    6.2250755604323782E+00 
    9.0335045222687871E+00 
    1.1859470977363932E+01 
    7.1125847630313963E+00 
    1.2540291195876268E+01 
    1.0821064820413758E+01 
    6.1501436701547840E+00 
    1.2400538985551457E+01 
    1.3209543730158600E+01 
    1.2394077661441424E+01 
    6.1459614250948595E+00 
    9.1654717765184675E+00 
    6.7614742012210369E+00 
    8.6362326569309023E+00 
    1.2295765034554007E+01 
    1.2285316986343531E+01 
    6.1822680050962138E+00 
    1.3079613846935075E+01 
    9.6599607407354959E+00 
    1.2322820513823025E+01 
    1.3052974908668249E+01 
    1.2306797275718367E+01 
    1.1481029131255266E+01 
    1.3947814190686959E+01 
    8.4241466448244182E+00 
    1.3161067671846940E+01 
    1.2347729825372626E+01 
    1.3227206861649595E+01 
    1.3073573423989188E+01 
    8.5152424796307802E+00 
    8.9601335868685243E+00 
    8.4475600898319918E+00 
    1.1051436342703738E+01 
    3.5299003750124123E+00 
    9.1643041198249975E+00 
    1.4068610807570337E+01 
    9.3795342723430917E+00 
    9.5486738344805389E+00 
    1.3202280087346381E+01 
    1.3418357694940754E+01 
    8.3846902262386926E+00 
    1.2308431813765514E+01 
    1.2282148856063635E+01 
    9.5375627725656216E+00 
    1.3032767973823546E+01 
    6.4621024549664385E+00 
    4.0885952537219223E+00 
    9.7915146468033250E+00 
    9.3923039640186321E+00 
    1.2287345667929561E+01 
    5.7760296920901624E+00 
    1.2777810732782788E+01 
    4.1630505831858784E+00 
    9.3320601023310701E+00 
    8.5758818648589354E+00 
    9.1420788457962594E+00 
    1.5327307545922009E+01 
    3.4314647780280430E+00 
    9.0780436585120814E+00 
    1.0756424172671592E+01 
    8.7272488755830224E+00 
    6.8101795332302277E+00 
    1.2884645855872149E+01 
    1.4897106153603771E+01 
    1.3015608989955865E+01 
    9.0205716188639311E+00 
    5.0590828914103119E+00 
    1.4756353669367234E+01 
    1.2525867908612911E+01 
    6.5300137229284143E+00 
    8.6361462391698343E+00 
    1.3596196750724769E+01 
    2.9176905916613598E+00 
    9.4380192750706815E+00 
    1.2985195318354487E+01 
    9.1554653098603218E+00 
    7.9529774512553333E+00 
    9.1199065458744428E+00 
    1.2054395207322772E+01 
    9.1351010924473872E+00 
    4.5070570038002886E+00 
    7.9190355308937910E-01 
    6.7720404091854309E+00 
    1.3797176444106052E+01 
    8.4469414717423916E+00 
    1.0346120929739991E+01 
    9.8966383181079411E+00 
    1.1304884837133544E+01 
    9.1689585026224254E+00 
    1.2442697747266982E+01 
    1.5341304927772192E+01 
    1.0766444715616803E+01 
    1.3136206622506045E+01 
    4.7928184246930822E-01 
    1.2287083213319411E+01 
    4.9894380400187908E+00 
    1.4230744491270896E+01 
    9.0918103116935178E+00 
    8.0595442474597920E+00 
    6.8983579097961698E+00 
    4.7316421259515362E+00 
    1.0191329919471174E+01 
    7.1757639625712573E+00 
    1.1171672864060676E+01 
    1.9296803697860803E+00 
    1.0083697417957204E+01 
    1.2228057282461940E+01 
    5.4906888071430417E+00 
    1.2722596451913837E+01 
    1.4044642141468890E+01 
    1.2587014965476435E+01 
    8.9622304679222111E+00 
    9.1367284450903643E+00 
    9.0844250382187770E+00 
    5.1289691092948848E+00 
    8.2075343349620855E+00 
    8.0672793651492540E+00 
    9.0734161783119056E+00 
    8.3861622292737295E+00 
    6.0410683382006725E-01 
    5.7238622987578660E+00 
    8.7402343347628353E+00 
    9.0492688555486485E+00 
    1.1474744079176192E+01 
    1.9209682388941043E+00 
    9.5012376162152972E+00 
    9.3971493853684080E+00 
    3.2994787666994343E+00 
    1.2472305754683278E+01 
    7.7759735696500023E+00 
    9.2661338680423757E+00 
    1.2521224635751130E+01 
    4.7489964552418282E+00 
    1.2573716682277594E+01 
    7.8796659898956580E+00 
    8.8339638166858792E-01 
    8.5035716530175343E+00 
    1.3092026092192635E+01 
    1.2287158729595566E+01 
    1.2305029357364942E+01 
    9.4590823237832176E+00 
    9.3356121014284046E+00 
    7.7572290414400671E+00 
    6.2152696436334498E+00 
    1.2619679596003206E+01 
    8.6348508607850203E+00 
    6.0710652153531806E+00 
    1.2299969877861066E+01 
    1.2917418971611456E+01 
    9.2656609221568580E+00 
    8.9155058745643530E+00 
    1.5224149190085342E+01 
    9.5382951852847899E+00 
    1.2639267872468009E+01 
    7.3624789667718398E+00 
    1.5369785602097894E+01 
    6.0200258168806000E+00 
    8.1478174580364531E+00 
    6.7546019694647086E+00 
    9.7442095227668268E+00 
    7.7373269310943291E+00 
    1.5353544386848565E+01 
    9.5812119658828578E+00 
    1.1998128955676831E+01 
    6.1940096759757290E+00 
    9.1659401108710092E+00 
    1.2495614332379290E+01 
    7.7670542172276456E+00 
    6.4628956560725701E+00 
    1.0002047758867198E+01 
    1.2711529314630205E+01 
    6.6520869983646103E+00 
    8.5939354900943830E+00 
    8.9433184096291569E+00 
    1.2265254952984430E+01 
    8.7532573857522920E+00 
    1.2683284884754551E+01 
    1.3254012318008506E+01 
    7.7821712318449050E+00 
    7.6223055111528017E+00 
    7.2208806481314696E+00 
    1.2390682492871502E+01 
    9.3983494881810117E+00 
    1.4935382193429884E+01 
    1.1689778232038297E+01 
    1.2457542964710759E+01 
    1.4634808594383678E+01 
    1.4051876758429060E+01 
    9.2127967016839794E+00 
    9.0587132846706631E+00 
    1.2082378537403859E+01 
    1.2320627960311857E+01 
    1.2777493840138332E+01 
    1.2544037310908534E+01 
    1.5243080710205584E+01 
    9.5378882433104675E+00 
    7.8724981314430718E+00 
    9.5114773409374909E+00 
    1.3174187067058774E+01 
    9.3041737286499266E+00 
    5.3565001339597229E+00 
    8.9468066902253796E+00 
    1.3564726004139782E+01 
    9.4295534124869747E+00 
    7.8822897591714112E+00 
    8.8790666404097713E+00 
    1.3668525696348317E+01 
    1.2317983986067507E+01 
    7.4711699960991655E+00 
    1.3796964596292575E+01 
    9.2408569037131070E+00 
    1.2778028981775444E+01 
    1.3680531485465492E+01 
    9.5963164281147026E+00 
    4.7511465902685082E+00 
    9.9723830191588956E+00 
    4.9164950564243695E+00 
    9.3500445620912327E+00 
    9.1548113915576881E+00 
    1.0493149879020393E+01 
    5.1995389916743866E+00 
    1.1136664467779186E+01 
    9.1781512113125547E+00 
    1.2535360873218156E+01 
    9.5661585176168291E+00 
    7.2884575045653666E+00 
    8.7647890170987299E+00 
    9.6171411196533860E+00 
    9.6324082584287396E+00 
    1.3296536827682246E+01 
    7.5145140109484254E+00 
    7.3829926785602291E+00 
    5.4725677136376252E+00 
    1.2803220888853389E+01 
    8.8017552678217594E+00 
    1.2130748813103402E+01 
    9.1258493952057922E+00 
    5.9953957844067132E+00 
    1.2342558348024056E+01 
    9.0988452518166802E+00 
    6.5503431341625955E+00 
    6.9498395904213996E+00 
    7.2022022201094158E+00 
    1.2562256026897675E+01 
    9.0753658843510792E+00 
    1.3146175469407590E+01 
    9.0526787383926255E+00 
    8.9812495918086785E+00 
    8.5147325536743814E+00 
    1.2417028797408522E+01 
    8.8911724773306666E+00 
    7.2405179940683224E+00 
    1.4039897306798986E+01 
    1.2489199110553068E+01 
    6.3112369927257763E+00 
    2.4246036520123559E+00 
    9.0646961490312652E+00 
    8.5221026680516161E+00 
    7.6160788317572390E+00 
    8.3301442249289934E+00 
    1.2467956228025434E+01 
    8.7851747114809253E+00 
    7.9270456976327264E+00 
    1.2339967772868709E+01 
    6.2537200953104453E+00 
    1.2046674020265645E+01 
    8.2384372645109210E+00 
    7.1756147399729864E+00 
    7.6910619823539834E+00 
    1.2856183486833586E+01 
    9.1450756471245516E+00 
    9.1534090354575692E+00 
    5.2792345021910982E+00 
    5.7152981252133426E+00 
    1.1434001929042525E+01 
    9.1634651683228139E+00 
    9.1077010799517950E+00 
    1.3782791352523581E+01 
    7.3844209426817935E+00 
    9.1756207091590021E+00 
    6.4692530938521706E+00 
    6.6743316588569419E+00 
    1.2409454606699716E+01 
    8.7848938031763115E+00 
    6.3134431076395634E+00 
    9.6251685102448423E+00 
    9.0264506131546298E+00 
    1.2412701194731023E+01 
    1.3870919666172412E+01 
    9.3257697827700370E-01 
    9.0694722532590699E+00 
    9.3909211178840817E+00 
    1.2471573509238791E+01 
    8.5732107810591742E+00 
    9.1181188248709759E+00 
    1.3343866772821235E+01 
    7.7233101537722293E+00 
    6.3707959732064436E+00 
    1.1041291809007095E+01 
    1.2299314319367213E+01 
    1.3226361097509479E+01 
    1.3479840007905418E+01 
    8.9161469397477688E+00 
    9.0615646216835923E+00 
    1.0253969895268611E+01 
    5.9925032002194749E+00 
    1.2412817361443562E+01 
    6.8745317946706734E+00 
    6.2444964748755556E+00 
    1.1411346740244973E+01 
    1.0739109458451694E+01 
    6.1224179161098684E+00 
    1.2331178584330765E+01 
    1.3213181550536747E+01 
    9.5520159430306020E+00 
    1.3967331848922225E+01 
    1.2360124162444833E+01 
    8.6497404240217453E+00 
    1.2972088322595839E+01 
    6.6784629551478449E+00 
    1.2315683261802699E+01 
    9.0686234422884429E+00 
    9.0292558629937396E+00 
    1.3942556169520799E+01 
    8.8316801789233512E+00 
    1.1149666721957965E+01 
    7.6768386072553998E+00 
    1.3322616298657858E+01 
    1.2233261300462484E+01 
    8.0180286372018301E+00 
    1.2278249338381453E+01 
    8.2482876241469061E+00 
    9.1286380092491957E+00 
    1.3176095408038137E+01 
    1.2536959089788699E+01 
    1.3216223264756573E+01 
    1.2474295645802902E+01 
    8.2127373475294192E+00 
    8.4223185737245458E+00 
    1.3222404357736826E+01 
    8.5390730850145129E+00 
    1.2174515830040795E+01 
    8.8232307335186846E+00 
    3.5595782596305252E+00 
    6.3127835942125632E+00 
    5.8391883871499486E+00 
    1.3179216567507288E+01 
    1.3876428374123508E+01 
    1.2294435125964823E+01 
    1.0591597121215029E+01 
    1.2549080418475347E+01 
    1.2337728688171664E+01 
    1.2862450201297255E+01 
    5.0956833209405605E+00 
    3.3197604437102335E+00 
    1.0398955189170817E+01 
    8.7253213328427801E+00 
    1.2469294349120206E+01 
    1.2467039377533018E+01 
    9.4072766678604243E+00 
    1.2500217263741538E+01 
    9.0560891056949551E+00 
    8.9541898284592314E+00 
    4.5989257464169588E+00 
    3.3065680154300532E+00 
    1.3665604119676550E+01 
    7.0917133925030953E+00 
    7.9621221694342408E+00 
    9.3131012554277888E+00 
    1.5225238374125377E+01 
    9.3994242726507373E+00 
    9.3350821307126424E+00 
    3.7601881338335965E+00 
    9.4000222023376363E+00 
    9.4124072074456304E+00 
    1.2750674871411251E+01 
    7.6951793782578752E+00 
    8.7027694939614957E+00 
    1.3824032948299999E+01 
    9.0780119347380666E+00 
    1.2308461633917531E+01 
    1.2536512054953464E+01 
    1.1274688804011667E+01 
    7.7051427119815372E+00 
    1.2473599466575827E+01 
    8.8711152349693432E+00 
    1.2484102511570878E+01 
    1.2253135085573788E+01 
    1.3196826140678683E+01 
    1.2473124497510520E+01 
    1.1737106664363814E+01 
    9.0668190351495426E+00 
    6.0751449902968053E+00 
    1.5100929771642887E+01 
    7.0164524266270014E+00 
    1.3135008143370497E+01 
    9.0642320231143909E+00 
    7.4223496103456599E+00 
    4.4485750674706956E+00 
    9.4437318269575634E+00 
    1.2462096020334442E+01 
    1.2457966616138002E+01 
    9.1082194886822823E+00 
    9.0584135692011554E+00 
    1.4021358850942654E+01 
    1.3426260062567103E+01 
    9.4162671962998949E+00 
    3.0899918819585039E+00 
    1.1708958830067969E+01 
    1.5351618911167622E+01 
    9.0701492350675856E+00 
    1.0924421524665037E+01 
    8.5692496572072088E+00 
    1.4961967089345237E+01 
    1.3499590559341486E+01 
    1.3248896790150930E+01 
    9.4360633184324083E+00 
    4.1458145021757797E+00 
    8.5289787320461468E+00 
    8.5948658500540152E+00 
    8.6406697175446894E+00 
    3.3607037106661939E+00 