# vtk DataFile Version 2.0
Pressure Field Data 
ASCII 
DATASET UNSTRUCTURED_GRID 

POINTS 2860 double 

    0.0000000000000000E+00     0.0000000000000000E+00     0.0000000000000000E+00 
    1.0000000000000000E+00     0.0000000000000000E+00     0.0000000000000000E+00 
    1.0000000000000000E+00     1.0000000000000000E+00     0.0000000000000000E+00 
    0.0000000000000000E+00     1.0000000000000000E+00     0.0000000000000000E+00 
    2.5000000000000000E-01     2.5000000000000000E-01     0.0000000000000000E+00 
    7.5000000000000000E-01     2.5000000000000000E-01     0.0000000000000000E+00 
    7.5000000000000000E-01     7.5000000000000000E-01     0.0000000000000000E+00 
    2.5000000000000000E-01     7.5000000000000000E-01     0.0000000000000000E+00 
    3.1249999999942091E-02     0.0000000000000000E+00     0.0000000000000000E+00 
    6.2499999999873469E-02     0.0000000000000000E+00     0.0000000000000000E+00 
    9.3749999999826514E-02     0.0000000000000000E+00     0.0000000000000000E+00 
    1.2499999999977961E-01     0.0000000000000000E+00     0.0000000000000000E+00 
    1.5624999999968961E-01     0.0000000000000000E+00     0.0000000000000000E+00 
    1.8749999999959971E-01     0.0000000000000000E+00     0.0000000000000000E+00 
    2.1874999999950970E-01     0.0000000000000000E+00     0.0000000000000000E+00 
    2.4999999999941969E-01     0.0000000000000000E+00     0.0000000000000000E+00 
    2.8124999999932920E-01     0.0000000000000000E+00     0.0000000000000000E+00 
    3.1249999999923850E-01     0.0000000000000000E+00     0.0000000000000000E+00 
    3.4374999999914790E-01     0.0000000000000000E+00     0.0000000000000000E+00 
    3.7499999999905720E-01     0.0000000000000000E+00     0.0000000000000000E+00 
    4.0624999999896660E-01     0.0000000000000000E+00     0.0000000000000000E+00 
    4.3749999999887590E-01     0.0000000000000000E+00     0.0000000000000000E+00 
    4.6874999999878530E-01     0.0000000000000000E+00     0.0000000000000000E+00 
    4.9999999999869471E-01     0.0000000000000000E+00     0.0000000000000000E+00 
    5.3124999999877620E-01     0.0000000000000000E+00     0.0000000000000000E+00 
    5.6249999999885780E-01     0.0000000000000000E+00     0.0000000000000000E+00 
    5.9374999999893940E-01     0.0000000000000000E+00     0.0000000000000000E+00 
    6.2499999999902101E-01     0.0000000000000000E+00     0.0000000000000000E+00 
    6.5624999999910261E-01     0.0000000000000000E+00     0.0000000000000000E+00 
    6.8749999999918421E-01     0.0000000000000000E+00     0.0000000000000000E+00 
    7.1874999999926570E-01     0.0000000000000000E+00     0.0000000000000000E+00 
    7.4999999999934730E-01     0.0000000000000000E+00     0.0000000000000000E+00 
    7.8124999999942890E-01     0.0000000000000000E+00     0.0000000000000000E+00 
    8.1249999999951039E-01     0.0000000000000000E+00     0.0000000000000000E+00 
    8.4374999999959199E-01     0.0000000000000000E+00     0.0000000000000000E+00 
    8.7499999999967359E-01     0.0000000000000000E+00     0.0000000000000000E+00 
    9.0624999999975520E-01     0.0000000000000000E+00     0.0000000000000000E+00 
    9.3749999999983680E-01     0.0000000000000000E+00     0.0000000000000000E+00 
    9.6874999999991840E-01     0.0000000000000000E+00     0.0000000000000000E+00 
    1.0000000000000000E+00     3.1249999999942091E-02     0.0000000000000000E+00 
    1.0000000000000000E+00     6.2499999999873469E-02     0.0000000000000000E+00 
    1.0000000000000000E+00     9.3749999999826514E-02     0.0000000000000000E+00 
    1.0000000000000000E+00     1.2499999999977961E-01     0.0000000000000000E+00 
    1.0000000000000000E+00     1.5624999999968961E-01     0.0000000000000000E+00 
    1.0000000000000000E+00     1.8749999999959971E-01     0.0000000000000000E+00 
    1.0000000000000000E+00     2.1874999999950970E-01     0.0000000000000000E+00 
    1.0000000000000000E+00     2.4999999999941969E-01     0.0000000000000000E+00 
    1.0000000000000000E+00     2.8124999999932920E-01     0.0000000000000000E+00 
    1.0000000000000000E+00     3.1249999999923850E-01     0.0000000000000000E+00 
    1.0000000000000000E+00     3.4374999999914790E-01     0.0000000000000000E+00 
    1.0000000000000000E+00     3.7499999999905720E-01     0.0000000000000000E+00 
    1.0000000000000000E+00     4.0624999999896660E-01     0.0000000000000000E+00 
    1.0000000000000000E+00     4.3749999999887590E-01     0.0000000000000000E+00 
    1.0000000000000000E+00     4.6874999999878530E-01     0.0000000000000000E+00 
    1.0000000000000000E+00     4.9999999999869471E-01     0.0000000000000000E+00 
    1.0000000000000000E+00     5.3124999999877620E-01     0.0000000000000000E+00 
    1.0000000000000000E+00     5.6249999999885780E-01     0.0000000000000000E+00 
    1.0000000000000000E+00     5.9374999999893940E-01     0.0000000000000000E+00 
    1.0000000000000000E+00     6.2499999999902101E-01     0.0000000000000000E+00 
    1.0000000000000000E+00     6.5624999999910261E-01     0.0000000000000000E+00 
    1.0000000000000000E+00     6.8749999999918421E-01     0.0000000000000000E+00 
    1.0000000000000000E+00     7.1874999999926570E-01     0.0000000000000000E+00 
    1.0000000000000000E+00     7.4999999999934730E-01     0.0000000000000000E+00 
    1.0000000000000000E+00     7.8124999999942890E-01     0.0000000000000000E+00 
    1.0000000000000000E+00     8.1249999999951039E-01     0.0000000000000000E+00 
    1.0000000000000000E+00     8.4374999999959199E-01     0.0000000000000000E+00 
    1.0000000000000000E+00     8.7499999999967359E-01     0.0000000000000000E+00 
    1.0000000000000000E+00     9.0624999999975520E-01     0.0000000000000000E+00 
    1.0000000000000000E+00     9.3749999999983680E-01     0.0000000000000000E+00 
    1.0000000000000000E+00     9.6874999999991840E-01     0.0000000000000000E+00 
    9.6875000000003686E-01     1.0000000000000000E+00     0.0000000000000000E+00 
    9.3750000000011691E-01     1.0000000000000000E+00     0.0000000000000000E+00 
    9.0625000000015765E-01     1.0000000000000000E+00     0.0000000000000000E+00 
    8.7500000000017863E-01     1.0000000000000000E+00     0.0000000000000000E+00 
    8.4375000000028044E-01     1.0000000000000000E+00     0.0000000000000000E+00 
    8.1250000000040856E-01     1.0000000000000000E+00     0.0000000000000000E+00 
    7.8125000000054956E-01     1.0000000000000000E+00     0.0000000000000000E+00 
    7.5000000000066480E-01     1.0000000000000000E+00     0.0000000000000000E+00 
    7.1875000000086831E-01     1.0000000000000000E+00     0.0000000000000000E+00 
    6.8750000000102829E-01     1.0000000000000000E+00     0.0000000000000000E+00 
    6.5625000000114431E-01     1.0000000000000000E+00     0.0000000000000000E+00 
    6.2500000000129829E-01     1.0000000000000000E+00     0.0000000000000000E+00 
    5.9375000000147926E-01     1.0000000000000000E+00     0.0000000000000000E+00 
    5.6250000000168354E-01     1.0000000000000000E+00     0.0000000000000000E+00 
    5.3125000000188671E-01     1.0000000000000000E+00     0.0000000000000000E+00 
    5.0000000000205835E-01     1.0000000000000000E+00     0.0000000000000000E+00 
    4.6875000000192979E-01     1.0000000000000000E+00     0.0000000000000000E+00 
    4.3750000000180111E-01     1.0000000000000000E+00     0.0000000000000000E+00 
    4.0625000000167238E-01     1.0000000000000000E+00     0.0000000000000000E+00 
    3.7500000000154382E-01     1.0000000000000000E+00     0.0000000000000000E+00 
    3.4375000000141509E-01     1.0000000000000000E+00     0.0000000000000000E+00 
    3.1250000000128642E-01     1.0000000000000000E+00     0.0000000000000000E+00 
    2.8125000000115769E-01     1.0000000000000000E+00     0.0000000000000000E+00 
    2.5000000000102918E-01     1.0000000000000000E+00     0.0000000000000000E+00 
    2.1875000000090050E-01     1.0000000000000000E+00     0.0000000000000000E+00 
    1.8750000000077180E-01     1.0000000000000000E+00     0.0000000000000000E+00 
    1.5625000000064329E-01     1.0000000000000000E+00     0.0000000000000000E+00 
    1.2500000000051459E-01     1.0000000000000000E+00     0.0000000000000000E+00 
    9.3750000000385914E-02     1.0000000000000000E+00     0.0000000000000000E+00 
    6.2500000000257239E-02     1.0000000000000000E+00     0.0000000000000000E+00 
    3.1250000000128557E-02     1.0000000000000000E+00     0.0000000000000000E+00 
    0.0000000000000000E+00     9.6875000000003686E-01     0.0000000000000000E+00 
    0.0000000000000000E+00     9.3750000000011691E-01     0.0000000000000000E+00 
    0.0000000000000000E+00     9.0625000000015765E-01     0.0000000000000000E+00 
    0.0000000000000000E+00     8.7500000000017863E-01     0.0000000000000000E+00 
    0.0000000000000000E+00     8.4375000000028044E-01     0.0000000000000000E+00 
    0.0000000000000000E+00     8.1250000000040856E-01     0.0000000000000000E+00 
    0.0000000000000000E+00     7.8125000000054956E-01     0.0000000000000000E+00 
    0.0000000000000000E+00     7.5000000000066480E-01     0.0000000000000000E+00 
    0.0000000000000000E+00     7.1875000000086831E-01     0.0000000000000000E+00 
    0.0000000000000000E+00     6.8750000000102829E-01     0.0000000000000000E+00 
    0.0000000000000000E+00     6.5625000000114431E-01     0.0000000000000000E+00 
    0.0000000000000000E+00     6.2500000000129829E-01     0.0000000000000000E+00 
    0.0000000000000000E+00     5.9375000000147926E-01     0.0000000000000000E+00 
    0.0000000000000000E+00     5.6250000000168354E-01     0.0000000000000000E+00 
    0.0000000000000000E+00     5.3125000000188671E-01     0.0000000000000000E+00 
    0.0000000000000000E+00     5.0000000000205835E-01     0.0000000000000000E+00 
    0.0000000000000000E+00     4.6875000000192979E-01     0.0000000000000000E+00 
    0.0000000000000000E+00     4.3750000000180111E-01     0.0000000000000000E+00 
    0.0000000000000000E+00     4.0625000000167238E-01     0.0000000000000000E+00 
[...]
CELL_DATA 2795 
SCALARS Pressure double 1 
LOOKUP_TABLE default 

    7.3488430861193086E+00 
    1.6628457105998827E+01 
    1.1648367093894574E+01 
    1.1307250911487543E+01 
    9.0152484711119705E+00 
    1.6471477909463555E+01 
    1.7289128032922235E+01 
    6.5711160126225554E+00 
    1.2201609638237093E+01 
    9.3850286717686977E+00 
    8.0048670332369127E+00 
    1.6179065975505647E+01 
    1.6531732996119587E+01 
    1.6436081476435199E+01 
    1.0741233167239136E+01 
    6.4620450263843940E+00 
    1.0413780405573631E+01 
    8.5235235492691022E+00 
    1.5761121314470815E+01 
    1.1630137641112441E+01 
    1.1526749405364425E+01 
    1.6361170390558588E+01 
    1.1001771324926398E+01 
    4.2892207548145128E-01 
    1.6169002151580361E+01 
    1.6491824750579230E+01 
    1.7323405175706650E+01 
    7.7171347809758712E+00 
    1.6088171498253633E+01 
    1.7314167734846521E+01 
    1.1780801221891869E+01 
    1.1834123561426601E+01 
    8.3932347138901378E+00 
    1.1611524436518829E+01 
    3.7774082778645557E+00 
    1.0418817170791344E+01 
    1.1597312172182498E+01 
    1.7357232458341649E+01 
    1.7263380386233216E+01 
    1.6193490843063465E+01 
    8.9919898811770640E+00 
    1.6161540196318757E+01 
    8.9118591105094447E-01 
    1.1578316269910156E+01 
    1.7068903241334240E+01 
    1.6828432437909832E+01 
    1.6166969837329269E+01 
    1.2643444320606896E+01 
    1.6232742157889341E+01 
    1.0652408109988810E+01 
    1.0151686197094035E+01 
    1.1798230250825826E+01 
    1.1466642145721529E+01 
    1.0479352177382610E+01 
    1.1854417421765330E+01 
    1.5518959242758877E+01 
    1.3677894716687129E+01 
    9.0633574922916154E+00 
    1.6367072303629065E+01 
    1.6276719118491542E+01 
    1.1276793993850365E+01 
    1.1207731245581133E+01 
    1.1196137831087769E+01 
    1.7206355832289912E+01 
    1.7496200740334853E+01 
    1.0428323341608692E+01 
    1.1796721610480777E+01 
    1.5985836181058371E+01 
    1.3666947039560272E+01 
    1.1261365287061999E+01 
    1.7496101972904903E+01 
    1.6315727248344608E+01 
    1.0279351075440484E+01 
    1.6954309265019624E+01 
    1.2106046313445615E+01 
    1.6004026089602213E+01 
    1.7369882766606896E+01 
    1.2200877396465923E+01 
    7.4882828546029838E+00 
    1.1814868350631597E+01 
    1.7273632495254070E+01 
    1.7526363887173812E+01 
    1.0440239966421077E+01 
    1.1740936544115504E+01 
    1.7577855334866584E+01 
    1.1596401892914512E+01 
    1.1100463453604821E+01 
    1.4165900283345994E+01 
    7.1632129568683673E+00 
    1.0177818450983695E+01 
    1.1738226642388309E+01 
    1.2359696018042722E+01 
    1.9141716069166158E+01 
    8.7642265952225262E+00 
    1.1804565418114930E+01 
    1.6141838587161622E+01 
    1.6475297190535073E+01 
    7.7353448236459119E+00 
    1.1457461506592379E+01 
    1.1771851144683536E+01 
    1.6499621027616737E+01 
    1.1762982218033619E+01 
    1.6419274639527885E+01 
    4.6931508606588217E+00 
    7.7841192160151840E+00 
    1.2021927855969063E+01 
    1.6636811061260602E+01 
    1.0378471060414551E+01 
    1.1025378527709959E+01 
    1.1741796833317133E+01 
    1.1061338971589251E+01 
    1.3264772199168537E+01 
    1.0732736961251003E+01 
    1.0290157010712351E+01 
    8.2177708116641330E+00 
    1.3962260250642641E+01 
    1.1839429020175469E+01 
    1.7108811454051125E+01 
    1.0180280042233088E+01 
    1.1284665491619732E+01 
    1.6304726209058874E+01 
    9.4592133011239437E+00 
    1.6808529892832055E+01 
    1.1669228505676765E+01 
    1.1206060805900602E+01 
    1.6478389701116665E+01 
    1.1827197575061769E+01 
    1.7384150136851868E+01 
    1.4196804299259817E+01 
    1.5334686742456910E+01 
    1.7341813331442101E+01 
    8.7815099992932328E+00 
    1.2044694282746269E+01 
    1.6476872537997963E+01 
    3.5034447876781258E+00 
    1.1831377540844958E+01 
    1.7304669363440418E+01 
    1.1237480148491985E+01 
    1.2972613828515360E+01 
    7.7065747686654458E+00 
    1.6138813738505998E+01 
    1.9655519532801431E+01 
    1.4746654448908883E+01 
    1.1238126739932774E+01 
    1.0063214757719084E+01 
    1.2541851179524777E+01 
    1.1686142530260733E+01 
    8.0919437100892768E+00 
    1.7337574858152443E+01 
    1.6502841548398891E+01 
    1.6143715835541414E+01 
    1.2360062648331803E+01 
    1.0252606914587741E+01 
    1.1523342357328776E+01 
    1.6991190113481064E+01 
    1.0538478524905520E+01 
    1.1767894198096819E+01 
    1.0727291093565487E+01 
    1.3661636513268745E+01 
    1.9643118222155763E+01 
    1.6134180986524964E+01 
    1.0269434434023289E+01 
    1.6694940942115942E+01 
    1.6591948624722509E+01 
    1.6680510913990723E+01 
    1.7793635292973079E+01 
    1.8376855538160989E+01 
    1.6821203118909665E+01 
    1.1788463818880260E+01 
    1.2788531836819287E+01 
    1.6635735048233585E+01 
    1.7122052117009613E+01 
    8.4496583209300162E+00 
    1.6166465885253363E+01 
    1.6950566508623503E+01 
    8.2211821210118678E+00 
    1.7707429889836174E+01 
    1.7683039777692230E+01 
    1.5839924293761101E+01 
    1.2120533236260274E+01 
    3.0764355016895530E+00 
    1.7306055799391096E+01 
    1.1961884790754064E+01 
    1.7438344768870589E+01 
    1.1157781992617624E+01 
    1.7114618819473240E+01 
    1.1018593833736194E+00 
    1.5340782789743551E+01 
    1.1256379202881151E+01 
    1.0198542525593425E+01 
    9.9425297059681679E+00 
    1.1637602235262170E+01 
    1.2848669509534711E+01 
    1.2248293421207732E+01 
    8.2962014245099809E+00 
    1.7115948193815420E+01 
    1.6502488720500793E+01 
    1.3777458669814072E+01 
    1.2014123138401706E+01 
    1.7798914973129101E+00 
    9.1819091051549240E+00 
    6.3956625834984813E+00 
    1.7325110072089455E+01 
    1.3048172407100136E+01 
    1.6529643242859304E+01 
    1.6577339173622644E+01 
    1.0625825327508217E+01 
    1.3629122215479462E+01 
    1.6138087554146296E+01 
    1.7664822267685775E+01 
    7.6922436528027349E+00 
    1.4605697018455745E+01 
    1.2231204345104791E+01 
    6.8145144640461091E+00 
    1.0618017338521083E+01 
    1.4278938279131273E+01 
    1.6534172288314586E+01 
    1.1688909804780621E+01 
    1.6656554985154600E+01 
    1.6395866573083694E+01 
    1.6338003152886223E+01 
    1.1528113081453142E+01 
    1.0119543293896154E+01 
    1.6152525964967293E+01 
    1.0276161882206248E+01 
    1.1770969886689320E+01 
    1.0073055339946704E+01 
    1.1717724538365509E+01 
    1.6588030639618978E+01 
    7.3241014243954128E+00 
    1.0512266369722154E+01 
    1.7232622214266307E+01 
    1.1537146369601198E+01 
    1.2942465258250490E+01 
    7.5133931091881010E+00 
    1.0346028697166680E+01 
    1.6371233450445182E+01 
    1.6718373829195500E+01 
    6.1364256295348660E+00 
    1.1548461376804843E+01 
    1.0141843958044591E+01 
    1.8126068630389351E+01 
    1.7536037794709483E+01 
    1.8407384414970540E+01 
    1.1568432535965476E+01 
    1.6557239726556400E+01 
    1.6085876963558650E+01 
    1.1425620115717722E+01 
    1.6144215830825306E+01 
    1.2015536882840982E+01 
    6.8942313543833578E+00 
    1.1906176017945704E+01 
    1.7215207495466164E+01 
    1.6140584361546935E+01 
    7.9705238034950625E+00 
    1.6174548699787163E+01 
    1.2875814827730334E+01 
    1.1809049043759268E+01 
    1.1318645560479196E+01 
    1.5986835905696736E+01 
    1.2372097688213669E+01 
    1.6158724912618975E+01 
    1.1504450132028726E+01 
    7.1153984109113519E+00 
    1.1849217860029588E+01 
    9.9563110102451766E+00 
    1.4767457794915096E+01 
    1.7437689621965486E+01 
    1.6150379584547320E+01 
    1.7297807737226684E+01 
    1.1479167098470555E+01 
    7.7574834514140933E+00 
    7.8661567558117254E+00 
    1.2011263638090833E+01 
    1.1743471796229462E+01 
    1.7124394587568252E+00 
    1.5567774416944021E+01 
    1.7830298560433047E+01 
    1.1174619754252539E+01 
    7.2014034841214123E+00 
    1.3591786125559420E+01 
    1.6172554674882726E+01 
    8.5035348402457984E+00 
    5.7864373563702793E+00 
    1.1726726993007832E+01 
    1.6254374495619373E+01 
    1.7010030706937574E+01 
    1.6871792956261189E+01 
    1.6721408985159922E+01 
    8.3706380431735763E+00 
    1.1803796600384139E+01 
    1.5634804337577197E+01 
    9.2116255321291689E+00 
    1.6516900030024214E+01 
    1.3881117762033249E+01 
    7.9838090122541994E+00 
    1.6284342480883211E+01 
    1.7332788185618124E+01 
    1.6317741653284557E+01 
    8.1866484473426766E+00 
    1.1792829590776710E+01 
    8.9862562532131598E+00 
    1.1137990574775836E+01 
    1.6163057705194237E+01 
    1.6149486965845174E+01 
    8.2336934866159073E+00 
    1.7161783476832571E+01 
    1.2373538501062139E+01 
    1.6183434869224101E+01 
    1.7132899987699993E+01 
    1.6170633895226622E+01 
    1.5019490007490107E+01 
    1.8188248714740407E+01 
    1.1118698854096106E+01 
    1.7263311198662191E+01 
    1.6213260877804352E+01 
    1.7344513363263300E+01 
    1.7154789704485754E+01 
    1.1233202829927658E+01 
    1.1637539222728783E+01 
    1.1164076608476318E+01 
    1.4414935976870842E+01 
    4.7137218526366205E+00 
    1.1940795893315620E+01 
    1.8321705543730499E+01 
    1.2018451022873883E+01 
    1.2231161289081394E+01 
    1.7314750189627699E+01 
    1.7566907353970080E+01 
    1.1023791885730894E+01 
    1.6179502907634379E+01 
    1.6144937990273494E+01 
    1.2216842686532612E+01 
    1.7105095705864450E+01 
    8.3840112120046921E+00 
    5.3584327530948945E+00 
    1.2539887304225351E+01 
    1.2032050769302611E+01 
    1.6151036476041735E+01 
    7.7087184790467278E+00 
    1.6781148931955222E+01 
    5.4490627916682364E+00 
    1.1966778128242575E+01 
    1.1254054264535181E+01 
    1.1769793977374514E+01 
    1.9695743354157567E+01 
    4.5681381931820519E+00 
    1.1850276676522025E+01 
    1.4201016201737813E+01 
    1.1369057215100813E+01 
    9.1763611027930949E+00 
    1.6916684971079466E+01 
    1.9234067977804560E+01 
    1.7079661203030867E+01 
    1.1783297491913430E+01 
    6.7758790623120282E+00 
    1.9077500543228648E+01 
    1.6491816154664697E+01 
    8.6970727340533287E+00 
    1.1408524009946383E+01 
    1.7775177406578891E+01 
    3.8896532194001012E+00 
    1.2090811566347904E+01 
    1.7057054229060043E+01 
    1.1784854858122403E+01 
    1.0276162710847700E+01 
    1.1893986567221877E+01 
    1.5820544193305173E+01 
    1.1767013322055959E+01 
    6.0359688127681537E+00 
    1.0766497541671380E+00 
    8.7936077552459153E+00 
    1.8019052415495658E+01 
    1.1163481526361906E+01 
    1.3248374989705090E+01 
    1.2701409718540315E+01 
    1.4616867784457870E+01 
    1.1798444494089029E+01 
    1.6388635329364543E+01 
    1.9710575677991994E+01 
    1.4079360098093783E+01 
    1.7232492183399984E+01 
    6.3897661543826700E-01 
    1.6151772880990954E+01 
    6.6585948744651633E+00 
    1.8501075265348632E+01 
    1.1865234993678097E+01 
    1.0477396254833256E+01 
    9.1628645462424938E+00 
    6.3327736774167134E+00 
    1.3201652469277468E+01 
    9.3291102607171474E+00 
    1.4647991985652983E+01 
    2.5901785419970849E+00 
    1.2917784234547796E+01 
    1.6072434908820291E+01 
    7.1498298165014367E+00 
    1.6663646686994706E+01 
    1.8283608402094277E+01 
    1.6495986114505421E+01 
    1.1714325648425776E+01 
    1.1763830094762296E+01 
    1.1857283173893114E+01 
    6.8615721539725145E+00 
    1.0855063695454618E+01 
    1.0674109511234256E+01 
    1.1845175194204320E+01 
    1.1083781162124831E+01 
    8.1266191916721175E-01 
    7.6213530907878990E+00 
    1.1539988769994212E+01 
    1.1817117846067722E+01 
    1.5049820398737539E+01 
    2.5525053467714733E+00 
    1.2170816372580054E+01 
    1.2039655175693044E+01 
    4.4018114395226071E+00 
    1.6344643396857009E+01 
    1.0296423550377806E+01 
    1.1897251364532508E+01 
    1.6489119335542373E+01 
    6.3590857876286613E+00 
    1.6466388699420584E+01 
    1.0431308394809196E+01 
    1.1613611834545763E+00 
    1.1235143076575621E+01 
    1.7179680437290237E+01 
    1.6151560223570470E+01 
    1.6172101924641890E+01 
    1.2233673020061776E+01 
    1.1969799721824895E+01 
    1.0271184848977560E+01 
    8.3080541041953815E+00 
    1.6615010797193243E+01 
    1.1402907143840245E+01 
    8.0678010007644474E+00 
    1.6167440208625141E+01 
    1.6942520366477201E+01 
    1.2038003305305276E+01 
    1.1585264098697470E+01 
    1.9583696826346323E+01 
    1.2217930383863633E+01 
    1.6632240167292842E+01 
    9.7737697633699874E+00 
    1.9739497139387588E+01 
    7.8206899193124189E+00 
    1.0734530353028736E+01 
    8.7591792961146986E+00 
    1.2483183348557578E+01 
    1.0038964576562330E+01 
    1.9722493498572387E+01 
    1.2272993252202518E+01 
    1.5772168496672171E+01 
    8.0424084851475399E+00 
    1.1793083716142133E+01 
    1.6453169808640556E+01 
    1.0081357694264215E+01 
    8.7157904592558140E+00 
    1.3213134105237268E+01 
    1.6698688412281044E+01 
    8.6240129501075611E+00 
    1.1278149829483038E+01 
    1.1621293668815165E+01 
    1.6123523127507685E+01 
    1.1396319347430863E+01 
    1.6677736429004291E+01 
    1.7376441348056556E+01 
    1.0305039204362297E+01 
    1.0103990971043178E+01 
    9.3477597262871441E+00 
    1.6282736913243077E+01 
    1.2070046609426862E+01 
    1.9274821955944269E+01 
    1.5073831770777476E+01 
    1.6407387506067366E+01 
    1.8943613315238213E+01 
    1.8290267688802786E+01 
    1.1839893609601637E+01 
    1.1828277378230384E+01 
    1.5869066855109589E+01 
    1.6195383177391264E+01 
    1.6810420099554747E+01 
    1.6515474747865898E+01 
    1.9607392546448771E+01 
    1.2217379127190874E+01 
    1.0420594074633000E+01 
    1.2210600128630530E+01 
    1.7279996817699036E+01 
    1.1934806545940553E+01 
    6.9875207278676532E+00 
    1.1696270024808491E+01 
    1.7741579306315021E+01 
    1.2079685656173256E+01 
    1.0433624533509422E+01 
    1.1562061016193583E+01 
    1.7861895329678546E+01 
    1.6227434463760137E+01 
    9.9544201057611712E+00 
    1.8009727540688743E+01 
    1.1868231473870386E+01 
    1.6795127798754887E+01 
    1.7875826098993745E+01 
    1.2547515995395345E+01 
    6.3661786134228278E+00 
    1.3080117505037661E+01 
    6.5835861500541215E+00 
    1.1984544080600418E+01 
    1.1789206106252349E+01 
    1.3803369829519635E+01 
    6.9661590084470815E+00 
    1.4667872389938818E+01 
    1.1805797512337728E+01 
    1.6504035832700215E+01 
    1.2638475164935439E+01 
    9.7878825435164138E+00 
    1.1419106279292341E+01 
    1.2405613030241998E+01 
    1.2336325563725874E+01 
    1.7429499946718419E+01 
    9.9582786840269968E+00 
    9.7889870185959218E+00 
    7.3394329624502914E+00 
    1.6839086138936842E+01 
    1.1467212998950197E+01 
    1.5983871055886453E+01 
    1.1758053859474350E+01 
    8.0344498932304962E+00 
    1.6259454498742866E+01 
    1.1734736020085171E+01 
    8.7428376239317807E+00 
    9.2439619848565489E+00 
    9.5620910635144281E+00 
    1.6539307541834912E+01 
    1.1847382634137883E+01 
    1.7245926899061192E+01 
    1.1695339511492042E+01 
    1.1634888970645758E+01 
    1.1187383258550149E+01 
    1.6355749000145284E+01 
    1.1549649300581397E+01 
    9.6058781127844703E+00 
    1.8278538996537826E+01 
    1.6448655420931207E+01 
    8.1908204656253325E+00 
    3.2193803814947879E+00 
    1.1835898950407456E+01 
    1.1090876384559804E+01 
    1.0088818407543767E+01 
    1.0964227735992239E+01 
    1.6386062273832444E+01 
    1.1508696192729774E+01 
    1.0481819357755214E+01 
    1.6220345566763118E+01 
    8.1202825893696815E+00 
    1.5826390599812504E+01 
    1.0701297914327707E+01 
    9.6168917579751376E+00 
    1.0186115921464642E+01 
    1.6889990461044896E+01 
    1.1772368043751978E+01 
    1.1780749015735097E+01 
    7.0581301977016357E+00 
    7.6270605950599935E+00 
    1.4941387360432985E+01 
    1.1790584568921490E+01 
    1.1879970881403020E+01 
    1.7995644784260588E+01 
    9.7932294819738690E+00 
    1.1802815805056149E+01 
    8.4000570002461767E+00 
    8.6717287212054384E+00 
    1.6344613797051153E+01 
    1.1424200880363763E+01 
    8.4048559160690477E+00 
    1.2361776997445405E+01 
    1.1692297658990897E+01 
    1.6349566847875881E+01 
    1.8095795940867667E+01 
    1.2171564782619795E+00 
    1.1841332785941256E+01 
    1.2030713752626911E+01 
    1.6425418062651012E+01 
    1.1316456142987702E+01 
    1.1745000709885010E+01 
    1.7491131347341209E+01 
    1.0229140758047624E+01 
    8.4809957396091296E+00 
    1.4137909705135984E+01 
    1.6167316304810900E+01 
    1.7342123232146623E+01 
    1.7636754450811726E+01 
    1.1666294510594307E+01 
    1.1831752296538287E+01 
    1.3201015575043757E+01 
    7.7895164731152926E+00 
    1.6315760394876275E+01 
    9.1310615565747622E+00 
    8.1059985314056195E+00 
    1.4747733994013219E+01 
    1.3898065755063058E+01 
    7.9520272572783055E+00 
    1.6207807947601705E+01 
    1.7327016565723298E+01 
    1.2235473478983490E+01 
    1.8206101722457195E+01 
    1.6245906147318706E+01 
    1.1379151116769258E+01 
    1.7030777585558742E+01 
    8.6651409153178864E+00 
    1.6188807843385998E+01 
    1.1840065281006719E+01 
    1.1798388180303840E+01 
    1.8181636567441604E+01 
    1.1508294498330821E+01 
    1.4497933912426900E+01 
    1.0170557739174996E+01 
    1.7457950180731821E+01 
    1.6080568265085102E+01 
    1.0606007141240053E+01 
    1.6138846403976309E+01 
    1.0727036990730012E+01 
    1.1752372448109211E+01 
    1.7281795041676904E+01 
    1.6512237812952204E+01 
    1.7330400900100965E+01 
    1.6429169002309820E+01 
    1.0860424482905074E+01 
    1.1103465891700763E+01 
    1.7338455414249051E+01 
    1.1246273349108069E+01 
    1.5990841770121190E+01 
    1.1492394719754255E+01 
    4.7395268966108137E+00 
    8.1913637470769061E+00 
    7.5892404212056022E+00 
    1.7285963518601765E+01 
    1.8103620001431860E+01 
    1.6159714175918225E+01 
    1.3512770048141762E+01 
    1.6488332072355917E+01 
    1.6217746673160416E+01 
    1.6888545810137938E+01 
    6.8209472002707363E+00 
    4.4134543167885782E+00 
    1.3260770002632215E+01 
    1.1492653562641452E+01 
    1.6389019547551872E+01 
    1.6386164228141794E+01 
    1.2052774683181079E+01 
    1.6428947714573486E+01 
    1.1825443812438854E+01 
    1.1743102231025205E+01 
    6.1568141027830086E+00 
    4.4017566156007035E+00 
    1.7857446584630065E+01 
    9.2057017303207189E+00 
    1.0537520160898913E+01 
    1.1946303075125330E+01 
    1.9586501484637804E+01 
    1.2040724803164011E+01 
    1.2183556184276496E+01 
    5.0132233436456222E+00 
    1.2040850263153729E+01 
    1.2055541846681853E+01 
    1.6716142436782231E+01 
    1.0194228048363641E+01 
    1.1298088810454230E+01 
    1.8041659127345568E+01 
    1.1850562382159607E+01 
    1.6177761463058268E+01 
    1.6435839923944759E+01 
    1.4425218917646429E+01 
    1.0019336058539951E+01 
    1.6428777307653746E+01 
    1.1629906833220916E+01 
    1.6359876514378620E+01 
    1.6107746519501738E+01 
    1.7307397701176232E+01 
    1.6426511845993474E+01 
    1.5368339555364335E+01 
    1.1837912396094284E+01 
    7.8905810751413563E+00 
    1.9453444082189094E+01 
    9.3156279506343154E+00 
    1.7225118186928725E+01 
    1.1835102106344502E+01 
    9.8460456111568444E+00 
    5.8846967452928114E+00 
    1.2094110521064321E+01 
    1.6413526983684832E+01 
    1.6409273117605306E+01 
    1.1732530559181260E+01 
    1.1828783005553715E+01 
    1.8264634651899254E+01 
    1.7574376530114197E+01 
    1.2061316868112904E+01 
    4.1032539470361913E+00 
    1.5226297837415903E+01 
    1.9719178595057777E+01 
    1.1841496913121793E+01 
    1.3953474931963454E+01 
    1.1315869208289651E+01 
    1.9301509828930442E+01 
    1.7663189504889584E+01 
    1.7377870232984325E+01 
    1.2084614080825196E+01 
    5.4620614055482370E+00 
    1.1268259402312909E+01 
    1.1342175343402152E+01 
    1.1384655620388171E+01 
    4.4746195916977385E+00 