# vtk DataFile Version 2.0
Pressure Field Data 
ASCII 
DATASET UNSTRUCTURED_GRID 

POINTS 2860 double 

    0.0000000000000000E+00     0.0000000000000000E+00     0.0000000000000000E+00 
    1.0000000000000000E+00     0.0000000000000000E+00     0.0000000000000000E+00 
    1.0000000000000000E+00     1.0000000000000000E+00     0.0000000000000000E+00 
    0.0000000000000000E+00     1.0000000000000000E+00     0.0000000000000000E+00 
    2.5000000000000000E-01     2.5000000000000000E-01     0.0000000000000000E+00 
    7.5000000000000000E-01     2.5000000000000000E-01     0.0000000000000000E+00 
    7.5000000000000000E-01     7.5000000000000000E-01     0.0000000000000000E+00 
    2.5000000000000000E-01     7.5000000000000000E-01     0.0000000000000000E+00 
    3.1249999999942091E-02     0.0000000000000000E+00     0.0000000000000000E+00 
    6.2499999999873469E-02     0.0000000000000000E+00     0.0000000000000000E+00 
    9.3749999999826514E-02     0.0000000000000000E+00     0.0000000000000000E+00 
    1.2499999999977961E-01     0.0000000000000000E+00     0.0000000000000000E+00 
    1.5624999999968961E-01     0.0000000000000000E+00     0.0000000000000000E+00 
    1.8749999999959971E-01     0.0000000000000000E+00     0.0000000000000000E+00 
    2.1874999999950970E-01     0.0000000000000000E+00     0.0000000000000000E+00 
    2.4999999999941969E-01     0.0000000000000000E+00     0.0000000000000000E+00 
    2.8124999999932920E-01     0.0000000000000000E+00     0.0000000000000000E+00 
    3.1249999999923850E-01     0.0000000000000000E+00     0.0000000000000000E+00 
    3.4374999999914790E-01     0.0000000000000000E+00     0.0000000000000000E+00 
    3.7499999999905720E-01     0.0000000000000000E+00     0.0000000000000000E+00 
    4.0624999999896660E-01     0.0000000000000000E+00     0.0000000000000000E+00 
    4.3749999999887590E-01     0.0000000000000000E+00     0.0000000000000000E+00 
    4.6874999999878530E-01     0.0000000000000000E+00     0.0000000000000000E+00 
    4.9999999999869471E-01     0.0000000000000000E+00     0.0000000000000000E+00 
    5.3124999999877620E-01     0.0000000000000000E+00     0.0000000000000000E+00 
    5.6249999999885780E-01     0.0000000000000000E+00     0.0000000000000000E+00 
    5.9374999999893940E-01     0.0000000000000000E+00     0.0000000000000000E+00 
    6.2499999999902101E-01     0.0000000000000000E+00     0.0000000000000000E+00 
    6.5624999999910261E-01     0.0000000000000000E+00     0.0000000000000000E+00 
    6.8749999999918421E-01     0.0000000000000000E+00     0.0000000000000000E+00 
    7.1874999999926570E-01     0.0000000000000000E+00     0.0000000000000000E+00 
    7.4999999999934730E-01     0.0000000000000000E+00     0.0000000000000000E+00 
    7.8124999999942890E-01     0.0000000000000000E+00     0.0000000000000000E+00 
    8.1249999999951039E-01     0.0000000000000000E+00     0.0000000000000000E+00 
    8.4374999999959199E-01     0.0000000000000000E+00     0.0000000000000000E+00 
    8.7499999999967359E-01     0.0000000000000000E+00     0.0000000000000000E+00 
    9.0624999999975520E-01     0.0000000000000000E+00     0.0000000000000000E+00 
    9.3749999999983680E-01     0.0000000000000000E+00     0.0000000000000000E+00 
    9.6874999999991840E-01     0.0000000000000000E+00     0.0000000000000000E+00 
    1.0000000000000000E+00     3.1249999999942091E-02     0.0000000000000000E+00 
    1.0000000000000000E+00     6.2499999999873469E-02     0.0000000000000000E+00 
    1.0000000000000000E+00     9.3749999999826514E-02     0.0000000000000000E+00 
    1.0000000000000000E+00     1.2499999999977961E-01     0.0000000000000000E+00 
    1.0000000000000000E+00     1.5624999999968961E-01     0.0000000000000000E+00 
    1.0000000000000000E+00     1.8749999999959971E-01     0.0000000000000000E+00 
    1.0000000000000000E+00     2.1874999999950970E-01     0.0000000000000000E+00 
    1.0000000000000000E+00     2.4999999999941969E-01     0.0000000000000000E+00 
    1.0000000000000000E+00     2.8124999999932920E-01     0.0000000000000000E+00 
    1.0000000000000000E+00     3.1249999999923850E-01     0.0000000000000000E+00 
    1.0000000000000000E+00     3.4374999999914790E-01     0.0000000000000000E+00 
    1.0000000000000000E+00     3.7499999999905720E-01     0.0000000000000000E+00 
    1.0000000000000000E+00     4.0624999999896660E-01     0.0000000000000000E+00 
    1.0000000000000000E+00     4.3749999999887590E-01     0.0000000000000000E+00 
    1.0000000000000000E+00     4.6874999999878530E-01     0.0000000000000000E+00 
    1.0000000000000000E+00     4.9999999999869471E-01     0.0000000000000000E+00 
    1.0000000000000000E+00     5.3124999999877620E-01     0.0000000000000000E+00 
    1.0000000000000000E+00     5.6249999999885780E-01     0.0000000000000000E+00 
    1.0000000000000000E+00     5.9374999999893940E-01     0.0000000000000000E+00 
    1.0000000000000000E+00     6.2499999999902101E-01     0.0000000000000000E+00 
    1.0000000000000000E+00     6.5624999999910261E-01     0.0000000000000000E+00 
    1.0000000000000000E+00     6.8749999999918421E-01     0.0000000000000000E+00 
    1.0000000000000000E+00     7.1874999999926570E-01     0.0000000000000000E+00 
    1.0000000000000000E+00     7.4999999999934730E-01     0.0000000000000000E+00 
    1.0000000000000000E+00     7.8124999999942890E-01     0.0000000000000000E+00 
    1.0000000000000000E+00     8.1249999999951039E-01     0.0000000000000000E+00 
    1.0000000000000000E+00     8.4374999999959199E-01     0.0000000000000000E+00 
    1.0000000000000000E+00     8.7499999999967359E-01     0.0000000000000000E+00 
    1.0000000000000000E+00     9.0624999999975520E-01     0.0000000000000000E+00 
    1.0000000000000000E+00     9.3749999999983680E-01     0.0000000000000000E+00 
    1.0000000000000000E+00     9.6874999999991840E-01     0.0000000000000000E+00 
    9.6875000000003686E-01     1.0000000000000000E+00     0.0000000000000000E+00 
    9.3750000000011691E-01     1.0000000000000000E+00     0.0000000000000000E+00 
    9.0625000000015765E-01     1.0000000000000000E+00     0.0000000000000000E+00 
    8.7500000000017863E-01     1.0000000000000000E+00     0.0000000000000000E+00 
    8.4375000000028044E-01     1.0000000000000000E+00     0.0000000000000000E+00 
    8.1250000000040856E-01     1.0000000000000000E+00     0.0000000000000000E+00 
    7.8125000000054956E-01     1.0000000000000000E+00     0.0000000000000000E+00 
    7.5000000000066480E-01     1.0000000000000000E+00     0.0000000000000000E+00 
    7.1875000000086831E-01     1.0000000000000000E+00     0.0000000000000000E+00 
    6.8750000000102829E-01     1.0000000000000000E+00     0.0000000000000000E+00 
    6.5625000000114431E-01     1.0000000000000000E+00     0.0000000000000000E+00 
    6.2500000000129829E-01     1.0000000000000000E+00     0.0000000000000000E+00 
    5.9375000000147926E-01     1.0000000000000000E+00     0.0000000000000000E+00 
    5.6250000000168354E-01     1.0000000000000000E+00     0.0000000000000000E+00 
    5.3125000000188671E-01     1.0000000000000000E+00     0.0000000000000000E+00 
    5.0000000000205835E-01     1.0000000000000000E+00     0.0000000000000000E+00 
    4.6875000000192979E-01     1.0000000000000000E+00     0.0000000000000000E+00 
    4.3750000000180111E-01     1.0000000000000000E+00     0.0000000000000000E+00 
    4.0625000000167238E-01     1.0000000000000000E+00     0.0000000000000000E+00 
    3.7500000000154382E-01     1.0000000000000000E+00     0.0000000000000000E+00 
    3.4375000000141509E-01     1.0000000000000000E+00     0.0000000000000000E+00 
    3.1250000000128642E-01     1.0000000000000000E+00     0.0000000000000000E+00 
    2.8125000000115769E-01     1.0000000000000000E+00     0.0000000000000000E+00 
    2.5000000000102918E-01     1.0000000000000000E+00     0.0000000000000000E+00 
    2.1875000000090050E-01     1.0000000000000000E+00     0.0000000000000000E+00 
    1.8750000000077180E-01     1.0000000000000000E+00     0.0000000000000000E+00 
    1.5625000000064329E-01     1.0000000000000000E+00     0.0000000000000000E+00 
    1.2500000000051459E-01     1.0000000000000000E+00     0.0000000000000000E+00 
    9.3750000000385914E-02     1.0000000000000000E+00     0.0000000000000000E+00 
    6.2500000000257239E-02     1.0000000000000000E+00     0.0000000000000000E+00 
    3.1250000000128557E-02     1.0000000000000000E+00     0.0000000000000000E+00 
    0.0000000000000000E+00     9.6875000000003686E-01     0.0000000000000000E+00 
    0.0000000000000000E+00     9.3750000000011691E-01     0.0000000000000000E+00 
    0.0000000000000000E+00     9.0625000000015765E-01     0.0000000000000000E+00 
    0.0000000000000000E+00     8.7500000000017863E-01     0.0000000000000000E+00 
    0.0000000000000000E+00     8.4375000000028044E-01     0.0000000000000000E+00 
    0.0000000000000000E+00     8.1250000000040856E-01     0.0000000000000000E+00 
    0.0000000000000000E+00     7.8125000000054956E-01     0.0000000000000000E+00 
    0.0000000000000000E+00     7.5000000000066480E-01     0.0000000000000000E+00 
    0.0000000000000000E+00     7.1875000000086831E-01     0.0000000000000000E+00 
    0.0000000000000000E+00     6.8750000000102829E-01     0.0000000000000000E+00 
    0.0000000000000000E+00     6.5625000000114431E-01     0.0000000000000000E+00 
    0.0000000000000000E+00     6.2500000000129829E-01     0.0000000000000000E+00 
    0.0000000000000000E+00     5.9375000000147926E-01     0.0000000000000000E+00 
    0.0000000000000000E+00     5.6250000000168354E-01     0.0000000000000000E+00 
    0.0000000000000000E+00     5.3125000000188671E-01     0.0000000000000000E+00 
    0.0000000000000000E+00     5.0000000000205835E-01     0.0000000000000000E+00 
    0.0000000000000000E+00     4.6875000000192979E-01     0.0000000000000000E+00 
    0.0000000000000000E+00     4.3750000000180111E-01     0.0000000000000000E+00 
    0.0000000000000000E+00     4.0625000000167238E-01     0.0000000000000000E+00 
[...]
CELL_DATA 2795 
SCALARS Pressure double 1 
LOOKUP_TABLE default 

    7.2783142606897036E+00 
    1.6468774298049617E+01 
    1.1546592118927430E+01 
    1.1199644717415142E+01 
    8.9281889837082602E+00 
    1.6313419122307991E+01 
    1.7124370530315428E+01 
    6.5087473350723899E+00 
    1.2098806362605572E+01 
    9.3039064409211552E+00 
    7.9352981743893052E+00 
    1.6023595838774277E+01 
    1.6372525529246200E+01 
    1.6278352023931014E+01 
    1.0648943729735915E+01 
    6.4010992736990993E+00 
    1.0313740788748182E+01 
    8.4496588008521378E+00 
    1.5609779711758641E+01 
    1.1528836392456911E+01 
    1.1425609991393896E+01 
    1.6204225251388618E+01 
    1.0896748586401369E+01 
    4.2487521098278347E-01 
    1.6016578137443904E+01 
    1.6333254593580637E+01 
    1.7158395164537378E+01 
    7.6486643562794541E+00 
    1.5933567623016124E+01 
    1.7149537210078538E+01 
    1.1669987920713629E+01 
    1.1733230535839814E+01 
    8.3173133912004928E+00 
    1.1509791108064515E+01 
    3.7417025494714715E+00 
    1.0318830072083106E+01 
    1.1495812336900860E+01 
    1.7192348735658861E+01 
    1.7098806070912005E+01 
    1.6037895747079663E+01 
    8.9033443233527212E+00 
    1.6005846612208625E+01 
    8.8282941203348808E-01 
    1.1469295071940358E+01 
    1.6905412281918707E+01 
    1.6670751418762251E+01 
    1.6011604990660619E+01 
    1.2545710228147152E+01 
    1.6078546295290572E+01 
    1.0549944466060337E+01 
    1.0054140355069148E+01 
    1.1697480789274877E+01 
    1.1357533042837344E+01 
    1.0378299825390501E+01 
    1.1743086895561087E+01 
    1.5370008604627676E+01 
    1.3568951236968285E+01 
    8.9758741867178173E+00 
    1.6209920878201373E+01 
    1.6120646123774407E+01 
    1.1169943838240142E+01 
    1.1110034448600578E+01 
    1.1089432459733747E+01 
    1.7042501317632102E+01 
    1.7329835053337490E+01 
    1.0327950756789186E+01 
    1.1695999420158351E+01 
    1.5839468818408674E+01 
    1.3546114063626149E+01 
    1.1163671527525599E+01 
    1.7330036004508536E+01 
    1.6158943664619542E+01 
    1.0180573070694100E+01 
    1.6795199384971269E+01 
    1.1992874796661971E+01 
    1.5852164532537174E+01 
    1.7204856541779730E+01 
    1.2085905129618720E+01 
    7.4239857104815616E+00 
    1.1714124364234802E+01 
    1.7108985336042348E+01 
    1.7360371787709695E+01 
    1.0340000263325750E+01 
    1.1639829575756337E+01 
    1.7411292499490404E+01 
    1.1495104686846528E+01 
    1.0994590477969204E+01 
    1.4038624531685876E+01 
    7.0976061125555807E+00 
    1.0079926823618802E+01 
    1.1637245571900252E+01 
    1.2256725797972232E+01 
    1.8967807142414532E+01 
    8.6795796547714499E+00 
    1.1703836157444959E+01 
    1.5986685929227665E+01 
    1.6316814872315021E+01 
    7.6608060255191193E+00 
    1.1357203576601428E+01 
    1.1670626983785661E+01 
    1.6340735050845389E+01 
    1.1662273138525018E+01 
    1.6261581300910990E+01 
    4.6499524739406661E+00 
    7.7167243545451063E+00 
    1.1920924814272480E+01 
    1.6477106277788302E+01 
    1.0278803008035181E+01 
    1.0920725130139846E+01 
    1.1641369002711581E+01 
    1.0955822171911871E+01 
    1.3152926168900830E+01 
    1.0630527651369107E+01 
    1.0191300259190518E+01 
    8.1461015663924528E+00 
    1.3828006796842695E+01 
    1.1738352781873159E+01 
    1.6945675716560007E+01 
    1.0092627999936923E+01 
    1.1177276541938982E+01 
    1.6147665246582424E+01 
    9.3671192380435588E+00 
    1.6647216215540933E+01 
    1.1567987659394593E+01 
    1.1099255843678257E+01 
    1.6319760672408627E+01 
    1.1726437599624298E+01 
    1.7218798356821644E+01 
    1.4066143523768634E+01 
    1.5188477421940206E+01 
    1.7176680319390382E+01 
    8.6967400556345869E+00 
    1.1943915618846740E+01 
    1.6318290678948433E+01 
    3.4720119860234311E+00 
    1.1720211097697598E+01 
    1.7139795397351818E+01 
    1.1130465782021490E+01 
    1.2849011288531718E+01 
    7.6456966754715934E+00 
    1.5983751556599747E+01 
    1.9479988954896854E+01 
    1.4611030008928124E+01 
    1.1131044454624599E+01 
    9.9665288956335161E+00 
    1.2425501833642114E+01 
    1.1584865267550562E+01 
    8.0209729057778443E+00 
    1.7172485828492221E+01 
    1.6346408452115096E+01 
    1.5988548009386824E+01 
    1.2261490237910627E+01 
    1.0153818624622241E+01 
    1.1422302710865468E+01 
    1.6831074713979618E+01 
    1.0437336998260230E+01 
    1.1657430741564795E+01 
    1.0624673247706662E+01 
    1.3530334995852819E+01 
    1.9467627188324951E+01 
    1.5979107851957718E+01 
    1.0169507536942465E+01 
    1.6534360155847928E+01 
    1.6432577305567346E+01 
    1.6520461294485109E+01 
    1.7625844678892957E+01 
    1.8206042591720777E+01 
    1.6664206835263300E+01 
    1.1687755428381989E+01 
    1.2669704569981752E+01 
    1.6479572325721989E+01 
    1.6958894274128674E+01 
    8.3751231607967771E+00 
    1.6011133826166230E+01 
    1.6790691949412253E+01 
    8.1492995575584377E+00 
    1.7539686720673874E+01 
    1.7515983698445662E+01 
    1.5688101246869380E+01 
    1.2021376465267128E+01 
    3.0478081164903608E+00 
    1.7141182494408273E+01 
    1.1861010477547550E+01 
    1.7272747973803799E+01 
    1.1051416005041721E+01 
    1.6952516697657355E+01 
    1.0909710540771933E+00 
    1.5197011688257023E+01 
    1.1158287997488815E+01 
    1.0100470869258094E+01 
    9.8469221936698510E+00 
    1.1536511028657458E+01 
    1.2741041022771849E+01 
    1.2131349141529217E+01 
    8.2355640965719594E+00 
    1.6952793105905549E+01 
    1.6343768493863156E+01 
    1.3662754854719344E+01 
    1.1913248915368696E+01 
    1.7646446317333278E+00 
    9.0932633058121208E+00 
    6.3363678394281466E+00 
    1.7160466341984257E+01 
    1.2928136928440507E+01 
    1.6373018781872545E+01 
    1.6417964969659039E+01 
    1.0524081810937274E+01 
    1.3506768583743735E+01 
    1.5983070986686942E+01 
    1.7497829911687813E+01 
    7.6215390986206417E+00 
    1.4465710204966211E+01 
    1.2118603294034539E+01 
    6.7512192232884711E+00 
    1.0516377984087695E+01 
    1.4159399608298816E+01 
    1.6375180716337116E+01 
    1.1587877101557027E+01 
    1.6496640630025983E+01 
    1.6237965451616525E+01 
    1.6180614198060084E+01 
    1.1427126215391826E+01 
    1.0022602018028442E+01 
    1.5997293949395242E+01 
    1.0177375417739340E+01 
    1.1670080447505837E+01 
    9.9761715713627801E+00 
    1.1606562588564961E+01 
    1.6428534950688114E+01 
    7.2600588288534995E+00 
    1.0411539722335487E+01 
    1.7068429887351932E+01 
    1.1436301347977865E+01 
    1.2823535963650265E+01 
    7.4476398850599228E+00 
    1.0246706035443307E+01 
    1.6213537536289831E+01 
    1.6558001209798196E+01 
    6.0829069714346655E+00 
    1.1447272065968798E+01 
    1.0043396552945980E+01 
    1.7956409201396653E+01 
    1.7369936151688549E+01 
    1.8236321843589554E+01 
    1.1467203527164237E+01 
    1.6398047905994918E+01 
    1.5931699040018829E+01 
    1.1325703059062731E+01 
    1.5989045636252014E+01 
    1.1914682518981847E+01 
    6.8323529079739913E+00 
    1.1795781450303378E+01 
    1.7051298239735686E+01 
    1.5985448434834066E+01 
    7.9003504400620912E+00 
    1.6019123363449015E+01 
    1.2767397836895803E+01 
    1.1698072008136341E+01 
    1.1211097067005499E+01 
    1.5833196976735920E+01 
    1.2257023794739974E+01 
    1.6003435114843036E+01 
    1.1395695186322907E+01 
    7.0568104878890550E+00 
    1.1747750453219403E+01 
    9.8605595891591662E+00 
    1.4628260728309890E+01 
    1.7271944864709972E+01 
    1.5995180123708792E+01 
    1.7132977046635794E+01 
    1.1378785592316181E+01 
    7.6896304989016944E+00 
    7.7975625663233883E+00 
    1.1898764351727706E+01 
    1.1642817762746715E+01 
    1.6957033880644707E+00 
    1.5419665280618460E+01 
    1.7662040627862861E+01 
    1.1068083673266447E+01 
    7.1362451119640324E+00 
    1.3463216833414942E+01 
    1.6017203944389600E+01 
    8.4214291384684135E+00 
    5.7318398715132837E+00 
    1.1625770842461314E+01 
    1.6098656968726505E+01 
    1.6847585203404769E+01 
    1.6712180770646349E+01 
    1.6561070482107620E+01 
    8.2888843829891954E+00 
    1.1692826641948958E+01 
    1.5484158071371414E+01 
    9.1320229017678791E+00 
    1.6357840169017749E+01 
    1.3759668357313291E+01 
    7.9146046716235752E+00 
    1.6129457893265958E+01 
    1.7167506634243843E+01 
    1.6162382170325074E+01 
    8.1077147876010365E+00 
    1.1692117684507508E+01 
    8.8994108647282779E+00 
    1.1042487853631096E+01 
    1.6007736043473987E+01 
    1.5994276303036761E+01 
    8.1543435495812364E+00 
    1.6998785709111875E+01 
    1.2269548358234820E+01 
    1.6028107610692150E+01 
    1.6969351978391696E+01 
    1.6015303369447206E+01 
    1.4883253649292593E+01 
    1.8018044938131776E+01 
    1.1012775743446397E+01 
    1.7098738981956505E+01 
    1.6057678627878960E+01 
    1.7179354301922334E+01 
    1.6991719289094949E+01 
    1.1126336979517607E+01 
    1.1535954008480028E+01 
    1.1057624878648584E+01 
    1.4289595617406759E+01 
    4.6700379101371414E+00 
    1.1828830498097409E+01 
    1.8150967660463145E+01 
    1.1917418400509005E+01 
    1.2128406277109660E+01 
    1.7149796718461392E+01 
    1.7400452068922984E+01 
    1.0919177962903229E+01 
    1.6024047551001136E+01 
    1.5989762799023149E+01 
    1.2114215297446448E+01 
    1.6942321513348446E+01 
    8.3111742808068048E+00 
    5.3107680325496922E+00 
    1.2434476118515192E+01 
    1.1931045499497284E+01 
    1.5995956935480235E+01 
    7.6346249620870923E+00 
    1.6621707157517307E+01 
    5.4003650079677552E+00 
    1.1865855797159472E+01 
    1.1147553421171068E+01 
    1.1669104506572143E+01 
    1.9520164535641332E+01 
    4.5261532617292710E+00 
    1.1738977810958545E+01 
    1.4063884248164365E+01 
    1.1269845406852445E+01 
    9.0883530885031476E+00 
    1.6754893018691469E+01 
    1.9059832197027383E+01 
    1.6917727634666182E+01 
    1.1672527021651943E+01 
    6.7123792043727839E+00 
    1.8903902437381834E+01 
    1.6333097398714258E+01 
    8.6430541107030301E+00 
    1.1300074925432600E+01 
    1.7607530714125623E+01 
    3.8540808545183007E+00 
    1.1989241539115724E+01 
    1.6893838827522458E+01 
    1.1684050719685333E+01 
    1.0187752871384628E+01 
    1.1782365660583714E+01 
    1.5677072187372390E+01 
    1.1666185562278020E+01 
    5.9794463258637620E+00 
    1.0654624513581794E+00 
    8.7177179070326041E+00 
    1.7849630600749542E+01 
    1.1057049706615786E+01 
    1.3126884534650239E+01 
    1.2583826852637584E+01 
    1.4498442289367775E+01 
    1.1697606216862633E+01 
    1.6230795695499339E+01 
    1.9534961915405358E+01 
    1.3948438436685549E+01 
    1.7068155907224416E+01 
    6.3282101516435985E-01 
    1.5996554279097367E+01 
    6.6031634678715685E+00 
    1.8329612998078048E+01 
    1.1753825644493327E+01 
    1.0385941822037259E+01 
    9.0743078675993285E+00 
    6.2726361764897671E+00 
    1.3095558343160462E+01 
    9.2477091943583574E+00 
    1.4509023829672916E+01 
    2.5647663187662193E+00 
    1.2808830338099249E+01 
    1.5918203815903448E+01 
    7.0877043012369265E+00 
    1.6507825830683636E+01 
    1.8113439123383944E+01 
    1.6338984072424982E+01 
    1.1604106920970455E+01 
    1.1663185370159066E+01 
    1.1745932141129154E+01 
    6.7962311050392312E+00 
    1.0751283836516023E+01 
    1.0571844327770958E+01 
    1.1733914443142336E+01 
    1.0977966455851519E+01 
    8.0452837120816068E-01 
    7.5584535427914066E+00 
    1.1430754015286185E+01 
    1.1706077721829471E+01 
    1.4907950316294047E+01 
    2.5296792471405483E+00 
    1.2068577134886894E+01 
    1.1938490604349257E+01 
    4.3612855580268741E+00 
    1.6188554278695772E+01 
    1.0197602502122857E+01 
    1.1796414176373816E+01 
    1.6330338998942260E+01 
    6.2989688283210556E+00 
    1.6310567414938678E+01 
    1.0331150985686717E+01 
    1.1515918504010492E+00 
    1.1128101078300537E+01 
    1.7016023206565123E+01 
    1.5996326891188374E+01 
    1.6016693808418328E+01 
    1.2119551857795312E+01 
    1.1868891521291106E+01 
    1.0172510424644585E+01 
    8.2504449858097448E+00 
    1.6455057339571624E+01 
    1.1294664904935326E+01 
    8.0112621556415373E+00 
    1.6012080414639406E+01 
    1.6782875651741719E+01 
    1.1925235051554608E+01 
    1.1484210424449634E+01 
    1.9408485447281272E+01 
    1.2115289319966735E+01 
    1.6472349317885282E+01 
    9.6794462752280204E+00 
    1.9563861518336960E+01 
    7.7525599796696918E+00 
    1.0632332851492794E+01 
    8.6827518588540027E+00 
    1.2378180899675035E+01 
    9.9532601179182301E+00 
    1.9546889867839131E+01 
    1.2169868157042179E+01 
    1.5626887919694585E+01 
    7.9721942861583086E+00 
    1.1692350543693037E+01 
    1.6294799863189599E+01 
    9.9943796583222717E+00 
    8.6418567036627714E+00 
    1.3085985738746766E+01 
    1.6538747471078416E+01 
    8.5493515076631894E+00 
    1.1171425917097315E+01 
    1.1519766895789695E+01 
    1.5968535584010395E+01 
    1.1296739341775625E+01 
    1.6517735571743344E+01 
    1.7211074921728745E+01 
    1.0206054035441442E+01 
    1.0006696916914306E+01 
    9.2670532941057804E+00 
    1.6126551502606624E+01 
    1.1968045934958415E+01 
    1.9100478990303053E+01 
    1.4945577769928175E+01 
    1.6249371122310368E+01 
    1.8770536713061855E+01 
    1.8120121404976800E+01 
    1.1739067321906541E+01 
    1.1717148039446181E+01 
    1.5718025525436586E+01 
    1.6039789039351845E+01 
    1.6648881315126221E+01 
    1.6356524332445861E+01 
    1.9431994343457632E+01 
    1.2114743769066694E+01 
    1.0320622250925185E+01 
    1.2108547434176268E+01 
    1.7115295165165065E+01 
    1.1833944348283852E+01 
    6.9256698456707886E+00 
    1.1586193954994364E+01 
    1.7574020402776878E+01 
    1.1978224732665495E+01 
    1.0333526485764109E+01 
    1.1460723816441524E+01 
    1.7693650228235082E+01 
    1.6071063943240837E+01 
    9.8568249814718882E+00 
    1.7840679605735232E+01 
    1.1767406097637904E+01 
    1.6634187192170163E+01 
    1.7707505791908350E+01 
    1.2433803731382202E+01 
    6.3064117248165230E+00 
    1.2961210337144086E+01 
    6.5217465416456903E+00 
    1.1883654570662163E+01 
    1.1688251646461278E+01 
    1.3675265282342354E+01 
    6.9014816126797642E+00 
    1.4529335571965337E+01 
    1.1705006977025510E+01 
    1.6345202082347271E+01 
    1.2517083250688176E+01 
    9.6951555686285023E+00 
    1.1319369212373598E+01 
    1.2290326948978686E+01 
    1.2232694213102066E+01 
    1.7263753888055312E+01 
    9.8624036202235921E+00 
    9.6947334980102369E+00 
    7.2700584251683225E+00 
    1.6677377872826646E+01 
    1.1366803247747072E+01 
    1.5830253960641217E+01 
    1.1657243323904105E+01 
    7.9559933379469232E+00 
    1.6102934185584438E+01 
    1.1633896911526797E+01 
    8.6574736562037753E+00 
    9.1544689716490133E+00 
    9.4699645460348645E+00 
    1.6380115417878137E+01 
    1.1736105029943888E+01 
    1.7081481309025584E+01 
    1.1594470104455231E+01 
    1.1534062142274777E+01 
    1.1081351653165049E+01 
    1.6198243175527530E+01 
    1.1449124684644801E+01 
    9.5133867739085360E+00 
    1.8108388648176629E+01 
    1.6290260501947948E+01 
    8.1194913374760826E+00 
    3.1905025712653239E+00 
    1.1724704673268196E+01 
    1.0995010260729165E+01 
    9.9917397630055156E+00 
    1.0860029901844742E+01 
    1.6228892538466390E+01 
    1.1400082988917603E+01 
    1.0381496355387535E+01 
    1.6064519944144912E+01 
    8.0496453716841589E+00 
    1.5675325229782361E+01 
    1.0608152219428812E+01 
    9.5220597057120671E+00 
    1.0088172962379515E+01 
    1.6728353567402422E+01 
    1.1671693519830255E+01 
    1.1680046108530814E+01 
    6.9907101691564213E+00 
    7.5538301270018886E+00 
    1.4813605963403768E+01 
    1.1689865165848964E+01 
    1.1768447114553449E+01 
    1.7826589281045489E+01 
    9.6990449604500331E+00 
    1.1702081501746459E+01 
    8.3271834956286312E+00 
    8.5964218649704307E+00 
    1.6187908559184535E+01 
    1.1324607967078364E+01 
    8.3238354074746734E+00 
    1.2260684500688374E+01 
    1.1590833848881518E+01 
    1.6192502329506947E+01 
    1.7926238725518953E+01 
    1.2067173989853517E+00 
    1.1730096838132109E+01 
    1.1929682236583373E+01 
    1.6267245579592348E+01 
    1.1208841359224222E+01 
    1.1644429402289331E+01 
    1.7324805233630908E+01 
    1.0130823422495757E+01 
    8.3992097211925962E+00 
    1.4020805797858662E+01 
    1.6011948161598806E+01 
    1.7177007322717397E+01 
    1.7470025476273548E+01 
    1.1556397145414607E+01 
    1.1720594341029718E+01 
    1.3100312459457559E+01 
    7.7210708194514028E+00 
    1.6159073104101360E+01 
    9.0428687709240023E+00 
    8.0353766549978687E+00 
    1.4626152692578934E+01 
    1.3789345038691552E+01 
    7.8824454046886006E+00 
    1.6052092119600943E+01 
    1.7161984967474190E+01 
    1.2132679893013236E+01 
    1.8035963503872317E+01 
    1.6089888239727006E+01 
    1.1271275011664210E+01 
    1.6868373641880428E+01 
    8.5904807475044134E+00 
    1.6033290401204624E+01 
    1.1728841331315428E+01 
    1.1687461301168849E+01 
    1.8011488395040615E+01 
    1.1407375640321558E+01 
    1.4376777870239293E+01 
    1.0072820112743088E+01 
    1.7292064684219518E+01 
    1.5926113994728995E+01 
    1.0504138741044327E+01 
    1.5983757697392532E+01 
    1.0634052308650565E+01 
    1.1651879694370919E+01 
    1.7117085395325219E+01 
    1.6353205638842923E+01 
    1.7165352355999854E+01 
    1.6270964337499358E+01 
    1.0756663956683518E+01 
    1.0997811612007387E+01 
    1.7173341703210838E+01 
    1.1139455787276356E+01 
    1.5838447209188102E+01 
    1.1391750180221585E+01 
    4.6955418890068694E+00 
    8.1203478277285708E+00 
    7.5233640053586681E+00 
    1.7121218726490177E+01 
    1.7933966263025795E+01 
    1.6004424208498744E+01 
    1.3399203910718573E+01 
    1.6330684016160461E+01 
    1.6061950699249454E+01 
    1.6726989371928390E+01 
    6.7563439221868373E+00 
    4.3729875644112184E+00 
    1.3150024953119232E+01 
    1.1383830654891979E+01 
    1.6231681254953187E+01 
    1.6228843439345198E+01 
    1.1952120096845217E+01 
    1.6271267796465157E+01 
    1.1714334906144712E+01 
    1.1632910413392850E+01 
    6.0985961574724898E+00 
    4.3614798491599389E+00 
    1.7689265050863828E+01 
    9.1269528092948864E+00 
    1.0436486353841497E+01 
    1.1845416227224042E+01 
    1.9411223749203248E+01 
    1.1939649373191108E+01 
    1.2071171372935369E+01 
    4.9666644190883451E+00 
    1.1939850606030921E+01 
    1.1954569867768530E+01 
    1.6559619983980554E+01 
    1.0096196242158218E+01 
    1.1200014126152498E+01 
    1.7872404899706432E+01 
    1.1739254793557476E+01 
    1.6022305003398802E+01 
    1.6280510420496658E+01 
    1.4300734538849742E+01 
    9.9335937049502530E+00 
    1.6270579946999089E+01 
    1.1520171697943880E+01 
    1.6203972687346994E+01 
    1.5952910337565930E+01 
    1.7142498986271857E+01 
    1.6268335238368461E+01 
    1.5226902962509923E+01 
    1.1726705690084446E+01 
    7.8220289729894485E+00 
    1.9278539619244683E+01 
    9.2255973354585610E+00 
    1.7061173288684802E+01 
    1.1723915920756340E+01 
    9.7509750975493681E+00 
    5.8317410234375471E+00 
    1.1993466743563065E+01 
    1.6255469653857787E+01 
    1.6251326648858644E+01 
    1.1632102695601494E+01 
    1.1717642859736930E+01 
    1.8094319464670111E+01 
    1.7408019696672032E+01 
    1.1960109429196194E+01 
    4.0656908862039813E+00 
    1.5093886679093476E+01 
    1.9543630462305277E+01 
    1.1730264199697320E+01 
    1.3835047941335358E+01 
    1.1208229220670942E+01 
    1.9127145428138054E+01 
    1.7496187431127858E+01 
    1.7212324027574201E+01 
    1.1983307040115458E+01 
    5.4122033019500400E+00 
    1.1160926739003939E+01 
    1.1234399570911249E+01 
    1.1276616089124694E+01 
    4.4329244264185519E+00 