# vtk DataFile Version 2.0
Pressure Field Data 
ASCII 
DATASET UNSTRUCTURED_GRID 

POINTS 2860 double 

    0.0000000000000000E+00     0.0000000000000000E+00     0.0000000000000000E+00 
    1.0000000000000000E+00     0.0000000000000000E+00     0.0000000000000000E+00 
    1.0000000000000000E+00     1.0000000000000000E+00     0.0000000000000000E+00 
    0.0000000000000000E+00     1.0000000000000000E+00     0.0000000000000000E+00 
    2.5000000000000000E-01     2.5000000000000000E-01     0.0000000000000000E+00 
    7.5000000000000000E-01     2.5000000000000000E-01     0.0000000000000000E+00 
    7.5000000000000000E-01     7.5000000000000000E-01     0.0000000000000000E+00 
    2.5000000000000000E-01     7.5000000000000000E-01     0.0000000000000000E+00 
    3.1249999999942091E-02     0.0000000000000000E+00     0.0000000000000000E+00 
    6.2499999999873469E-02     0.0000000000000000E+00     0.0000000000000000E+00 
    9.3749999999826514E-02     0.0000000000000000E+00     0.0000000000000000E+00 
    1.2499999999977961E-01     0.0000000000000000E+00     0.0000000000000000E+00 
    1.5624999999968961E-01     0.0000000000000000E+00     0.0000000000000000E+00 
    1.8749999999959971E-01     0.0000000000000000E+00     0.0000000000000000E+00 
    2.1874999999950970E-01     0.0000000000000000E+00     0.0000000000000000E+00 
    2.4999999999941969E-01     0.0000000000000000E+00     0.0000000000000000E+00 
    2.8124999999932920E-01     0.0000000000000000E+00     0.0000000000000000E+00 
    3.1249999999923850E-01     0.0000000000000000E+00     0.0000000000000000E+00 
    3.4374999999914790E-01     0.0000000000000000E+00     0.0000000000000000E+00 
    3.7499999999905720E-01     0.0000000000000000E+00     0.0000000000000000E+00 
    4.0624999999896660E-01     0.0000000000000000E+00     0.0000000000000000E+00 
    4.3749999999887590E-01     0.0000000000000000E+00     0.0000000000000000E+00 
    4.6874999999878530E-01     0.0000000000000000E+00     0.0000000000000000E+00 
    4.9999999999869471E-01     0.0000000000000000E+00     0.0000000000000000E+00 
    5.3124999999877620E-01     0.0000000000000000E+00     0.0000000000000000E+00 
    5.6249999999885780E-01     0.0000000000000000E+00     0.0000000000000000E+00 
    5.9374999999893940E-01     0.0000000000000000E+00     0.0000000000000000E+00 
    6.2499999999902101E-01     0.0000000000000000E+00     0.0000000000000000E+00 
    6.5624999999910261E-01     0.0000000000000000E+00     0.0000000000000000E+00 
    6.8749999999918421E-01     0.0000000000000000E+00     0.0000000000000000E+00 
    7.1874999999926570E-01     0.0000000000000000E+00     0.0000000000000000E+00 
    7.4999999999934730E-01     0.0000000000000000E+00     0.0000000000000000E+00 
    7.8124999999942890E-01     0.0000000000000000E+00     0.0000000000000000E+00 
    8.1249999999951039E-01     0.0000000000000000E+00     0.0000000000000000E+00 
    8.4374999999959199E-01     0.0000000000000000E+00     0.0000000000000000E+00 
    8.7499999999967359E-01     0.0000000000000000E+00     0.0000000000000000E+00 
    9.0624999999975520E-01     0.0000000000000000E+00     0.0000000000000000E+00 
    9.3749999999983680E-01     0.0000000000000000E+00     0.0000000000000000E+00 
    9.6874999999991840E-01     0.0000000000000000E+00     0.0000000000000000E+00 
    1.0000000000000000E+00     3.1249999999942091E-02     0.0000000000000000E+00 
    1.0000000000000000E+00     6.2499999999873469E-02     0.0000000000000000E+00 
    1.0000000000000000E+00     9.3749999999826514E-02     0.0000000000000000E+00 
    1.0000000000000000E+00     1.2499999999977961E-01     0.0000000000000000E+00 
    1.0000000000000000E+00     1.5624999999968961E-01     0.0000000000000000E+00 
    1.0000000000000000E+00     1.8749999999959971E-01     0.0000000000000000E+00 
    1.0000000000000000E+00     2.1874999999950970E-01     0.0000000000000000E+00 
    1.0000000000000000E+00     2.4999999999941969E-01     0.0000000000000000E+00 
    1.0000000000000000E+00     2.8124999999932920E-01     0.0000000000000000E+00 
    1.0000000000000000E+00     3.1249999999923850E-01     0.0000000000000000E+00 
    1.0000000000000000E+00     3.4374999999914790E-01     0.0000000000000000E+00 
    1.0000000000000000E+00     3.7499999999905720E-01     0.0000000000000000E+00 
    1.0000000000000000E+00     4.0624999999896660E-01     0.0000000000000000E+00 
    1.0000000000000000E+00     4.3749999999887590E-01     0.0000000000000000E+00 
    1.0000000000000000E+00     4.6874999999878530E-01     0.0000000000000000E+00 
    1.0000000000000000E+00     4.9999999999869471E-01     0.0000000000000000E+00 
    1.0000000000000000E+00     5.3124999999877620E-01     0.0000000000000000E+00 
    1.0000000000000000E+00     5.6249999999885780E-01     0.0000000000000000E+00 
    1.0000000000000000E+00     5.9374999999893940E-01     0.0000000000000000E+00 
    1.0000000000000000E+00     6.2499999999902101E-01     0.0000000000000000E+00 
    1.0000000000000000E+00     6.5624999999910261E-01     0.0000000000000000E+00 
    1.0000000000000000E+00     6.8749999999918421E-01     0.0000000000000000E+00 
    1.0000000000000000E+00     7.1874999999926570E-01     0.0000000000000000E+00 
    1.0000000000000000E+00     7.4999999999934730E-01     0.0000000000000000E+00 
    1.0000000000000000E+00     7.8124999999942890E-01     0.0000000000000000E+00 
    1.0000000000000000E+00     8.1249999999951039E-01     0.0000000000000000E+00 
    1.0000000000000000E+00     8.4374999999959199E-01     0.0000000000000000E+00 
    1.0000000000000000E+00     8.7499999999967359E-01     0.0000000000000000E+00 
    1.0000000000000000E+00     9.0624999999975520E-01     0.0000000000000000E+00 
    1.0000000000000000E+00     9.3749999999983680E-01     0.0000000000000000E+00 
    1.0000000000000000E+00     9.6874999999991840E-01     0.0000000000000000E+00 
    9.6875000000003686E-01     1.0000000000000000E+00     0.0000000000000000E+00 
    9.3750000000011691E-01     1.0000000000000000E+00     0.0000000000000000E+00 
    9.0625000000015765E-01     1.0000000000000000E+00     0.0000000000000000E+00 
    8.7500000000017863E-01     1.0000000000000000E+00     0.0000000000000000E+00 
    8.4375000000028044E-01     1.0000000000000000E+00     0.0000000000000000E+00 
    8.1250000000040856E-01     1.0000000000000000E+00     0.0000000000000000E+00 
    7.8125000000054956E-01     1.0000000000000000E+00     0.0000000000000000E+00 
    7.5000000000066480E-01     1.0000000000000000E+00     0.0000000000000000E+00 
    7.1875000000086831E-01     1.0000000000000000E+00     0.0000000000000000E+00 
    6.8750000000102829E-01     1.0000000000000000E+00     0.0000000000000000E+00 
    6.5625000000114431E-01     1.0000000000000000E+00     0.0000000000000000E+00 
    6.2500000000129829E-01     1.0000000000000000E+00     0.0000000000000000E+00 
    5.9375000000147926E-01     1.0000000000000000E+00     0.0000000000000000E+00 
    5.6250000000168354E-01     1.0000000000000000E+00     0.0000000000000000E+00 
    5.3125000000188671E-01     1.0000000000000000E+00     0.0000000000000000E+00 
    5.0000000000205835E-01     1.0000000000000000E+00     0.0000000000000000E+00 
    4.6875000000192979E-01     1.0000000000000000E+00     0.0000000000000000E+00 
    4.3750000000180111E-01     1.0000000000000000E+00     0.0000000000000000E+00 
    4.0625000000167238E-01     1.0000000000000000E+00     0.0000000000000000E+00 
    3.7500000000154382E-01     1.0000000000000000E+00     0.0000000000000000E+00 
    3.4375000000141509E-01     1.0000000000000000E+00     0.0000000000000000E+00 
    3.1250000000128642E-01     1.0000000000000000E+00     0.0000000000000000E+00 
    2.8125000000115769E-01     1.0000000000000000E+00     0.0000000000000000E+00 
    2.5000000000102918E-01     1.0000000000000000E+00     0.0000000000000000E+00 
    2.1875000000090050E-01     1.0000000000000000E+00     0.0000000000000000E+00 
    1.8750000000077180E-01     1.0000000000000000E+00     0.0000000000000000E+00 
    1.5625000000064329E-01     1.0000000000000000E+00     0.0000000000000000E+00 
    1.2500000000051459E-01     1.0000000000000000E+00     0.0000000000000000E+00 
    9.3750000000385914E-02     1.0000000000000000E+00     0.0000000000000000E+00 
    6.2500000000257239E-02     1.0000000000000000E+00     0.0000000000000000E+00 
    3.1250000000128557E-02     1.0000000000000000E+00     0.0000000000000000E+00 
    0.0000000000000000E+00     9.6875000000003686E-01     0.0000000000000000E+00 
    0.0000000000000000E+00     9.3750000000011691E-01     0.0000000000000000E+00 
    0.0000000000000000E+00     9.0625000000015765E-01     0.0000000000000000E+00 
    0.0000000000000000E+00     8.7500000000017863E-01     0.0000000000000000E+00 
    0.0000000000000000E+00     8.4375000000028044E-01     0.0000000000000000E+00 
    0.0000000000000000E+00     8.1250000000040856E-01     0.0000000000000000E+00 
    0.0000000000000000E+00     7.8125000000054956E-01     0.0000000000000000E+00 
    0.0000000000000000E+00     7.5000000000066480E-01     0.0000000000000000E+00 
    0.0000000000000000E+00     7.1875000000086831E-01     0.0000000000000000E+00 
    0.0000000000000000E+00     6.8750000000102829E-01     0.0000000000000000E+00 
    0.0000000000000000E+00     6.5625000000114431E-01     0.0000000000000000E+00 
    0.0000000000000000E+00     6.2500000000129829E-01     0.0000000000000000E+00 
    0.0000000000000000E+00     5.9375000000147926E-01     0.0000000000000000E+00 
    0.0000000000000000E+00     5.6250000000168354E-01     0.0000000000000000E+00 
    0.0000000000000000E+00     5.3125000000188671E-01     0.0000000000000000E+00 
    0.0000000000000000E+00     5.0000000000205835E-01     0.0000000000000000E+00 
    0.0000000000000000E+00     4.6875000000192979E-01     0.0000000000000000E+00 
    0.0000000000000000E+00     4.3750000000180111E-01     0.0000000000000000E+00 
    0.0000000000000000E+00     4.0625000000167238E-01     0.0000000000000000E+00 
[...]
CELL_DATA 2795 
SCALARS Pressure double 1 
LOOKUP_TABLE default 

    5.4018791876715513E+00 
    1.2397622560504203E+01 
    8.8081277079144922E+00 
    8.4019890132363066E+00 
    6.6602801310511701E+00 
    1.2293164179645926E+01 
    1.2929301326069737E+01 
    4.8194348581248834E+00 
    9.3096108063685694E+00 
    7.1123724332018110E+00 
    6.0566779091380001E+00 
    1.2072644759798198E+01 
    1.2308987931096507E+01 
    1.2266236026647402E+01 
    8.1198455358544237E+00 
    4.7382017680551094E+00 
    7.7224309791065178E+00 
    6.4553746134608812E+00 
    1.1763187245984057E+01 
    8.8054275993288940E+00 
    8.6890157027460866E+00 
    1.2210187972703284E+01 
    8.1677853155771114E+00 
    3.1739033453241156E-01 
    1.2047856215317513E+01 
    1.2288775249589206E+01 
    1.2957779895418277E+01 
    5.8211840617203912E+00 
    1.2004409204499968E+01 
    1.2956031556478509E+01 
    8.8584447291120760E+00 
    9.0430230392942459E+00 
    6.2901524342234367E+00 
    8.7683070078738723E+00 
    2.7941749657443005E+00 
    7.7269581941067447E+00 
    8.7605269037332931E+00 
    1.2992568668689410E+01 
    1.2909564546945004E+01 
    1.2083686344727118E+01 
    6.5967059718802066E+00 
    1.2029303963441677E+01 
    6.6143257504321917E-01 
    8.6201190797553497E+00 
    1.2740541689041091E+01 
    1.2592106664526263E+01 
    1.2063479665255533E+01 
    9.6284046376591519E+00 
    1.2125973767601987E+01 
    7.9050615310101877E+00 
    7.5223547072831138E+00 
    9.0090828778017986E+00 
    8.5179321830366810E+00 
    7.7684241864656638E+00 
    8.9318438662839394E+00 
    1.1584011772221741E+01 
    1.0492088595962867E+01 
    6.6968154412481953E+00 
    1.2213516260288843E+01 
    1.2147518369821897E+01 
    8.4319955085139835E+00 
    8.4558210313815536E+00 
    8.3157387305102031E+00 
    1.2868144777496102E+01 
    1.3094006955698369E+01 
    7.7315852634627662E+00 
    9.0075414072702014E+00 
    1.1988258677579871E+01 
    1.0296495875757149E+01 
    8.4962674568297984E+00 
    1.3102879417373977E+01 
    1.2146849087166883E+01 
    7.6201685043610876E+00 
    1.2679415258763489E+01 
    9.1847624186075674E+00 
    1.1919186832203708E+01 
    1.3002034141415066E+01 
    9.0717745331269750E+00 
    5.5029840838153294E+00 
    9.0248984974480937E+00 
    1.2916908423501287E+01 
    1.3133491716259526E+01 
    7.7381330846304923E+00 
    8.9355594917476253E+00 
    1.3170421862703570E+01 
    8.7667117152566352E+00 
    8.2428353322747192E+00 
    1.0646495263683134E+01 
    5.2469181088801591E+00 
    7.5427052690791703E+00 
    8.9375249658011349E+00 
    9.4313270350733038E+00 
    1.4545982320227154E+01 
    6.4695618947793170E+00 
    9.0149786340653861E+00 
    1.2044646697930222E+01 
    1.2265964405024166E+01 
    5.6858744407118165E+00 
    8.6363934323841445E+00 
    8.9664704416763641E+00 
    1.2284251499781542E+01 
    8.9731982623052406E+00 
    1.2223921039465621E+01 
    3.4564432631700361E+00 
    5.8870980263824073E+00 
    9.2158947679954508E+00 
    1.2405761188120335E+01 
    7.6948886345107841E+00 
    8.2372228966069354E+00 
    8.9575660977604006E+00 
    8.2139775557921624E+00 
    1.0209542764391385E+01 
    7.9998817979354069E+00 
    7.6276708180079087E+00 
    5.9792359476875774E+00 
    1.0373689622508563E+01 
    9.0446699952258154E+00 
    1.2789588660151436E+01 
    7.7308208795018354E+00 
    8.3896955639551951E+00 
    1.2138021079813049E+01 
    6.9755522832356709E+00 
    1.2536172786258982E+01 
    8.8517080220891771E+00 
    8.3234331449109362E+00 
    1.2268060378827258E+01 
    9.0369640527209327E+00 
    1.3008494105138260E+01 
    1.0655533681853520E+01 
    1.1456869487595181E+01 
    1.2972905393399850E+01 
    6.4830443204356367E+00 
    9.2312150785335607E+00 
    1.2272439708538052E+01 
    2.5953351066205794E+00 
    8.9092175807827161E+00 
    1.2942834165606902E+01 
    8.3526758695276460E+00 
    9.6385215244866380E+00 
    5.6318872843947290E+00 
    1.2044193934575826E+01 
    1.5019109660039689E+01 
    1.1052282456981033E+01 
    8.3479839615287528E+00 
    7.4545046250262370E+00 
    9.5759572388779244E+00 
    8.8689080208335387E+00 
    6.1219019056516553E+00 
    1.2969229074642843E+01 
    1.2359624034504682E+01 
    1.2046171889970832E+01 
    9.4479069559392226E+00 
    7.5951731895678387E+00 
    8.6883159177083424E+00 
    1.2703799007868492E+01 
    7.8158529330870126E+00 
    8.7567367867110466E+00 
    7.9600876404564396E+00 
    1.0154594368777797E+01 
    1.5007732382100984E+01 
    1.2038704946874811E+01 
    7.5593455406848884E+00 
    1.2438041873381886E+01 
    1.2369017176406489E+01 
    1.2440755134120387E+01 
    1.3354569638549419E+01 
    1.3860427416229417E+01 
    1.2588676006998123E+01 
    8.9997088490955388E+00 
    9.5254034680418620E+00 
    1.2436974751185037E+01 
    1.2798078297551871E+01 
    6.3935698136099584E+00 
    1.2063075062150691E+01 
    1.2670074823106885E+01 
    6.2233372652684542E+00 
    1.3269258838955677E+01 
    1.3262847629064106E+01 
    1.1823133638964702E+01 
    9.2864173883079975E+00 
    2.2686388231526284E+00 
    1.2943227770542313E+01 
    9.1611624733635022E+00 
    1.3055848409624813E+01 
    8.2917918186389947E+00 
    1.2792931402926349E+01 
    8.0685733209564092E-01 
    1.1473869379056909E+01 
    8.4954281102638269E+00 
    7.5592140755055830E+00 
    7.3633670441725743E+00 
    8.8212928408195328E+00 
    9.8915709266828742E+00 
    9.0962792675478212E+00 
    6.0691360318899665E+00 
    1.2794849044772677E+01 
    1.2295222588383563E+01 
    1.0404788132054675E+01 
    9.2080736257110960E+00 
    1.3296075558774370E+00 
    6.7870883438328615E+00 
    4.6816722308965160E+00 
    1.2966970072175341E+01 
    9.9828014293977319E+00 
    1.2347877984183201E+01 
    1.2353616601442139E+01 
    7.8861584511430918E+00 
    1.0415144143392293E+01 
    1.2042077546106903E+01 
    1.3246285662116719E+01 
    5.6130535343000245E+00 
    1.0859365452942551E+01 
    9.1284411153453942E+00 
    4.9920713745161569E+00 
    7.8778070800098101E+00 
    1.0857474389474147E+01 
    1.2320055848242301E+01 
    8.8812353283142080E+00 
    1.2419883193567863E+01 
    1.2208670136549909E+01 
    1.2164151302422697E+01 
    8.6959435757456518E+00 
    7.5139189830056479E+00 
    1.2053328931279539E+01 
    7.6161068328165928E+00 
    8.9763547441464446E+00 
    7.4629790393115814E+00 
    8.7062529285213799E+00 
    1.2361153336749025E+01 
    5.5328891314360797E+00 
    7.7976753814843605E+00 
    1.2886256157074103E+01 
    8.7115340327504853E+00 
    9.8779956832293987E+00 
    5.6780970371184427E+00 
    7.6712506363472954E+00 
    1.2189091074616055E+01 
    1.2470264206934877E+01 
    4.6202901995245993E+00 
    8.7135766705774529E+00 
    7.4992433279417261E+00 
    1.3639029626252707E+01 
    1.3140419154813978E+01 
    1.3884691649139704E+01 
    8.7361958511747293E+00 
    1.2338096661321885E+01 
    1.2005519816336589E+01 
    8.6130535406524444E+00 
    1.2046339664960216E+01 
    9.2075424458841724E+00 
    5.0575135441465457E+00 
    8.9012722978982186E+00 
    1.2876065940184128E+01 
    1.2043551650093434E+01 
    6.0253146526363448E+00 
    1.2069102651399570E+01 
    9.8849269389311214E+00 
    8.8920462651766137E+00 
    8.4291500626949691E+00 
    1.1928954424083791E+01 
    9.4041687181302489E+00 
    1.2057701823644342E+01 
    8.5698096299491624E+00 
    5.2469032329419889E+00 
    9.0416520002855965E+00 
    7.3713227803779366E+00 
    1.1052620327769803E+01 
    1.3052107625351740E+01 
    1.2052466426845470E+01 
    1.2936691835440829E+01 
    8.6590839851624288E+00 
    5.8649911325056445E+00 
    5.9494266482213529E+00 
    9.0895965351485160E+00 
    8.9539710131905821E+00 
    1.2532959285962912E+00 
    1.1628853310555446E+01 
    1.3379246557133799E+01 
    8.3008841818038714E+00 
    5.2708167452982941E+00 
    1.0108526302547077E+01 
    1.2067838761972087E+01 
    6.2681160087103205E+00 
    4.2461150106967827E+00 
    8.9258775228635852E+00 
    1.2153197192859150E+01 
    1.2708724673248820E+01 
    1.2605820840935959E+01 
    1.2474493082805960E+01 
    6.1116583840508030E+00 
    8.8823251911446253E+00 
    1.1630360091715133E+01 
    6.9841209452222213E+00 
    1.2297508374972027E+01 
    1.0610780919818417E+01 
    6.0421555574867414E+00 
    1.2162676815579680E+01 
    1.2956928930796744E+01 
    1.2153347683345588E+01 
    6.0331822984861994E+00 
    9.0037067390715482E+00 
    6.6373616408845439E+00 
    8.4803110171158185E+00 
    1.2060462045662538E+01 
    1.2050263166358613E+01 
    6.0688701132024958E+00 
    1.2828710361288987E+01 
    9.4879752690468226E+00 
    1.2087561574777054E+01 
    1.2803301488717931E+01 
    1.2071631259954790E+01 
    1.1263375348368857E+01 
    1.3687292055871175E+01 
    8.2709044605602191E+00 
    1.2909573651354115E+01 
    1.2110982654613846E+01 
    1.2974702759611215E+01 
    1.2822785185753952E+01 
    8.3605464849570748E+00 
    8.8030862215826762E+00 
    8.2916229407845101E+00 
    1.0843487472180815E+01 
    3.4664951253040779E+00 
    9.0159174763457663E+00 
    1.3807253503598579E+01 
    9.2122920229033411E+00 
    9.3787600092098309E+00 
    1.2950098477452634E+01 
    1.3163739301533994E+01 
    8.2381204815647795E+00 
    1.2072832300161711E+01 
    1.2047246848401441E+01 
    9.3678515140530525E+00 
    1.2782666024859017E+01 
    6.3493682650610612E+00 
    4.0153538264836763E+00 
    9.6182384410491775E+00 
    9.2247215245167720E+00 
    1.2052156951154192E+01 
    5.6702231804407761E+00 
    1.2532046533567700E+01 
    4.0887461994441150E+00 
    9.1659529042888224E+00 
    8.4279689507199400E+00 
    8.9808988583930844E+00 
    1.5058308054714402E+01 
    3.3702027790381330E+00 
    8.9278436245537893E+00 
    1.0550569571882692E+01 
    8.5715580691418189E+00 
    6.6875076964328501E+00 
    1.2637945208828389E+01 
    1.4630060341619306E+01 
    1.2765988159123641E+01 
    8.8704139425988018E+00 
    4.9663770745700360E+00 
    1.4490498180380570E+01 
    1.2283901875459438E+01 
    6.4146080303224977E+00 
    8.4762086524769682E+00 
    1.3339790730890350E+01 
    2.8657485627172292E+00 
    9.2698417773715356E+00 
    1.2736095845491347E+01 
    8.9941508490111524E+00 
    7.8083891496216271E+00 
    8.9712976168520431E+00 
    1.1819030322425675E+01 
    8.9742581295250936E+00 
    4.4250404263757357E+00 
    7.7681761788959802E-01 
    6.6532774178061000E+00 
    1.3537898990256252E+01 
    8.2909946480106562E+00 
    1.0149717925682522E+01 
    9.7188077642440813E+00 
    1.1083525861775646E+01 
    9.0074899975655764E+00 
    1.2202056929900147E+01 
    1.5072250065180057E+01 
    1.0564884765725498E+01 
    1.2885119275368027E+01 
    4.7077030632738998E-01 
    1.2051969302348081E+01 
    4.9000820959809790E+00 
    1.3968247991325837E+01 
    8.9417918565033325E+00 
    7.9134374975076831E+00 
    6.7717699782516103E+00 
    4.6453255792869976E+00 
    1.0003724068830094E+01 
    7.0480961541633471E+00 
    1.0960750928617440E+01 
    1.8931990974074009E+00 
    9.9105572456937985E+00 
    1.1994111463748643E+01 
    5.3936930312821394E+00 
    1.2476816825453257E+01 
    1.3783999888728154E+01 
    1.2344606873250131E+01 
    8.8122991931596637E+00 
    8.9757822367022086E+00 
    8.9344294032953950E+00 
    5.0352176483401090E+00 
    8.0561654258750757E+00 
    7.9186397312024042E+00 
    8.9231667926219576E+00 
    8.2316664137092683E+00 
    5.9305415736036904E-01 
    5.6207528050532458E+00 
    8.5779520161554803E+00 
    8.8990192744843188E+00 
    1.1257101883471529E+01 
    1.8873690847851676E+00 
    9.3320809968975471E+00 
    9.2296069161036929E+00 
    3.2404548217522131E+00 
    1.2231967203165853E+01 
    7.6332245522383513E+00 
    9.1019131071001720E+00 
    1.2279111362779103E+01 
    4.6623918600079044E+00 
    1.2330878771477533E+01 
    7.7346960576060830E+00 
    8.6871387456019755E-01 
    8.3467488400981651E+00 
    1.2841458675381736E+01 
    1.2052110878614858E+01 
    1.2069684590247306E+01 
    9.3067547717875296E+00 
    9.1692992135720885E+00 
    7.6146721289300592E+00 
    6.1037107368159438E+00 
    1.2375736236536747E+01 
    8.4750982605857210E+00 
    5.9632590543045607E+00 
    1.2064621802742954E+01 
    1.2669361565884296E+01 
    9.1083529033873578E+00 
    8.7620548328594925E+00 
    1.4955752685249026E+01 
    9.3685509760404155E+00 
    1.2395497919524681E+01 
    7.2272021625809657E+00 
    1.5100709944863750E+01 
    5.9144661233395306E+00 
    8.0034456626694883E+00 
    6.6370705468099223E+00 
    9.5709453047410555E+00 
    7.6020465787136198E+00 
    1.5084519177299658E+01 
    9.4107371505024169E+00 
    1.1764772333256271E+01 
    6.0857051043002723E+00 
    9.0041031366144519E+00 
    1.2254228494334070E+01 
    7.6309517441525800E+00 
    6.3465374175140976E+00 
    9.8120744289994324E+00 
    1.2467851294660967E+01 
    6.5337376287743529E+00 
    8.4455736158243866E+00 
    8.7869521229066194E+00 
    1.2030644539183063E+01 
    8.5944562651051655E+00 
    1.2439440218085750E+01 
    1.3001168885373250E+01 
    7.6391309533726419E+00 
    7.4822322277974784E+00 
    7.0906177375870936E+00 
    1.2153110097686714E+01 
    9.2270240991772976E+00 
    1.4668191637499957E+01 
    1.1469295175101415E+01 
    1.2216650257024485E+01 
    1.4369762298958140E+01 
    1.3791294514905335E+01 
    9.0496524127287596E+00 
    8.9084279662802111E+00 
    1.1851453291011930E+01 
    1.2084753761306668E+01 
    1.2531018728596361E+01 
    1.2301699313381919E+01 
    1.4974330320983256E+01 
    9.3681545568079727E+00 
    7.7277024867491404E+00 
    9.3368066857774554E+00 
    1.2922440089719577E+01 
    9.1382632851684207E+00 
    5.2621567236520432E+00 
    8.7969084550501648E+00 
    1.3308469028001788E+01 
    9.2615110511861261E+00 
    7.7372983462660656E+00 
    8.7247651340684982E+00 
    1.3411154365973800E+01 
    1.2079919408354444E+01 
    7.3347062542903583E+00 
    1.3538266268901776E+01 
    9.0767096718874107E+00 
    1.2532629443761163E+01 
    1.3422985071706041E+01 
    9.4150532750681108E+00 
    4.6642607539549594E+00 
    9.7816578312520317E+00 
    4.8264940504500906E+00 
    9.1831405932875452E+00 
    8.9943546121936766E+00 
    1.0291012040880709E+01 
    5.1043274549469402E+00 
    1.0921422695160402E+01 
    9.0160607503723504E+00 
    1.2293209102131710E+01 
    9.3859423028945841E+00 
    7.1581465371354458E+00 
    8.6086338577495738E+00 
    9.4464496976487347E+00 
    9.4614129931334805E+00 
    1.3043271678936973E+01 
    7.3765203033830202E+00 
    7.2474119022573351E+00 
    5.3724786578252903E+00 
    1.2556575496163534E+01 
    8.6440148911861705E+00 
    1.1896035108975278E+01 
    8.9650544264757919E+00 
    5.8858416257475739E+00 
    1.2103783925919386E+01 
    8.9385920410466930E+00 
    6.4303783148662772E+00 
    6.8222674479973664E+00 
    7.0698849875175522E+00 
    1.2319545768926266E+01 
    8.9251364414323593E+00 
    1.2894826228754093E+01 
    8.8941379169787211E+00 
    8.8274775035728528E+00 
    8.3663012794727667E+00 
    1.2176846875958985E+01 
    8.7372360785203949E+00 
    7.1075512129050340E+00 
    1.3779301665360116E+01 
    1.2247628272046821E+01 
    6.2010034902252835E+00 
    2.3819824175359452E+00 
    8.9142631665209038E+00 
    8.3710902255737274E+00 
    7.4762124603731026E+00 
    8.1831422068255844E+00 
    1.2228885177810522E+01 
    8.6354249602260573E+00 
    7.7826541612911573E+00 
    1.2103650578797842E+01 
    6.1440545347580526E+00 
    1.1816526133106018E+01 
    8.0855926678207819E+00 
    7.0455623183860219E+00 
    7.5497414887124030E+00 
    1.2609641498012833E+01 
    8.9838572802745951E+00 
    8.9919523351769381E+00 
    5.1826622013927475E+00 
    5.6105955643494010E+00 
    1.1211183548357365E+01 
    9.0017255761220039E+00 
    8.9590135875299559E+00 
    1.3524111887987289E+01 
    7.2487392235944510E+00 
    9.0135443996052231E+00 
    6.3557752050949734E+00 
    6.5566240689950268E+00 
    1.2168924214966005E+01 
    8.6249725586538002E+00 
    6.1976470358392941E+00 
    9.4491029706940797E+00 
    8.8682765209843417E+00 
    1.2172317809461534E+01 
    1.3611436028625485E+01 
    9.1712832857692150E-01 
    8.9191114552430353E+00 
    9.2233878096646986E+00 
    1.2230395341596513E+01 
    8.4159498049340087E+00 
    8.9577838530030203E+00 
    1.3089647183702157E+01 
    7.5813387531249559E+00 
    6.2539461879876743E+00 
    1.0838167175266037E+01 
    1.2063955332162370E+01 
    1.2973950020523375E+01 
    1.3224917440295345E+01 
    8.7654582411893820E+00 
    8.9112475183538660E+00 
    1.0064963852678961E+01 
    5.8876941970606849E+00 
    1.2174947066210191E+01 
    6.7484258230544620E+00 
    6.1353297453767706E+00 
    1.1196986696488304E+01 
    1.0538605025363928E+01 
    6.0153748627010044E+00 
    1.2095044685524414E+01 
    1.2960899014965198E+01 
    9.3820432161461706E+00 
    1.3706924867196118E+01 
    1.2123325194371814E+01 
    8.4962139686754679E+00 
    1.2723173539389116E+01 
    6.5618309490080655E+00 
    1.2079911232872165E+01 
    8.9182735143827419E+00 
    8.8782129128431446E+00 
    1.3682124684216770E+01 
    8.6744005821815211E+00 
    1.0939817504996940E+01 
    7.5357442631166593E+00 
    1.3068922046172986E+01 
    1.1999232200385819E+01 
    7.8708800111380537E+00 
    1.2043610815786398E+01 
    8.1025045878155275E+00 
    8.9673223768426773E+00 
    1.2924365996973947E+01 
    1.2294295995188079E+01 
    1.2963918601235179E+01 
    1.2233036921185905E+01 
    8.0613573752667964E+00 
    8.2708647532273201E+00 
    1.2969974792653959E+01 
    8.3863798793517041E+00 
    1.1941643071843668E+01 
    8.6652164739275150E+00 
    3.4959625736265671E+00 
    6.2015903176374811E+00 
    5.7366109542995547E+00 
    1.2927411313835906E+01 
    1.3616791705084818E+01 
    1.2059298486503218E+01 
    1.0405170905280945E+01 
    1.2308248427115750E+01 
    1.2101473010416550E+01 
    1.2616152039610553E+01 
    5.0025350622173121E+00 
    3.2607186176960705E+00 
    1.0212742048140772E+01 
    8.5665612522003745E+00 
    1.2230251402058078E+01 
    1.2228044356897007E+01 
    9.2389165335846499E+00 
    1.2260534408840877E+01 
    8.9057640229160526E+00 
    8.7910814283713563E+00 
    4.5151758720663917E+00 
    3.2476241271735908E+00 
    1.3408333860336343E+01 
    6.9676581477627231E+00 
    7.8155563556903935E+00 
    9.1473813891052451E+00 
    1.4956714577578600E+01 
    9.2316993211841432E+00 
    9.1624722723167640E+00 
    3.6926946911322696E+00 
    9.2322438376034945E+00 
    9.2443417170471918E+00 
    1.2504594610793186E+01 
    7.5536136315965754E+00 
    8.5401861929798848E+00 
    1.3565031204445003E+01 
    8.9281660435550236E+00 
    1.2072917396649245E+01 
    1.2294812178323145E+01 
    1.1069482611357511E+01 
    7.5693763027120484E+00 
    1.2232301718797871E+01 
    8.7180140010644376E+00 
    1.2243387386405635E+01 
    1.2018761224323081E+01 
    1.2944763015468977E+01 
    1.2232003123350012E+01 
    1.1513834387248275E+01 
    8.9164878744971592E+00 
    5.9685613372929636E+00 
    1.4832969634897001E+01 
    6.8876885940090657E+00 
    1.2884563528025506E+01 
    8.9138610016428128E+00 
    7.2857528541321974E+00 
    4.3696376328547126E+00 
    9.2749099514354967E+00 
    1.2221068284522897E+01 
    1.2216849523338899E+01 
    8.9478372212437236E+00 
    8.9079629835051168E+00 
    1.3760585688702530E+01 
    1.3171898849592823E+01 
    9.2484591687405064E+00 
    3.0352452292251870E+00 
    1.1487110283301684E+01 
    1.5082692383108304E+01 
    8.9198772277413099E+00 
    1.0728858711853690E+01 
    8.4114559662268586E+00 
    1.4694878535590588E+01 
    1.3244158265325980E+01 
    1.2995908770032029E+01 
    9.2682178615486261E+00 
    4.0717195206919863E+00 
    8.3715871988968207E+00 
    8.4373535954801167E+00 
    8.4847221551968488E+00 
    3.3004789951280613E+00 