# vtk DataFile Version 2.0
Pressure Field Data 
ASCII 
DATASET UNSTRUCTURED_GRID 

POINTS 2860 double 

    0.0000000000000000E+00     0.0000000000000000E+00     0.0000000000000000E+00 
    1.0000000000000000E+00     0.0000000000000000E+00     0.0000000000000000E+00 
    1.0000000000000000E+00     1.0000000000000000E+00     0.0000000000000000E+00 
    0.0000000000000000E+00     1.0000000000000000E+00     0.0000000000000000E+00 
    2.5000000000000000E-01     2.5000000000000000E-01     0.0000000000000000E+00 
    7.5000000000000000E-01     2.5000000000000000E-01     0.0000000000000000E+00 
    7.5000000000000000E-01     7.5000000000000000E-01     0.0000000000000000E+00 
    2.5000000000000000E-01     7.5000000000000000E-01     0.0000000000000000E+00 
    3.1249999999942091E-02     0.0000000000000000E+00     0.0000000000000000E+00 
    6.2499999999873469E-02     0.0000000000000000E+00     0.0000000000000000E+00 
    9.3749999999826514E-02     0.0000000000000000E+00     0.0000000000000000E+00 
    1.2499999999977961E-01     0.0000000000000000E+00     0.0000000000000000E+00 
    1.5624999999968961E-01     0.0000000000000000E+00     0.0000000000000000E+00 
    1.8749999999959971E-01     0.0000000000000000E+00     0.0000000000000000E+00 
    2.1874999999950970E-01     0.0000000000000000E+00     0.0000000000000000E+00 
    2.4999999999941969E-01     0.0000000000000000E+00     0.0000000000000000E+00 
    2.8124999999932920E-01     0.0000000000000000E+00     0.0000000000000000E+00 
    3.1249999999923850E-01     0.0000000000000000E+00     0.0000000000000000E+00 
    3.4374999999914790E-01     0.0000000000000000E+00     0.0000000000000000E+00 
    3.7499999999905720E-01     0.0000000000000000E+00     0.0000000000000000E+00 
    4.0624999999896660E-01     0.0000000000000000E+00     0.0000000000000000E+00 
    4.3749999999887590E-01     0.0000000000000000E+00     0.0000000000000000E+00 
    4.6874999999878530E-01     0.0000000000000000E+00     0.0000000000000000E+00 
    4.9999999999869471E-01     0.0000000000000000E+00     0.0000000000000000E+00 
    5.3124999999877620E-01     0.0000000000000000E+00     0.0000000000000000E+00 
    5.6249999999885780E-01     0.0000000000000000E+00     0.0000000000000000E+00 
    5.9374999999893940E-01     0.0000000000000000E+00     0.0000000000000000E+00 
    6.2499999999902101E-01     0.0000000000000000E+00     0.0000000000000000E+00 
    6.5624999999910261E-01     0.0000000000000000E+00     0.0000000000000000E+00 
    6.8749999999918421E-01     0.0000000000000000E+00     0.0000000000000000E+00 
    7.1874999999926570E-01     0.0000000000000000E+00     0.0000000000000000E+00 
    7.4999999999934730E-01     0.0000000000000000E+00     0.0000000000000000E+00 
    7.8124999999942890E-01     0.0000000000000000E+00     0.0000000000000000E+00 
    8.1249999999951039E-01     0.0000000000000000E+00     0.0000000000000000E+00 
    8.4374999999959199E-01     0.0000000000000000E+00     0.0000000000000000E+00 
    8.7499999999967359E-01     0.0000000000000000E+00     0.0000000000000000E+00 
    9.0624999999975520E-01     0.0000000000000000E+00     0.0000000000000000E+00 
    9.3749999999983680E-01     0.0000000000000000E+00     0.0000000000000000E+00 
    9.6874999999991840E-01     0.0000000000000000E+00     0.0000000000000000E+00 
    1.0000000000000000E+00     3.1249999999942091E-02     0.0000000000000000E+00 
    1.0000000000000000E+00     6.2499999999873469E-02     0.0000000000000000E+00 
    1.0000000000000000E+00     9.3749999999826514E-02     0.0000000000000000E+00 
    1.0000000000000000E+00     1.2499999999977961E-01     0.0000000000000000E+00 
    1.0000000000000000E+00     1.5624999999968961E-01     0.0000000000000000E+00 
    1.0000000000000000E+00     1.8749999999959971E-01     0.0000000000000000E+00 
    1.0000000000000000E+00     2.1874999999950970E-01     0.0000000000000000E+00 
    1.0000000000000000E+00     2.4999999999941969E-01     0.0000000000000000E+00 
    1.0000000000000000E+00     2.8124999999932920E-01     0.0000000000000000E+00 
    1.0000000000000000E+00     3.1249999999923850E-01     0.0000000000000000E+00 
    1.0000000000000000E+00     3.4374999999914790E-01     0.0000000000000000E+00 
    1.0000000000000000E+00     3.7499999999905720E-01     0.0000000000000000E+00 
    1.0000000000000000E+00     4.0624999999896660E-01     0.0000000000000000E+00 
    1.0000000000000000E+00     4.3749999999887590E-01     0.0000000000000000E+00 
    1.0000000000000000E+00     4.6874999999878530E-01     0.0000000000000000E+00 
    1.0000000000000000E+00     4.9999999999869471E-01     0.0000000000000000E+00 
    1.0000000000000000E+00     5.3124999999877620E-01     0.0000000000000000E+00 
    1.0000000000000000E+00     5.6249999999885780E-01     0.0000000000000000E+00 
    1.0000000000000000E+00     5.9374999999893940E-01     0.0000000000000000E+00 
    1.0000000000000000E+00     6.2499999999902101E-01     0.0000000000000000E+00 
    1.0000000000000000E+00     6.5624999999910261E-01     0.0000000000000000E+00 
    1.0000000000000000E+00     6.8749999999918421E-01     0.0000000000000000E+00 
    1.0000000000000000E+00     7.1874999999926570E-01     0.0000000000000000E+00 
    1.0000000000000000E+00     7.4999999999934730E-01     0.0000000000000000E+00 
    1.0000000000000000E+00     7.8124999999942890E-01     0.0000000000000000E+00 
    1.0000000000000000E+00     8.1249999999951039E-01     0.0000000000000000E+00 
    1.0000000000000000E+00     8.4374999999959199E-01     0.0000000000000000E+00 
    1.0000000000000000E+00     8.7499999999967359E-01     0.0000000000000000E+00 
    1.0000000000000000E+00     9.0624999999975520E-01     0.0000000000000000E+00 
    1.0000000000000000E+00     9.3749999999983680E-01     0.0000000000000000E+00 
    1.0000000000000000E+00     9.6874999999991840E-01     0.0000000000000000E+00 
    9.6875000000003686E-01     1.0000000000000000E+00     0.0000000000000000E+00 
    9.3750000000011691E-01     1.0000000000000000E+00     0.0000000000000000E+00 
    9.0625000000015765E-01     1.0000000000000000E+00     0.0000000000000000E+00 
    8.7500000000017863E-01     1.0000000000000000E+00     0.0000000000000000E+00 
    8.4375000000028044E-01     1.0000000000000000E+00     0.0000000000000000E+00 
    8.1250000000040856E-01     1.0000000000000000E+00     0.0000000000000000E+00 
    7.8125000000054956E-01     1.0000000000000000E+00     0.0000000000000000E+00 
    7.5000000000066480E-01     1.0000000000000000E+00     0.0000000000000000E+00 
    7.1875000000086831E-01     1.0000000000000000E+00     0.0000000000000000E+00 
    6.8750000000102829E-01     1.0000000000000000E+00     0.0000000000000000E+00 
    6.5625000000114431E-01     1.0000000000000000E+00     0.0000000000000000E+00 
    6.2500000000129829E-01     1.0000000000000000E+00     0.0000000000000000E+00 
    5.9375000000147926E-01     1.0000000000000000E+00     0.0000000000000000E+00 
    5.6250000000168354E-01     1.0000000000000000E+00     0.0000000000000000E+00 
    5.3125000000188671E-01     1.0000000000000000E+00     0.0000000000000000E+00 
    5.0000000000205835E-01     1.0000000000000000E+00     0.0000000000000000E+00 
    4.6875000000192979E-01     1.0000000000000000E+00     0.0000000000000000E+00 
    4.3750000000180111E-01     1.0000000000000000E+00     0.0000000000000000E+00 
    4.0625000000167238E-01     1.0000000000000000E+00     0.0000000000000000E+00 
    3.7500000000154382E-01     1.0000000000000000E+00     0.0000000000000000E+00 
    3.4375000000141509E-01     1.0000000000000000E+00     0.0000000000000000E+00 
    3.1250000000128642E-01     1.0000000000000000E+00     0.0000000000000000E+00 
    2.8125000000115769E-01     1.0000000000000000E+00     0.0000000000000000E+00 
    2.5000000000102918E-01     1.0000000000000000E+00     0.0000000000000000E+00 
    2.1875000000090050E-01     1.0000000000000000E+00     0.0000000000000000E+00 
    1.8750000000077180E-01     1.0000000000000000E+00     0.0000000000000000E+00 
    1.5625000000064329E-01     1.0000000000000000E+00     0.0000000000000000E+00 
    1.2500000000051459E-01     1.0000000000000000E+00     0.0000000000000000E+00 
    9.3750000000385914E-02     1.0000000000000000E+00     0.0000000000000000E+00 
    6.2500000000257239E-02     1.0000000000000000E+00     0.0000000000000000E+00 
    3.1250000000128557E-02     1.0000000000000000E+00     0.0000000000000000E+00 
    0.0000000000000000E+00     9.6875000000003686E-01     0.0000000000000000E+00 
    0.0000000000000000E+00     9.3750000000011691E-01     0.0000000000000000E+00 
    0.0000000000000000E+00     9.0625000000015765E-01     0.0000000000000000E+00 
    0.0000000000000000E+00     8.7500000000017863E-01     0.0000000000000000E+00 
    0.0000000000000000E+00     8.4375000000028044E-01     0.0000000000000000E+00 
    0.0000000000000000E+00     8.1250000000040856E-01     0.0000000000000000E+00 
    0.0000000000000000E+00     7.8125000000054956E-01     0.0000000000000000E+00 
    0.0000000000000000E+00     7.5000000000066480E-01     0.0000000000000000E+00 
    0.0000000000000000E+00     7.1875000000086831E-01     0.0000000000000000E+00 
    0.0000000000000000E+00     6.8750000000102829E-01     0.0000000000000000E+00 
    0.0000000000000000E+00     6.5625000000114431E-01     0.0000000000000000E+00 
    0.0000000000000000E+00     6.2500000000129829E-01     0.0000000000000000E+00 
    0.0000000000000000E+00     5.9375000000147926E-01     0.0000000000000000E+00 
    0.0000000000000000E+00     5.6250000000168354E-01     0.0000000000000000E+00 
    0.0000000000000000E+00     5.3125000000188671E-01     0.0000000000000000E+00 
    0.0000000000000000E+00     5.0000000000205835E-01     0.0000000000000000E+00 
    0.0000000000000000E+00     4.6875000000192979E-01     0.0000000000000000E+00 
    0.0000000000000000E+00     4.3750000000180111E-01     0.0000000000000000E+00 
    0.0000000000000000E+00     4.0625000000167238E-01     0.0000000000000000E+00 
[...]
CELL_DATA 2795 
SCALARS Pressure double 1 
LOOKUP_TABLE default 

    5.6933475482663631E+00 
    1.3088985956954447E+01 
    9.2542420967265819E+00 
    8.8551405296157917E+00 
    7.0187572036215542E+00 
    1.2974503002456718E+01 
    1.3643946446362461E+01 
    5.0791420442870407E+00 
    9.7933682243349072E+00 
    7.4805646114425191E+00 
    6.3676440665593921E+00 
    1.2740525298616786E+01 
    1.2999386616076810E+01 
    1.2946091259284263E+01 
    8.5371937779553093E+00 
    4.9936352961670361E+00 
    8.1376150560586016E+00 
    6.7869472801312440E+00 
    1.2411024208205578E+01 
    9.2448755405453387E+00 
    9.1393423801360800E+00 
    1.2886793216836407E+01 
    8.6084873277548013E+00 
    3.3394467770106046E-01 
    1.2726822980446091E+01 
    1.2975225225728115E+01 
    1.3673376774493537E+01 
    6.1200588510024554E+00 
    1.2667957341590469E+01 
    1.3670227997496049E+01 
    9.2963255735217487E+00 
    9.4829952910109245E+00 
    6.6146440760849474E+00 
    9.2156685005577703E+00 
    2.9449072207657672E+00 
    8.1425216308642590E+00 
    9.2058469795671680E+00 
    1.3707908732036815E+01 
    1.3622996360956142E+01 
    1.2752312701434366E+01 
    6.9511747195443379E+00 
    1.2703508182156234E+01 
    6.9560379898317193E-01 
    9.0861090013285875E+00 
    1.3449335402311000E+01 
    1.3293721062369775E+01 
    1.2730743283667582E+01 
    1.0119399977536204E+01 
    1.2797544359976509E+01 
    8.3292093346243767E+00 
    7.9271752158492630E+00 
    9.4491009423064884E+00 
    8.9793211041862513E+00 
    8.1856189038368807E+00 
    9.3654157793412800E+00 
    1.2220290490575362E+01 
    1.1040475189540656E+01 
    7.0572095988185159E+00 
    1.2890319591633554E+01 
    1.2820251995409727E+01 
    8.8640771837838859E+00 
    8.8966344379696594E+00 
    8.7645496888606473E+00 
    1.3578779388750286E+01 
    1.3815957909263586E+01 
    8.1471258845968073E+00 
    9.4471186227802999E+00 
    1.2650196892317986E+01 
    1.0839184586226256E+01 
    8.9357713046714426E+00 
    1.3823423158776018E+01 
    1.2828378104752616E+01 
    8.0301769599704507E+00 
    1.3385618958421997E+01 
    9.6080652375341948E+00 
    1.2589299243016583E+01 
    1.3717860266484085E+01 
    9.5694572886861060E+00 
    5.8018250781129836E+00 
    9.4658650009453638E+00 
    1.3630975220697119E+01 
    1.3853800847201947E+01 
    8.1554428768939946E+00 
    9.3722476788366134E+00 
    1.3893463693839044E+01 
    9.2096167892176215E+00 
    8.6876899432042656E+00 
    1.1215069501770943E+01 
    5.5327551948457918E+00 
    7.9485065517995395E+00 
    9.3724650534868594E+00 
    9.9247163727819157E+00 
    1.5302338351813360E+01 
    6.8180786918005749E+00 
    9.4551090895161938E+00 
    1.2710589595447104E+01 
    1.2954516458236766E+01 
    5.9923870720303691E+00 
    9.0847126599481811E+00 
    9.4027351071720044E+00 
    1.2973424998988881E+01 
    9.4098131407525614E+00 
    1.2910537797456616E+01 
    3.6396208886916339E+00 
    6.1899578596826181E+00 
    9.6731349407417913E+00 
    1.3097117167816196E+01 
    8.1090540719100979E+00 
    8.6602385562420050E+00 
    9.3961865138922178E+00 
    8.6569452474501567E+00 
    1.0692239303479084E+01 
    8.4162277699123340E+00 
    8.0381480592326220E+00 
    6.3021745860462275E+00 
    1.0951036339570592E+01 
    9.4828499946001354E+00 
    1.3496740906232230E+01 
    8.1261470475101305E+00 
    8.8399412480705521E+00 
    1.2818302195667929E+01 
    7.3507646604776760E+00 
    1.3234941906082305E+01 
    9.2880955921342707E+00 
    8.7725527305876199E+00 
    1.2956489722766628E+01 
    9.4792224654314179E+00 
    1.3725875118475679E+01 
    1.1225209298004932E+01 
    1.2083715116662878E+01 
    1.3689095587355835E+01 
    6.8321595530162735E+00 
    9.6918708602124077E+00 
    1.2959302818620863E+01 
    2.7304011757815592E+00 
    9.3442470212921194E+00 
    1.3657727233321999E+01 
    8.8011755152339308E+00 
    1.0171776485867731E+01 
    5.9377972218148383E+00 
    1.2709409489941720E+01 
    1.5782453915618532E+01 
    1.1650250371790506E+01 
    8.7983782895051679E+00 
    7.8556967440132066E+00 
    1.0051870659543116E+01 
    9.3061128217035485E+00 
    6.4354790876610197E+00 
    1.3685303957978672E+01 
    1.3049460882774550E+01 
    1.2712172183935264E+01 
    9.9307129829813316E+00 
    8.0036663681949634E+00 
    9.1383461562255182E+00 
    1.3411190153320559E+01 
    8.2368292735439237E+00 
    9.2332559665606997E+00 
    8.3890568333846005E+00 
    1.0715748175730836E+01 
    1.5770893013728069E+01 
    1.2704378353143666E+01 
    7.9596100540287020E+00 
    1.3134415738372242E+01 
    1.3058965390456345E+01 
    1.3133661151406313E+01 
    1.4083101480394062E+01 
    1.4602663161098437E+01 
    1.3291281086052065E+01 
    9.4385774440951948E+00 
    1.0053122156786443E+01 
    1.3130605689384003E+01 
    1.3506489856042949E+01 
    6.7201679637338021E+00 
    1.2730369062073974E+01 
    1.3375822535005900E+01 
    6.5417657301129069E+00 
    1.3997669011826879E+01 
    1.3988019006040572E+01 
    1.2474770559480968E+01 
    9.7516497676434390E+00 
    2.3935704401573403E+00 
    1.3658317761309268E+01 
    9.6165741396821200E+00 
    1.3774288143483259E+01 
    8.7368182913741848E+00 
    1.3503394383940520E+01 
    8.5059512834971129E-01 
    1.2101411768849376E+01 
    8.9396609758767624E+00 
    7.9657939290486137E+00 
    7.7596211228122955E+00 
    9.2583847277615803E+00 
    1.0373972841339434E+01 
    9.5948030552024228E+00 
    6.3961202630948373E+00 
    1.3502503896307809E+01 
    1.2982488945494815E+01 
    1.0954982337661237E+01 
    9.6661903378398453E+00 
    1.3965223771730333E+00 
    7.1522189640077736E+00 
    4.9340124073984848E+00 
    1.3681080809495805E+01 
    1.0518695157219915E+01 
    1.3034734094421992E+01 
    1.3043812223488050E+01 
    8.3087324415774191E+00 
    1.0995233910116353E+01 
    1.2708056506747083E+01 
    1.3971162918772349E+01 
    5.9172244043245703E+00 
    1.1466915831161016E+01 
    9.6290227361238045E+00 
    5.2630331476826715E+00 
    8.3020644400629511E+00 
    1.1471099820326184E+01 
    1.3008543094939245E+01 
    9.3147193630615330E+00 
    1.3112284613390868E+01 
    1.2892472710123329E+01 
    1.2845534577407351E+01 
    9.1451012445756881E+00 
    7.9122700704975593E+00 
    1.2719659994752206E+01 
    8.0257912891210701E+00 
    9.4133395484147506E+00 
    7.8645196495886589E+00 
    9.1799848813739491E+00 
    1.3051923375540284E+01 
    5.8182018576414380E+00 
    8.2174619876611086E+00 
    1.3598368342168255E+01 
    9.1588645139642288E+00 
    1.0409124160564092E+01 
    5.9704421740868252E+00 
    8.0840373630083366E+00 
    1.2872023381006771E+01 
    1.3164678439619218E+01 
    4.8610031417724056E+00 
    9.1615779377609972E+00 
    7.9021443456329727E+00 
    1.4376088551134620E+01 
    1.3861208444878429E+01 
    1.4628013148460822E+01 
    9.1818522813025272E+00 
    1.3027477491303619E+01 
    1.2669146046684206E+01 
    9.0605568108609784E+00 
    1.2712448874023861E+01 
    9.6668256487547275E+00 
    5.3310271427163443E+00 
    9.3825166939693503E+00 
    1.3586774858252916E+01 
    1.2709508599975017E+01 
    6.3342110463658052E+00 
    1.2736761755804228E+01 
    1.0364871014002468E+01 
    9.3260214136370436E+00 
    8.8758831599011341E+00 
    1.2587679474132390E+01 
    9.8804637708680030E+00 
    1.2724464225092191E+01 
    9.0297981444209245E+00 
    5.5267259714234100E+00 
    9.4816537471991715E+00 
    7.7680807685749871E+00 
    1.1651136061914842E+01 
    1.3771282628236834E+01 
    1.2718349907908198E+01 
    1.3651499990762852E+01 
    9.1096506979180898E+00 
    6.1664011665750582E+00 
    6.2550398546835151E+00 
    9.5200601279754355E+00 
    9.3886430909344014E+00 
    1.3226010502887933E+00 
    1.2267329890492187E+01 
    1.4109919070061993E+01 
    8.7482191829289384E+00 
    5.5573171988083345E+00 
    1.0672279962044680E+01 
    1.2735466699451873E+01 
    6.6058111809200533E+00 
    4.4740236962499580E+00 
    9.3597562005174613E+00 
    1.2825218033547433E+01 
    1.3412654688782835E+01 
    1.3307900508575303E+01 
    1.3168653923052325E+01 
    6.4409526670976556E+00 
    9.3186084337307591E+00 
    1.2282044716593081E+01 
    7.3426894274474908E+00 
    1.2987354803749071E+01 
    1.1205640967945014E+01 
    6.3523127188044048E+00 
    1.2836615948131593E+01 
    1.3674330393179325E+01 
    1.2837421837078715E+01 
    6.3585073995383219E+00 
    9.4430464267660259E+00 
    6.9948084547617357E+00 
    8.9043804818189773E+00 
    1.2727556530337258E+01 
    1.2716664526971032E+01 
    6.3959655285464398E+00 
    1.3540597677273519E+01 
    9.9591957414083758E+00 
    1.2752828929419875E+01 
    1.3512279510676391E+01 
    1.2737577559073486E+01 
    1.1875692878396288E+01 
    1.4426810545753067E+01 
    8.7110325914455267E+00 
    1.3622988979068738E+01 
    1.2781053231084595E+01 
    1.3691061389143467E+01 
    1.3534283257116586E+01 
    8.8047902786251324E+00 
    9.2468159560832408E+00 
    8.7389477476072255E+00 
    1.1425957056198728E+01 
    3.6506473663375298E+00 
    9.4449154241256430E+00 
    1.4549129176199919E+01 
    9.6691309095277607E+00 
    9.8439353455652689E+00 
    1.3665546661566898E+01 
    1.3886053514851559E+01 
    8.6603245469325625E+00 
    1.2740756172914484E+01 
    1.2713258068776483E+01 
    9.8324259668006615E+00 
    1.3492187776724307E+01 
    6.6741553059060896E+00 
    4.2271167545940598E+00 
    1.0094619027254844E+01 
    9.6826797891300043E+00 
    1.2718804474291659E+01 
    5.9758986384994346E+00 
    1.3229219400091226E+01 
    4.3039042192471522E+00 
    9.6191090372082293E+00 
    8.8543172384672477E+00 
    9.4183379638396882E+00 
    1.5821790392491563E+01 
    3.5481736019279762E+00 
    9.3618322431789789E+00 
    1.1137372499372091E+01 
    9.0163666644791522E+00 
    7.0441454453312868E+00 
    1.3337627507698086E+01 
    1.5387881536742208E+01 
    1.3474487761073368E+01 
    9.3040702101419956E+00 
    5.2357030039989665E+00 
    1.5245098856418979E+01 
    1.2971389508246977E+01 
    6.7509927889418169E+00 
    8.9347459597866656E+00 
    1.4067670343977044E+01 
    3.0167679714624671E+00 
    9.7296335148120399E+00 
    1.3443521995184437E+01 
    9.4322092746772324E+00 
    8.2049311737392436E+00 
    9.4014417557954566E+00 
    1.2487924557679404E+01 
    9.4110366700189498E+00 
    4.6629743349334678E+00 
    8.2102568583122382E-01 
    6.9950440966139142E+00 
    1.4273937788197175E+01 
    8.7383659225775272E+00 
    1.0699943270333282E+01 
    1.0206819038623289E+01 
    1.1711908280922847E+01 
    9.4459725186004793E+00 
    1.2885877661190269E+01 
    1.5835889058609464E+01 
    1.1128543552211255E+01 
    1.3597369230349804E+01 
    4.9567721046006075E-01 
    1.2718519362188282E+01 
    5.1603356918122039E+00 
    1.4713346577802497E+01 
    9.3753998084315295E+00 
    8.3251680079199559E+00 
    7.1362239588235248E+00 
    4.8954402729602418E+00 
    1.0523654104435435E+01 
    7.4121088319375641E+00 
    1.1553380021648795E+01 
    1.9996584679361273E+00 
    1.0393940491877789E+01 
    1.2657011035756646E+01 
    5.6731814041449846E+00 
    1.3173964331375744E+01 
    1.4523486362562855E+01 
    1.3032012288050613E+01 
    9.2451743123360686E+00 
    9.4126665655170392E+00 
    9.3680868249102804E+00 
    5.3066964193161352E+00 
    8.4906789550025028E+00 
    8.3454611406194452E+00 
    9.3572577588315280E+00 
    8.6749207409909488E+00 
    6.2541377887131511E-01 
    5.9228333993581046E+00 
    9.0429512109659616E+00 
    9.3330123511699838E+00 
    1.1869907021833539E+01 
    1.9852484107095927E+00 
    9.7949266056340853E+00 
    9.6873979613429455E+00 
    3.4119569668458700E+00 
    1.2911926748448280E+01 
    8.0434979799957258E+00 
    9.5492444065740738E+00 
    1.2967047952662936E+01 
    4.9134633727684580E+00 
    1.3019050192964837E+01 
    8.1511568326880806E+00 
    9.1169765279613690E-01 
    8.7966422407766593E+00 
    1.3552588121393153E+01 
    1.2718517058209253E+01 
    1.2736592361683364E+01 
    9.7326183671760322E+00 
    9.6231113594479663E+00 
    8.0242819215903776E+00 
    6.4312136412350114E+00 
    1.3068821142113709E+01 
    8.9330742955183933E+00 
    6.2773366585618238E+00 
    1.2731814508167666E+01 
    1.3373449537327231E+01 
    9.5498237838568052E+00 
    9.2043454419485400E+00 
    1.5717538704909920E+01 
    9.8332087332343576E+00 
    1.3088003770247489E+01 
    7.6162548036855426E+00 
    1.5864412516200517E+01 
    6.2184339049086930E+00 
    8.4190898331488704E+00 
    6.9754299818958705E+00 
    1.0046354959328156E+01 
    7.9906421065105455E+00 
    1.5848079059303414E+01 
    9.8776115163389679E+00 
    1.2428214702548205E+01 
    6.3976915462192236E+00 
    9.4436439805303500E+00 
    1.2940095180227436E+01 
    8.0216526754358597E+00 
    6.6867773080405319E+00 
    1.0354555640470714E+01 
    1.3158903688076473E+01 
    6.8687555484534357E+00 
    8.8731706815046838E+00 
    9.2306251349361972E+00 
    1.2695788207834225E+01 
    9.0431001746369581E+00 
    1.3132057748458323E+01 
    1.3718504620154075E+01 
    8.0501214201340527E+00 
    7.8848255622725318E+00 
    7.4534616962876248E+00 
    1.2826689527301742E+01 
    9.6973428012836962E+00 
    1.5426441488312033E+01 
    1.2087594900984937E+01 
    1.2901169106014720E+01 
    1.5122069627924049E+01 
    1.4530635774332827E+01 
    9.4920928689070294E+00 
    9.3425451391288661E+00 
    1.2504848139927139E+01 
    1.2753456494676144E+01 
    1.3231203364462573E+01 
    1.2990235084493474E+01 
    1.5737090406622974E+01 
    9.8327836070243677E+00 
    8.1436319837339859E+00 
    9.8195817910491137E+00 
    1.3636589473320697E+01 
    9.5906203101240912E+00 
    5.5348964470564725E+00 
    9.2296466570827906E+00 
    1.4035946479049075E+01 
    9.7209034376473724E+00 
    8.1538125064309845E+00 
    9.1724401156505966E+00 
    1.4141764508906260E+01 
    1.2756546816908564E+01 
    7.7273760599598553E+00 
    1.4272589879469001E+01 
    9.5229832132752623E+00 
    1.3229596401729157E+01 
    1.4154027849123683E+01 
    9.9310918407144815E+00 
    4.9162779425550154E+00 
    1.0325377720660427E+01 
    5.0876411808919846E+00 
    9.6389007937880837E+00 
    9.4311912750460252E+00 
    1.0867229102729260E+01 
    5.3806924285393514E+00 
    1.1534350735344180E+01 
    9.4562373332631253E+00 
    1.2981218192294765E+01 
    9.9011547803703319E+00 
    7.5355913556844811E+00 
    9.0552229675347249E+00 
    9.9170558906983430E+00 
    9.9300680055563610E+00 
    1.3762369363051851E+01 
    7.7732389690584887E+00 
    7.6373072491555041E+00 
    5.6629108545044815E+00 
    1.3257169004435633E+01 
    9.0935236278946903E+00 
    1.2563339492920786E+01 
    9.4012316245508014E+00 
    6.2030882484382941E+00 
    1.2782407455153516E+01 
    9.3726312841777943E+00 
    6.7765446233846536E+00 
    7.1896050226374664E+00 
    7.4505645539979071E+00 
    1.3009132662751258E+01 
    9.3591954835294100E+00 
    1.3607840092357939E+01 
    9.3270251251539911E+00 
    9.2637140639515660E+00 
    8.7938508054416484E+00 
    1.2859392005356598E+01 
    9.1819840203585699E+00 
    7.4900513004273126E+00 
    1.4518700039485172E+01 
    1.2934052859977509E+01 
    6.5185098485015391E+00 
    2.5059989093685280E+00 
    9.3487494222243974E+00 
    8.8036455106137819E+00 
    7.8782217964532579E+00 
    8.6063435185435413E+00 
    1.2906652080189659E+01 
    9.0672792188966245E+00 
    8.1977631422440371E+00 
    1.2773622589422564E+01 
    6.4594593682177743E+00 
    1.2467666618392991E+01 
    8.5099094623645453E+00 
    7.4212095788110615E+00 
    7.9558566562972644E+00 
    1.3309798423883311E+01 
    9.4217604002822490E+00 
    9.4304877224995334E+00 
    5.4621247538241207E+00 
    5.9130925232841776E+00 
    1.1844926172391311E+01 
    9.4409152233290357E+00 
    9.3888400808661956E+00 
    1.4258414917077795E+01 
    7.6389177290778436E+00 
    9.4537890330858598E+00 
    6.6820879346120545E+00 
    6.8939349724758889E+00 
    1.2852466545837599E+01 
    9.0752305614811828E+00 
    6.5315552230807707E+00 
    9.9358845473315327E+00 
    9.3090589597657907E+00 
    1.2855441605054629E+01 
    1.4348007074606921E+01 
    9.6224986450113925E-01 
    9.3535229965495716E+00 
    9.6811311199656647E+00 
    1.2915713410180860E+01 
    8.8671101934603360E+00 
    9.3934262330778910E+00 
    1.3811501394578984E+01 
    7.9893137614556160E+00 
    6.5908613614780176E+00 
    1.1403696061268658E+01 
    1.2731213475345028E+01 
    1.3689983983359486E+01 
    1.3948609233253935E+01 
    9.2001821087180389E+00 
    9.3454520949999260E+00 
    1.0588684147778626E+01 
    6.1898873600799744E+00 
    1.2849344165632180E+01 
    7.1115083854893930E+00 
    6.4497273312610748E+00 
    1.1797860643403403E+01 
    1.1097783958723458E+01 
    6.3238155494234061E+00 
    1.2764467409726588E+01 
    1.3676577694160951E+01 
    9.8473964582415050E+00 
    1.4446109289019208E+01 
    1.2794674208300991E+01 
    8.9377012051820195E+00 
    1.3429293717840935E+01 
    6.8978647529780295E+00 
    1.2748310601090356E+01 
    9.3525758853605758E+00 
    9.3141274253801321E+00 
    1.4421384272183111E+01 
    9.1246086929814094E+00 
    1.1527769040903875E+01 
    7.9412294298816164E+00 
    1.3788719074548535E+01 
    1.2662463675139154E+01 
    8.2934786430996166E+00 
    1.2708978709277202E+01 
    8.5204585474578316E+00 
    9.4057932691908324E+00 
    1.3638455522222591E+01 
    1.2983803832524147E+01 
    1.3679655071424918E+01 
    1.2918584402688239E+01 
    8.4958708532388520E+00 
    8.7062207622911991E+00 
    1.3686093500739618E+01 
    8.8253540396718719E+00 
    1.2600972837962406E+01 
    9.1158198505369228E+00 
    3.6807870266367360E+00 
    6.5197047992478447E+00 
    6.0319933766869216E+00 
    1.3641724738289660E+01 
    1.4353799678912010E+01 
    1.2725860329430391E+01 
    1.0919254524668089E+01 
    1.2991193536299383E+01 
    1.2771262269196665E+01 
    1.3314678078696762E+01 
    5.2724563105034257E+00 
    3.4322928229935532E+00 
    1.0724461135256565E+01 
    9.0216849672196879E+00 
    1.2907993932205990E+01 
    1.2905657698589255E+01 
    9.6994299652530849E+00 
    1.2940096858769726E+01 
    9.3399674873582583E+00 
    9.2566940487283365E+00 
    4.7579912768226684E+00 
    3.4188942995771163E+00 
    1.4138653922353608E+01 
    7.3248466334489670E+00 
    8.2365246999731614E+00 
    9.5992133494317606E+00 
    1.5718852936187234E+01 
    9.6900893615509798E+00 
    9.6528681419301989E+00 
    3.8887932315544820E+00 
    9.6908696441932474E+00 
    9.7038728780214676E+00 
    1.3202626573233783E+01 
    7.9604467690528411E+00 
    8.9903370662170943E+00 
    1.4300237651376124E+01 
    9.3616462447584414E+00 
    1.2740591891558402E+01 
    1.2980221747760167E+01 
    1.1636910505348688E+01 
    7.9596048259846128E+00 
    1.2917965413799038E+01 
    9.1589354762490647E+00 
    1.2925128732365348E+01 
    1.2683189547730480E+01 
    1.3659815641286507E+01 
    1.2917151366998597E+01 
    1.2143361794850728E+01 
    9.3507445507577049E+00 
    6.2752186080912216E+00 
    1.5593504863926130E+01 
    7.2583087474527170E+00 
    1.3595599268878789E+01 
    9.3482020071703662E+00 
    7.6786164282166576E+00 
    4.5982168263107672E+00 
    9.7367974315136419E+00 
    1.2905970705627096E+01 
    1.2902019227553192E+01 
    9.3850102313642054E+00 
    9.3424792203858544E+00 
    1.4500732403983045E+01 
    1.3893972434197034E+01 
    9.7073427932486229E+00 
    3.1943864887138247E+00 
    1.2111332127034908E+01 
    1.5845976904922505E+01 
    9.3540090900887929E+00 
    1.1269455604333237E+01 
    8.8640446418900574E+00 
    1.5452957149059856E+01 
    1.3969209968373246E+01 
    1.3714333409742585E+01 
    9.7275244231482212E+00 
    4.2868956880167985E+00 
    8.8230559174703149E+00 
    8.8892172945886827E+00 
    8.9325773842969252E+00 
    3.4755619780248335E+00 