# vtk DataFile Version 2.0
Pressure Field Data 
ASCII 
DATASET UNSTRUCTURED_GRID 

POINTS 2860 double 

    0.0000000000000000E+00     0.0000000000000000E+00     0.0000000000000000E+00 
    1.0000000000000000E+00     0.0000000000000000E+00     0.0000000000000000E+00 
    1.0000000000000000E+00     1.0000000000000000E+00     0.0000000000000000E+00 
    0.0000000000000000E+00     1.0000000000000000E+00     0.0000000000000000E+00 
    2.5000000000000000E-01     2.5000000000000000E-01     0.0000000000000000E+00 
    7.5000000000000000E-01     2.5000000000000000E-01     0.0000000000000000E+00 
    7.5000000000000000E-01     7.5000000000000000E-01     0.0000000000000000E+00 
    2.5000000000000000E-01     7.5000000000000000E-01     0.0000000000000000E+00 
    3.1249999999942091E-02     0.0000000000000000E+00     0.0000000000000000E+00 
    6.2499999999873469E-02     0.0000000000000000E+00     0.0000000000000000E+00 
    9.3749999999826514E-02     0.0000000000000000E+00     0.0000000000000000E+00 
    1.2499999999977961E-01     0.0000000000000000E+00     0.0000000000000000E+00 
    1.5624999999968961E-01     0.0000000000000000E+00     0.0000000000000000E+00 
    1.8749999999959971E-01     0.0000000000000000E+00     0.0000000000000000E+00 
    2.1874999999950970E-01     0.0000000000000000E+00     0.0000000000000000E+00 
    2.4999999999941969E-01     0.0000000000000000E+00     0.0000000000000000E+00 
    2.8124999999932920E-01     0.0000000000000000E+00     0.0000000000000000E+00 
    3.1249999999923850E-01     0.0000000000000000E+00     0.0000000000000000E+00 
    3.4374999999914790E-01     0.0000000000000000E+00     0.0000000000000000E+00 
    3.7499999999905720E-01     0.0000000000000000E+00     0.0000000000000000E+00 
    4.0624999999896660E-01     0.0000000000000000E+00     0.0000000000000000E+00 
    4.3749999999887590E-01     0.0000000000000000E+00     0.0000000000000000E+00 
    4.6874999999878530E-01     0.0000000000000000E+00     0.0000000000000000E+00 
    4.9999999999869471E-01     0.0000000000000000E+00     0.0000000000000000E+00 
    5.3124999999877620E-01     0.0000000000000000E+00     0.0000000000000000E+00 
    5.6249999999885780E-01     0.0000000000000000E+00     0.0000000000000000E+00 
    5.9374999999893940E-01     0.0000000000000000E+00     0.0000000000000000E+00 
    6.2499999999902101E-01     0.0000000000000000E+00     0.0000000000000000E+00 
    6.5624999999910261E-01     0.0000000000000000E+00     0.0000000000000000E+00 
    6.8749999999918421E-01     0.0000000000000000E+00     0.0000000000000000E+00 
    7.1874999999926570E-01     0.0000000000000000E+00     0.0000000000000000E+00 
    7.4999999999934730E-01     0.0000000000000000E+00     0.0000000000000000E+00 
    7.8124999999942890E-01     0.0000000000000000E+00     0.0000000000000000E+00 
    8.1249999999951039E-01     0.0000000000000000E+00     0.0000000000000000E+00 
    8.4374999999959199E-01     0.0000000000000000E+00     0.0000000000000000E+00 
    8.7499999999967359E-01     0.0000000000000000E+00     0.0000000000000000E+00 
    9.0624999999975520E-01     0.0000000000000000E+00     0.0000000000000000E+00 
    9.3749999999983680E-01     0.0000000000000000E+00     0.0000000000000000E+00 
    9.6874999999991840E-01     0.0000000000000000E+00     0.0000000000000000E+00 
    1.0000000000000000E+00     3.1249999999942091E-02     0.0000000000000000E+00 
    1.0000000000000000E+00     6.2499999999873469E-02     0.0000000000000000E+00 
    1.0000000000000000E+00     9.3749999999826514E-02     0.0000000000000000E+00 
    1.0000000000000000E+00     1.2499999999977961E-01     0.0000000000000000E+00 
    1.0000000000000000E+00     1.5624999999968961E-01     0.0000000000000000E+00 
    1.0000000000000000E+00     1.8749999999959971E-01     0.0000000000000000E+00 
    1.0000000000000000E+00     2.1874999999950970E-01     0.0000000000000000E+00 
    1.0000000000000000E+00     2.4999999999941969E-01     0.0000000000000000E+00 
    1.0000000000000000E+00     2.8124999999932920E-01     0.0000000000000000E+00 
    1.0000000000000000E+00     3.1249999999923850E-01     0.0000000000000000E+00 
    1.0000000000000000E+00     3.4374999999914790E-01     0.0000000000000000E+00 
    1.0000000000000000E+00     3.7499999999905720E-01     0.0000000000000000E+00 
    1.0000000000000000E+00     4.0624999999896660E-01     0.0000000000000000E+00 
    1.0000000000000000E+00     4.3749999999887590E-01     0.0000000000000000E+00 
    1.0000000000000000E+00     4.6874999999878530E-01     0.0000000000000000E+00 
    1.0000000000000000E+00     4.9999999999869471E-01     0.0000000000000000E+00 
    1.0000000000000000E+00     5.3124999999877620E-01     0.0000000000000000E+00 
    1.0000000000000000E+00     5.6249999999885780E-01     0.0000000000000000E+00 
    1.0000000000000000E+00     5.9374999999893940E-01     0.0000000000000000E+00 
    1.0000000000000000E+00     6.2499999999902101E-01     0.0000000000000000E+00 
    1.0000000000000000E+00     6.5624999999910261E-01     0.0000000000000000E+00 
    1.0000000000000000E+00     6.8749999999918421E-01     0.0000000000000000E+00 
    1.0000000000000000E+00     7.1874999999926570E-01     0.0000000000000000E+00 
    1.0000000000000000E+00     7.4999999999934730E-01     0.0000000000000000E+00 
    1.0000000000000000E+00     7.8124999999942890E-01     0.0000000000000000E+00 
    1.0000000000000000E+00     8.1249999999951039E-01     0.0000000000000000E+00 
    1.0000000000000000E+00     8.4374999999959199E-01     0.0000000000000000E+00 
    1.0000000000000000E+00     8.7499999999967359E-01     0.0000000000000000E+00 
    1.0000000000000000E+00     9.0624999999975520E-01     0.0000000000000000E+00 
    1.0000000000000000E+00     9.3749999999983680E-01     0.0000000000000000E+00 
    1.0000000000000000E+00     9.6874999999991840E-01     0.0000000000000000E+00 
    9.6875000000003686E-01     1.0000000000000000E+00     0.0000000000000000E+00 
    9.3750000000011691E-01     1.0000000000000000E+00     0.0000000000000000E+00 
    9.0625000000015765E-01     1.0000000000000000E+00     0.0000000000000000E+00 
    8.7500000000017863E-01     1.0000000000000000E+00     0.0000000000000000E+00 
    8.4375000000028044E-01     1.0000000000000000E+00     0.0000000000000000E+00 
    8.1250000000040856E-01     1.0000000000000000E+00     0.0000000000000000E+00 
    7.8125000000054956E-01     1.0000000000000000E+00     0.0000000000000000E+00 
    7.5000000000066480E-01     1.0000000000000000E+00     0.0000000000000000E+00 
    7.1875000000086831E-01     1.0000000000000000E+00     0.0000000000000000E+00 
    6.8750000000102829E-01     1.0000000000000000E+00     0.0000000000000000E+00 
    6.5625000000114431E-01     1.0000000000000000E+00     0.0000000000000000E+00 
    6.2500000000129829E-01     1.0000000000000000E+00     0.0000000000000000E+00 
    5.9375000000147926E-01     1.0000000000000000E+00     0.0000000000000000E+00 
    5.6250000000168354E-01     1.0000000000000000E+00     0.0000000000000000E+00 
    5.3125000000188671E-01     1.0000000000000000E+00     0.0000000000000000E+00 
    5.0000000000205835E-01     1.0000000000000000E+00     0.0000000000000000E+00 
    4.6875000000192979E-01     1.0000000000000000E+00     0.0000000000000000E+00 
    4.3750000000180111E-01     1.0000000000000000E+00     0.0000000000000000E+00 
    4.0625000000167238E-01     1.0000000000000000E+00     0.0000000000000000E+00 
    3.7500000000154382E-01     1.0000000000000000E+00     0.0000000000000000E+00 
    3.4375000000141509E-01     1.0000000000000000E+00     0.0000000000000000E+00 
    3.1250000000128642E-01     1.0000000000000000E+00     0.0000000000000000E+00 
    2.8125000000115769E-01     1.0000000000000000E+00     0.0000000000000000E+00 
    2.5000000000102918E-01     1.0000000000000000E+00     0.0000000000000000E+00 
    2.1875000000090050E-01     1.0000000000000000E+00     0.0000000000000000E+00 
    1.8750000000077180E-01     1.0000000000000000E+00     0.0000000000000000E+00 
    1.5625000000064329E-01     1.0000000000000000E+00     0.0000000000000000E+00 
    1.2500000000051459E-01     1.0000000000000000E+00     0.0000000000000000E+00 
    9.3750000000385914E-02     1.0000000000000000E+00     0.0000000000000000E+00 
    6.2500000000257239E-02     1.0000000000000000E+00     0.0000000000000000E+00 
    3.1250000000128557E-02     1.0000000000000000E+00     0.0000000000000000E+00 
    0.0000000000000000E+00     9.6875000000003686E-01     0.0000000000000000E+00 
    0.0000000000000000E+00     9.3750000000011691E-01     0.0000000000000000E+00 
    0.0000000000000000E+00     9.0625000000015765E-01     0.0000000000000000E+00 
    0.0000000000000000E+00     8.7500000000017863E-01     0.0000000000000000E+00 
    0.0000000000000000E+00     8.4375000000028044E-01     0.0000000000000000E+00 
    0.0000000000000000E+00     8.1250000000040856E-01     0.0000000000000000E+00 
    0.0000000000000000E+00     7.8125000000054956E-01     0.0000000000000000E+00 
    0.0000000000000000E+00     7.5000000000066480E-01     0.0000000000000000E+00 
    0.0000000000000000E+00     7.1875000000086831E-01     0.0000000000000000E+00 
    0.0000000000000000E+00     6.8750000000102829E-01     0.0000000000000000E+00 
    0.0000000000000000E+00     6.5625000000114431E-01     0.0000000000000000E+00 
    0.0000000000000000E+00     6.2500000000129829E-01     0.0000000000000000E+00 
    0.0000000000000000E+00     5.9375000000147926E-01     0.0000000000000000E+00 
    0.0000000000000000E+00     5.6250000000168354E-01     0.0000000000000000E+00 
    0.0000000000000000E+00     5.3125000000188671E-01     0.0000000000000000E+00 
    0.0000000000000000E+00     5.0000000000205835E-01     0.0000000000000000E+00 
    0.0000000000000000E+00     4.6875000000192979E-01     0.0000000000000000E+00 
    0.0000000000000000E+00     4.3750000000180111E-01     0.0000000000000000E+00 
    0.0000000000000000E+00     4.0625000000167238E-01     0.0000000000000000E+00 
[...]
CELL_DATA 2795 
SCALARS Pressure double 1 
LOOKUP_TABLE default 

    7.7795014933071585E+00 
    2.0232315231690368E+01 
    1.3038609870755538E+01 
    1.2651125950381584E+01 
    9.6870942211800823E+00 
    1.9752877223754879E+01 
    2.1125206911034226E+01 
    6.8899377012832783E+00 
    1.3741778572335422E+01 
    1.0326276021576835E+01 
    8.6947930673022551E+00 
    1.9292282671837761E+01 
    1.9996472379691319E+01 
    1.9686476486406782E+01 
    1.1921814184410819E+01 
    6.7668715587408146E+00 
    1.1386900704634712E+01 
    9.3003220694540918E+00 
    1.8605264774756439E+01 
    1.3016373236036628E+01 
    1.2877754255786408E+01 
    1.9546034444951612E+01 
    1.2218942970692915E+01 
    4.4727222868023037E-01 
    1.9369144098018214E+01 
    2.0027559708873859E+01 
    2.1189769259966695E+01 
    8.3370534070983080E+00 
    1.9140292769819663E+01 
    2.1242531507377322E+01 
    1.3301323403775385E+01 
    1.3289126589644701E+01 
    9.0313667710496492E+00 
    1.2989382686236276E+01 
    4.0240669742925004E+00 
    1.1392604781575468E+01 
    1.2971174268966791E+01 
    2.1308570629862899E+01 
    2.1092994497304677E+01 
    1.9313543703409476E+01 
    9.6011812750009842E+00 
    1.9486497513628308E+01 
    9.2834207278574421E-01 
    1.2996365454201616E+01 
    2.0867256137906615E+01 
    2.0388771159848158E+01 
    1.9275007722865134E+01 
    1.4269531154551085E+01 
    1.9297243889763550E+01 
    1.1692160098657730E+01 
    1.1047800896844191E+01 
    1.3244395017469305E+01 
    1.2853915300845342E+01 
    1.1466235692967469E+01 
    1.3405296064580924E+01 
    1.8223427272753273E+01 
    1.5755725329098880E+01 
    9.7423698707630564E+00 
    1.9568469710956368E+01 
    1.9411156748119151E+01 
    1.2616276202067173E+01 
    1.2497956769904242E+01 
    1.2502316599569440E+01 
    2.1079278906412060E+01 
    2.1535281733969917E+01 
    1.1403871593949344E+01 
    1.3242791768112653E+01 
    1.8901396130974735E+01 
    1.5535341917683180E+01 
    1.2551370125608230E+01 
    2.1447602819486136E+01 
    1.9671737262291813E+01 
    1.1206719539662318E+01 
    2.0544948409746446E+01 
    1.3755218107222198E+01 
    1.9160467166504947E+01 
    2.1341382858466044E+01 
    1.3775529452587712E+01 
    7.9229721569719818E+00 
    1.3266451790220660E+01 
    2.1097784748678205E+01 
    2.1560278914267638E+01 
    1.1453932697194945E+01 
    1.3165401536439573E+01 
    2.1616526596104837E+01 
    1.2970932908070768E+01 
    1.2362503168192054E+01 
    1.6213712427702681E+01 
    7.5440885941287936E+00 
    1.1079745669240545E+01 
    1.3162938755634128E+01 
    1.3940202005138568E+01 
    2.3711718459106468E+01 
    9.3981558098807607E+00 
    1.3253054620948793E+01 
    1.9244503450747210E+01 
    1.9888937417949620E+01 
    8.1987392067911173E+00 
    1.2791437871429915E+01 
    1.3204741901239180E+01 
    1.9940566600779452E+01 
    1.3198459803061729E+01 
    1.9795919323157996E+01 
    4.8612035149323640E+00 
    8.4430872902194736E+00 
    1.3537475665484189E+01 
    2.0252274087586553E+01 
    1.1331348050765513E+01 
    1.2279044516434002E+01 
    1.3174291070403912E+01 
    1.2313539048155521E+01 
    1.5224081077849542E+01 
    1.1884060766944982E+01 
    1.1220965375760837E+01 
    8.6517890178742949E+00 
    1.6209438936855186E+01 
    1.3293639259363461E+01 
    2.0951305131240854E+01 
    1.1289421750870282E+01 
    1.2620608695265021E+01 
    1.9699490219864767E+01 
    1.0191398959801086E+01 
    2.0499420713930629E+01 
    1.3069198395336343E+01 
    1.2515496100515703E+01 
    1.9903982231877901E+01 
    1.3282491498757599E+01 
    2.1317978633596521E+01 
    1.6251113013491086E+01 
    1.7923565925635984E+01 
    2.1219318343135516E+01 
    9.4163310457045100E+00 
    1.3563354179097621E+01 
    1.9970857577226489E+01 
    3.6131579347039615E+00 
    1.3373112678744324E+01 
    2.1159301943141237E+01 
    1.2557065481098617E+01 
    1.4785162676330339E+01 
    8.1249436449004477E+00 
    1.9280934052804316E+01 
    2.4353711348959838E+01 
    1.7029732577966190E+01 
    1.2558852058878205E+01 
    1.0941465489833956E+01 
    1.4362024369667118E+01 
    1.3091537198418877E+01 
    8.7860116609345962E+00 
    2.1231121228193722E+01 
    1.9875849499718687E+01 
    1.9249983891189512E+01 
    1.3946161824938754E+01 
    1.1179788104167292E+01 
    1.2873464824767105E+01 
    2.0574593338570249E+01 
    1.1548549595071755E+01 
    1.3229476003079833E+01 
    1.1824585763028153E+01 
    1.6081896123892037E+01 
    2.4338611110496565E+01 
    1.9223550776658193E+01 
    1.1118069722971278E+01 
    2.0272271692778340E+01 
    2.0180105859178521E+01 
    2.0317494028668410E+01 
    2.1951078398173202E+01 
    2.2744043359337645E+01 
    2.0330453457104312E+01 
    1.3232082696123777E+01 
    1.4539216323431161E+01 
    1.9992204604030132E+01 
    2.0912072640480766E+01 
    9.1869667431794433E+00 
    1.9266273743145721E+01 
    2.0486185717686755E+01 
    8.9376287931605258E+00 
    2.1848604392898320E+01 
    2.1790165986855943E+01 
    1.8721485712878049E+01 
    1.3657593496070685E+01 
    3.3217300989491325E+00 
    2.1174433066791799E+01 
    1.3456023632566243E+01 
    2.1448216197809455E+01 
    1.2448957178242397E+01 
    2.0805028823785456E+01 
    1.1624388400812387E+00 
    1.7913910730366226E+01 
    1.2557671384038049E+01 
    1.1110974050287810E+01 
    1.0791295736908136E+01 
    1.3027750621473151E+01 
    1.4655502145140440E+01 
    1.3843099616839696E+01 
    8.7860921177908420E+00 
    2.0931767996284862E+01 
    2.0029658378218834E+01 
    1.5714031894222547E+01 
    1.3525308728170002E+01 
    1.8150770082165633E+00 
    9.8820501450728084E+00 
    6.7012093527461394E+00 
    2.1268382643809137E+01 
    1.5068840275107913E+01 
    1.9827216344197357E+01 
    2.0137017431600754E+01 
    1.1716275305888100E+01 
    1.5879809449569230E+01 
    1.9215402100685878E+01 
    2.1768253326889091E+01 
    8.0956317596356442E+00 
    1.7088598623480518E+01 
    1.3830888616774935E+01 
    7.1558591862826599E+00 
    1.1674312699669604E+01 
    1.6759076373821408E+01 
    2.0075163148596317E+01 
    1.3096905707197795E+01 
    2.0274768995769872E+01 
    1.9848923404240722E+01 
    1.9768759280427510E+01 
    1.2880308101407271E+01 
    1.1069884542827236E+01 
    1.9268477177831141E+01 
    1.1210207897472063E+01 
    1.3206946285221260E+01 
    1.0950469106000563E+01 
    1.3160435047548415E+01 
    2.0147332706187264E+01 
    7.9476118952329342E+00 
    1.1535927219817369E+01 
    2.1089447847377564E+01 
    1.2894367624220802E+01 
    1.4910795543839553E+01 
    8.1531330668310371E+00 
    1.1301535357665356E+01 
    1.9806834754995389E+01 
    2.0372474298705619E+01 
    6.6518725753763475E+00 
    1.2906455092389498E+01 
    1.1028592841940767E+01 
    2.2411543262573502E+01 
    2.1578946811867478E+01 
    2.2793318915633026E+01 
    1.2933466794416486E+01 
    2.0108545254631920E+01 
    1.9113757222090879E+01 
    1.2753447580295338E+01 
    1.9243863574500381E+01 
    1.3525611713045084E+01 
    7.2540906561536609E+00 
    1.3430861930913808E+01 
    2.1110155714508018E+01 
    1.9236095916846736E+01 
    8.6418062896935091E+00 
    1.9282561855366676E+01 
    1.4696065036807644E+01 
    1.3343291574244999E+01 
    1.2667784587591836E+01 
    1.8974620728337509E+01 
    1.4116964668571301E+01 
    1.9271398080634562E+01 
    1.2907067738413412E+01 
    7.5227553848737907E+00 
    1.3302443728881629E+01 
    1.0812078399566815E+01 
    1.7066990051860198E+01 
    2.1387883444505789E+01 
    1.9276744134094262E+01 
    2.1146303158315245E+01 
    1.2821157128596724E+01 
    8.4182077794108743E+00 
    8.5423816084541588E+00 
    1.3620979934821467E+01 
    1.3173341060584944E+01 
    1.8254296044956491E+00 
    1.8273196868371478E+01 
    2.2016625733495403E+01 
    1.2472469410769641E+01 
    7.5797916738608420E+00 
    1.5609480820860723E+01 
    1.9270601807927306E+01 
    9.0873847974883510E+00 
    6.0381061978637511E+00 
    1.3147930284743326E+01 
    1.9465968115018185E+01 
    2.0807983691751772E+01 
    2.0347019034480539E+01 
    2.0382081032810778E+01 
    8.8544485278878202E+00 
    1.3334591894922513E+01 
    1.8686260920267522E+01 
    1.0124667007137807E+01 
    1.9969935682212437E+01 
    1.6236823280503973E+01 
    8.6696760213534425E+00 
    1.9381016441526850E+01 
    2.1283599638289129E+01 
    1.9602440701851897E+01 
    8.7345862288894338E+00 
    1.3237796802436618E+01 
    9.6560136830851278E+00 
    1.2445388645699454E+01 
    1.9265501702049459E+01 
    1.9248468405401425E+01 
    8.7864978234051598E+00 
    2.0864144891451716E+01 
    1.4014240330594365E+01 
    1.9368944254063994E+01 
    2.1001863273492088E+01 
    1.9315754151291472E+01 
    1.7425985007791432E+01 
    2.2512972390761462E+01 
    1.2395901124261888E+01 
    2.1092968563666791E+01 
    1.9377837526451245E+01 
    2.1228842044703274E+01 
    2.0840921366235829E+01 
    1.2551936583226420E+01 
    1.3024916535032284E+01 
    1.2458495968326543E+01 
    1.6568752470423529E+01 
    4.8846141424277452E+00 
    1.3525634265649071E+01 
    2.2684727862151192E+01 
    1.3533121058098471E+01 
    1.3821071554555015E+01 
    2.1177627010427706E+01 
    2.1547225541552717E+01 
    1.2277980963057008E+01 
    1.9286308482502722E+01 
    1.9254940851943498E+01 
    1.3801625813578767E+01 
    2.0747256120373475E+01 
    9.1326980134376150E+00 
    5.7878512112762275E+00 
    1.4239784477653266E+01 
    1.3550760816260606E+01 
    1.9230507146206065E+01 
    8.1777193964414412E+00 
    2.0203643916930009E+01 
    5.9023622257286839E+00 
    1.3465117908138335E+01 
    1.2589733459808071E+01 
    1.3207704825360105E+01 
    2.4399488371632650E+01 
    4.7372195478810060E+00 
    1.3399655129996658E+01 
    1.6708858246649005E+01 
    1.2684907375072722E+01 
    9.7422044087040955E+00 
    2.0513340415747507E+01 
    2.3824585090799719E+01 
    2.0788808892401004E+01 
    1.3308296835953568E+01 
    7.1141617641229455E+00 
    2.3643037313210602E+01 
    1.9990540048980034E+01 
    9.2816708317125833E+00 
    1.2779566364791645E+01 
    2.1922217679167911E+01 
    4.0155313895434341E+00 
    1.3630807039745367E+01 
    2.0887652554475174E+01 
    1.3226117491254081E+01 
    1.1406633703920125E+01 
    1.3460269698328839E+01 
    1.8805836899979553E+01 
    1.3202417782123170E+01 
    6.2959504032912861E+00 
    1.1476967340389248E+00 
    9.6206795482041052E+00 
    2.2285372437933287E+01 
    1.2457908569961349E+01 
    1.5355499726311619E+01 
    1.4587690209765150E+01 
    1.7195145692422521E+01 
    1.3243443546735547E+01 
    1.9820559947522646E+01 
    2.4416776652604096E+01 
    1.6084480359924118E+01 
    2.1042638987891728E+01 
    6.6954406587646875E-01 
    1.9247780701222961E+01 
    7.0138805469155505E+00 
    2.2915443021276971E+01 
    1.3420426561957147E+01 
    1.1622613749710393E+01 
    9.8620452551778595E+00 
    6.6330054765523716E+00 
    1.4961681918420938E+01 
    1.0237431805295225E+01 
    1.6890515624765811E+01 
    2.7868087713634608E+00 
    1.4754102585218776E+01 
    1.9099445639085154E+01 
    7.7402406256860017E+00 
    2.0086008562899110E+01 
    2.2553166299509492E+01 
    1.9892108676757914E+01 
    1.3214521068045842E+01 
    1.3200411686437565E+01 
    1.3409330323492462E+01 
    7.2142885856652397E+00 
    1.2006364709622041E+01 
    1.1745750141767402E+01 
    1.3392601921671288E+01 
    1.2348051633480649E+01 
    8.5852902762477079E-01 
    8.0886049013555716E+00 
    1.2940434639207528E+01 
    1.3354309102802143E+01 
    1.7479340400849392E+01 
    2.6228491102817810E+00 
    1.3739233011883307E+01 
    1.3561598005546291E+01 
    4.5529077297397924E+00 
    1.9624468144080939E+01 
    1.1265686913952582E+01 
    1.3374150840016306E+01 
    1.9958817858827306E+01 
    6.6528684609730178E+00 
    1.9794047835304429E+01 
    1.1401931059499047E+01 
    1.1804359549233343E+00 
    1.2554167140044644E+01 
    2.0959838117376396E+01 
    1.9260246324789406E+01 
    1.9301744242386480E+01 
    1.3934043410158750E+01 
    1.3468827354646470E+01 
    1.1213429906150674E+01 
    8.8302604073193312E+00 
    2.0126377858223439E+01 
    1.2771693350223167E+01 
    8.5865081067709266E+00 
    1.9285143951641075E+01 
    2.0591615133403653E+01 
    1.3655103122720833E+01 
    1.2957650322397555E+01 
    2.4262953353676910E+01 
    1.3803123716959830E+01 
    2.0211318879705537E+01 
    1.0587431757660944E+01 
    2.4447966247015756E+01 
    8.4922788328629668E+00 
    1.1888282290851503E+01 
    9.5604399017343571E+00 
    1.4163367110039982E+01 
    1.1087448573204194E+01 
    2.4428723000938618E+01 
    1.3877870363942264E+01 
    1.8781452341489089E+01 
    8.7365766552750248E+00 
    1.3237840900233058E+01 
    1.9940191770767964E+01 
    1.1126687336559215E+01 
    9.2133954148039265E+00 
    1.5197626593002028E+01 
    2.0120929069769584E+01 
    9.4248931448873261E+00 
    1.2621562049520143E+01 
    1.3003358864284468E+01 
    1.9209149214119236E+01 
    1.2720746228553644E+01 
    2.0317270415904574E+01 
    2.1280403954939185E+01 
    1.1244197797049194E+01 
    1.0994444116964745E+01 
    1.0290610313180581E+01 
    1.9446362723256648E+01 
    1.3579986954880560E+01 
    2.3875047116186664E+01 
    1.7679822298356896E+01 
    1.9852436555442488E+01 
    2.3471606498830127E+01 
    2.2559318618753530E+01 
    1.3297809787770952E+01 
    1.3369483238799678E+01 
    1.8738986201412793E+01 
    1.9308358790807254E+01 
    2.0439859235254733E+01 
    2.0017020325966527E+01 
    2.4295918416461049E+01 
    1.3802370950940160E+01 
    1.1421020543166520E+01 
    1.3757080684876639E+01 
    2.1116830982036817E+01 
    1.3422070945387878E+01 
    7.5500500716356518E+00 
    1.3189923014064654E+01 
    2.1882949941821671E+01 
    1.3615644735644944E+01 
    1.1410119067461482E+01 
    1.2924219607062632E+01 
    2.2050434355728751E+01 
    1.9614867323195330E+01 
    1.0763956479533872E+01 
    2.2249680526571147E+01 
    1.3335141851650615E+01 
    2.0490975295157426E+01 
    2.2060760314795186E+01 
    1.4276407288710036E+01 
    6.6659854035417512E+00 
    1.4952905843604476E+01 
    6.9040655508928914E+00 
    1.3487338802553669E+01 
    1.3230014853328521E+01 
    1.5907123917975959E+01 
    7.3211996802729100E+00 
    1.7142897039440104E+01 
    1.3253720201803155E+01 
    2.0005335148133373E+01 
    1.4559973171342667E+01 
    1.0472332450994742E+01 
    1.2744280955127445E+01 
    1.4168189897674065E+01 
    1.3963554038461545E+01 
    2.1443939343206083E+01 
    1.0814281480258064E+01 
    1.0605437272965766E+01 
    7.7242063753090102E+00 
    2.0531672040829875E+01 
    1.2803934842506402E+01 
    1.9180072685002937E+01 
    1.3190795515552479E+01 
    8.5026677096853245E+00 
    1.9614473779606254E+01 
    1.3159610608863199E+01 
    9.3395402425241230E+00 
    9.9470826424274126E+00 
    1.0333413618049097E+01 
    2.0045062039370062E+01 
    1.3395629372358039E+01 
    2.1049401059069311E+01 
    1.3106888418066639E+01 
    1.3026603137651501E+01 
    1.2496995900569217E+01 
    1.9766059150731472E+01 
    1.2915707472815145E+01 
    1.0384713917165394E+01 
    2.2551392227706600E+01 
    1.9897824624223187E+01 
    8.9077243271121542E+00 
    3.3120178298526466E+00 
    1.3379672514263103E+01 
    1.2348540665824139E+01 
    1.0979931770158903E+01 
    1.2194239629178192E+01 
    1.9584737023740573E+01 
    1.2933919975213882E+01 
    1.1524716343568960E+01 
    1.9348592119451617E+01 
    8.8275041631499160E+00 
    1.8681572750147087E+01 
    1.1893473691526991E+01 
    1.0304228656049897E+01 
    1.1109755684521048E+01 
    2.0634423540406260E+01 
    1.3211296048442962E+01 
    1.3221981270942090E+01 
    7.4399152732942149E+00 
    8.0893757412665650E+00 
    1.7590519927942349E+01 
    1.3234731350824099E+01 
    1.3440306879942167E+01 
    2.2240127827978704E+01 
    1.0611707627223131E+01 
    1.3250663042877664E+01 
    9.1543456442368143E+00 
    9.4681485812754342E+00 
    1.9690267870675790E+01 
    1.2759607214115801E+01 
    8.9809232443308176E+00 
    1.3948099983701219E+01 
    1.3098527486756270E+01 
    1.9718573384260999E+01 
    2.2375175311860250E+01 
    1.2474317073573942E+00 
    1.3387091977791203E+01 
    1.3549158537893815E+01 
    1.9873624781973845E+01 
    1.2662963789952562E+01 
    1.3176476575377380E+01 
    2.1523420478722834E+01 
    1.1142072284770460E+01 
    9.0661510318885892E+00 
    1.6395131025956115E+01 
    1.9279181008700490E+01 
    2.1216369902730889E+01 
    2.1720461437116501E+01 
    1.3147733257836579E+01 
    1.3374177984616006E+01 
    1.5038351219515411E+01 
    8.4429384400971585E+00 
    1.9484202606222762E+01 
    9.8224729864798270E+00 
    8.8106138114216606E+00 
    1.7163520588307311E+01 
    1.5929283422084726E+01 
    8.6317039424335960E+00 
    1.9336297960504435E+01 
    2.1194845587440213E+01 
    1.3826928897394506E+01 
    2.2526594736473406E+01 
    1.9387538564755598E+01 
    1.2752236374000050E+01 
    2.0624124170229575E+01 
    9.4677859492096346E+00 
    1.9296633147082062E+01 
    1.3385478607331621E+01 
    1.3327499524877192E+01 
    2.2502672023214640E+01 
    1.2854464594380079E+01 
    1.6719061691061963E+01 
    1.1076669877116071E+01 
    2.1410088354026424E+01 
    1.9120282070003530E+01 
    1.1635380157767809E+01 
    1.9268215942599355E+01 
    1.1897546847823270E+01 
    1.3187382229897874E+01 
    2.1122846801800602E+01 
    1.9967682726733258E+01 
    2.1199349154577096E+01 
    1.9874626279850936E+01 
    1.2029298626908776E+01 
    1.2376446691533040E+01 
    2.1215123925421029E+01 
    1.2571310495554959E+01 
    1.8938301301103493E+01 
    1.2835253318247892E+01 
    4.9338293068092822E+00 
    8.9112577494784855E+00 
    8.2370136638236939E+00 
    2.1128736728733418E+01 
    2.2390088192536499E+01 
    1.9281671722136394E+01 
    1.5558128240929731E+01 
    1.9764225019394264E+01 
    1.9339641561510525E+01 
    2.0468251620152301E+01 
    7.1633133831826026E+00 
    4.5827212407064044E+00 
    1.5212872672258371E+01 
    1.2894679363821894E+01 
    1.9603776361181467E+01 
    1.9601102939829271E+01 
    1.3575066470050373E+01 
    1.9668947981861713E+01 
    1.3365556862926837E+01 
    1.3231380785045431E+01 
    6.4342574872144400E+00 
    4.5562968070954604E+00 
    2.2041402548222731E+01 
    1.0109654282456331E+01 
    1.1552539242693905E+01 
    1.3438176965273993E+01 
    2.4269221992037114E+01 
    1.3562536895887462E+01 
    1.3818832698347920E+01 
    5.2496630226110490E+00 
    1.3562323089845425E+01 
    1.3581668223819284E+01 
    2.0131923912268935E+01 
    1.1126141526609388E+01 
    1.2614680277071137E+01 
    2.2299533348385438E+01 
    1.3399642797870266E+01 
    1.9301398416268036E+01 
    1.9708767310193853E+01 
    1.6817765566462711E+01 
    1.1079588277912272E+01 
    1.9867806964320813E+01 
    1.3094514905790493E+01 
    1.9618980797035153E+01 
    1.9180289820384207E+01 
    2.1163931286803912E+01 
    1.9886996237336160E+01 
    1.7951140995643712E+01 
    1.3382564259837574E+01 
    8.5678260452222705E+00 
    2.4108649144152043E+01 
    1.0045865266364947E+01 
    2.1112736523507223E+01 
    1.3378672820511724E+01 
    1.0699977850641604E+01 
    6.2241838805671339E+00 
    1.3632209135143709E+01 
    1.9852514429828762E+01 
    1.9824410800846369E+01 
    1.3161960082700940E+01 
    1.3369931382151687E+01 
    2.2588083585470574E+01 
    2.1626939857051941E+01 
    1.3590275060809430E+01 
    4.2644897177301422E+00 
    1.7801132743944738E+01 
    2.4422133762546558E+01 
    1.3387544516827834E+01 
    1.6161371441397630E+01 
    1.2661672488251627E+01 
    2.3919734257508903E+01 
    2.1753174490282994E+01 
    2.1347279506188023E+01 
    1.3621442724324679E+01 
    5.8336950164247616E+00 
    1.2599268958822439E+01 
    1.2696606580582534E+01 
    1.2756822230850307E+01 
    4.6773866928202272E+00 