# vtk DataFile Version 2.0
Pressure Field Data 
ASCII 
DATASET UNSTRUCTURED_GRID 

POINTS 2860 double 

    0.0000000000000000E+00     0.0000000000000000E+00     0.0000000000000000E+00 
    1.0000000000000000E+00     0.0000000000000000E+00     0.0000000000000000E+00 
    1.0000000000000000E+00     1.0000000000000000E+00     0.0000000000000000E+00 
    0.0000000000000000E+00     1.0000000000000000E+00     0.0000000000000000E+00 
    2.5000000000000000E-01     2.5000000000000000E-01     0.0000000000000000E+00 
    7.5000000000000000E-01     2.5000000000000000E-01     0.0000000000000000E+00 
    7.5000000000000000E-01     7.5000000000000000E-01     0.0000000000000000E+00 
    2.5000000000000000E-01     7.5000000000000000E-01     0.0000000000000000E+00 
    3.1249999999942091E-02     0.0000000000000000E+00     0.0000000000000000E+00 
    6.2499999999873469E-02     0.0000000000000000E+00     0.0000000000000000E+00 
    9.3749999999826514E-02     0.0000000000000000E+00     0.0000000000000000E+00 
    1.2499999999977961E-01     0.0000000000000000E+00     0.0000000000000000E+00 
    1.5624999999968961E-01     0.0000000000000000E+00     0.0000000000000000E+00 
    1.8749999999959971E-01     0.0000000000000000E+00     0.0000000000000000E+00 
    2.1874999999950970E-01     0.0000000000000000E+00     0.0000000000000000E+00 
    2.4999999999941969E-01     0.0000000000000000E+00     0.0000000000000000E+00 
    2.8124999999932920E-01     0.0000000000000000E+00     0.0000000000000000E+00 
    3.1249999999923850E-01     0.0000000000000000E+00     0.0000000000000000E+00 
    3.4374999999914790E-01     0.0000000000000000E+00     0.0000000000000000E+00 
    3.7499999999905720E-01     0.0000000000000000E+00     0.0000000000000000E+00 
    4.0624999999896660E-01     0.0000000000000000E+00     0.0000000000000000E+00 
    4.3749999999887590E-01     0.0000000000000000E+00     0.0000000000000000E+00 
    4.6874999999878530E-01     0.0000000000000000E+00     0.0000000000000000E+00 
    4.9999999999869471E-01     0.0000000000000000E+00     0.0000000000000000E+00 
    5.3124999999877620E-01     0.0000000000000000E+00     0.0000000000000000E+00 
    5.6249999999885780E-01     0.0000000000000000E+00     0.0000000000000000E+00 
    5.9374999999893940E-01     0.0000000000000000E+00     0.0000000000000000E+00 
    6.2499999999902101E-01     0.0000000000000000E+00     0.0000000000000000E+00 
    6.5624999999910261E-01     0.0000000000000000E+00     0.0000000000000000E+00 
    6.8749999999918421E-01     0.0000000000000000E+00     0.0000000000000000E+00 
    7.1874999999926570E-01     0.0000000000000000E+00     0.0000000000000000E+00 
    7.4999999999934730E-01     0.0000000000000000E+00     0.0000000000000000E+00 
    7.8124999999942890E-01     0.0000000000000000E+00     0.0000000000000000E+00 
    8.1249999999951039E-01     0.0000000000000000E+00     0.0000000000000000E+00 
    8.4374999999959199E-01     0.0000000000000000E+00     0.0000000000000000E+00 
    8.7499999999967359E-01     0.0000000000000000E+00     0.0000000000000000E+00 
    9.0624999999975520E-01     0.0000000000000000E+00     0.0000000000000000E+00 
    9.3749999999983680E-01     0.0000000000000000E+00     0.0000000000000000E+00 
    9.6874999999991840E-01     0.0000000000000000E+00     0.0000000000000000E+00 
    1.0000000000000000E+00     3.1249999999942091E-02     0.0000000000000000E+00 
    1.0000000000000000E+00     6.2499999999873469E-02     0.0000000000000000E+00 
    1.0000000000000000E+00     9.3749999999826514E-02     0.0000000000000000E+00 
    1.0000000000000000E+00     1.2499999999977961E-01     0.0000000000000000E+00 
    1.0000000000000000E+00     1.5624999999968961E-01     0.0000000000000000E+00 
    1.0000000000000000E+00     1.8749999999959971E-01     0.0000000000000000E+00 
    1.0000000000000000E+00     2.1874999999950970E-01     0.0000000000000000E+00 
    1.0000000000000000E+00     2.4999999999941969E-01     0.0000000000000000E+00 
    1.0000000000000000E+00     2.8124999999932920E-01     0.0000000000000000E+00 
    1.0000000000000000E+00     3.1249999999923850E-01     0.0000000000000000E+00 
    1.0000000000000000E+00     3.4374999999914790E-01     0.0000000000000000E+00 
    1.0000000000000000E+00     3.7499999999905720E-01     0.0000000000000000E+00 
    1.0000000000000000E+00     4.0624999999896660E-01     0.0000000000000000E+00 
    1.0000000000000000E+00     4.3749999999887590E-01     0.0000000000000000E+00 
    1.0000000000000000E+00     4.6874999999878530E-01     0.0000000000000000E+00 
    1.0000000000000000E+00     4.9999999999869471E-01     0.0000000000000000E+00 
    1.0000000000000000E+00     5.3124999999877620E-01     0.0000000000000000E+00 
    1.0000000000000000E+00     5.6249999999885780E-01     0.0000000000000000E+00 
    1.0000000000000000E+00     5.9374999999893940E-01     0.0000000000000000E+00 
    1.0000000000000000E+00     6.2499999999902101E-01     0.0000000000000000E+00 
    1.0000000000000000E+00     6.5624999999910261E-01     0.0000000000000000E+00 
    1.0000000000000000E+00     6.8749999999918421E-01     0.0000000000000000E+00 
    1.0000000000000000E+00     7.1874999999926570E-01     0.0000000000000000E+00 
    1.0000000000000000E+00     7.4999999999934730E-01     0.0000000000000000E+00 
    1.0000000000000000E+00     7.8124999999942890E-01     0.0000000000000000E+00 
    1.0000000000000000E+00     8.1249999999951039E-01     0.0000000000000000E+00 
    1.0000000000000000E+00     8.4374999999959199E-01     0.0000000000000000E+00 
    1.0000000000000000E+00     8.7499999999967359E-01     0.0000000000000000E+00 
    1.0000000000000000E+00     9.0624999999975520E-01     0.0000000000000000E+00 
    1.0000000000000000E+00     9.3749999999983680E-01     0.0000000000000000E+00 
    1.0000000000000000E+00     9.6874999999991840E-01     0.0000000000000000E+00 
    9.6875000000003686E-01     1.0000000000000000E+00     0.0000000000000000E+00 
    9.3750000000011691E-01     1.0000000000000000E+00     0.0000000000000000E+00 
    9.0625000000015765E-01     1.0000000000000000E+00     0.0000000000000000E+00 
    8.7500000000017863E-01     1.0000000000000000E+00     0.0000000000000000E+00 
    8.4375000000028044E-01     1.0000000000000000E+00     0.0000000000000000E+00 
    8.1250000000040856E-01     1.0000000000000000E+00     0.0000000000000000E+00 
    7.8125000000054956E-01     1.0000000000000000E+00     0.0000000000000000E+00 
    7.5000000000066480E-01     1.0000000000000000E+00     0.0000000000000000E+00 
    7.1875000000086831E-01     1.0000000000000000E+00     0.0000000000000000E+00 
    6.8750000000102829E-01     1.0000000000000000E+00     0.0000000000000000E+00 
    6.5625000000114431E-01     1.0000000000000000E+00     0.0000000000000000E+00 
    6.2500000000129829E-01     1.0000000000000000E+00     0.0000000000000000E+00 
    5.9375000000147926E-01     1.0000000000000000E+00     0.0000000000000000E+00 
    5.6250000000168354E-01     1.0000000000000000E+00     0.0000000000000000E+00 
    5.3125000000188671E-01     1.0000000000000000E+00     0.0000000000000000E+00 
    5.0000000000205835E-01     1.0000000000000000E+00     0.0000000000000000E+00 
    4.6875000000192979E-01     1.0000000000000000E+00     0.0000000000000000E+00 
    4.3750000000180111E-01     1.0000000000000000E+00     0.0000000000000000E+00 
    4.0625000000167238E-01     1.0000000000000000E+00     0.0000000000000000E+00 
    3.7500000000154382E-01     1.0000000000000000E+00     0.0000000000000000E+00 
    3.4375000000141509E-01     1.0000000000000000E+00     0.0000000000000000E+00 
    3.1250000000128642E-01     1.0000000000000000E+00     0.0000000000000000E+00 
    2.8125000000115769E-01     1.0000000000000000E+00     0.0000000000000000E+00 
    2.5000000000102918E-01     1.0000000000000000E+00     0.0000000000000000E+00 
    2.1875000000090050E-01     1.0000000000000000E+00     0.0000000000000000E+00 
    1.8750000000077180E-01     1.0000000000000000E+00     0.0000000000000000E+00 
    1.5625000000064329E-01     1.0000000000000000E+00     0.0000000000000000E+00 
    1.2500000000051459E-01     1.0000000000000000E+00     0.0000000000000000E+00 
    9.3750000000385914E-02     1.0000000000000000E+00     0.0000000000000000E+00 
    6.2500000000257239E-02     1.0000000000000000E+00     0.0000000000000000E+00 
    3.1250000000128557E-02     1.0000000000000000E+00     0.0000000000000000E+00 
    0.0000000000000000E+00     9.6875000000003686E-01     0.0000000000000000E+00 
    0.0000000000000000E+00     9.3750000000011691E-01     0.0000000000000000E+00 
    0.0000000000000000E+00     9.0625000000015765E-01     0.0000000000000000E+00 
    0.0000000000000000E+00     8.7500000000017863E-01     0.0000000000000000E+00 
    0.0000000000000000E+00     8.4375000000028044E-01     0.0000000000000000E+00 
    0.0000000000000000E+00     8.1250000000040856E-01     0.0000000000000000E+00 
    0.0000000000000000E+00     7.8125000000054956E-01     0.0000000000000000E+00 
    0.0000000000000000E+00     7.5000000000066480E-01     0.0000000000000000E+00 
    0.0000000000000000E+00     7.1875000000086831E-01     0.0000000000000000E+00 
    0.0000000000000000E+00     6.8750000000102829E-01     0.0000000000000000E+00 
    0.0000000000000000E+00     6.5625000000114431E-01     0.0000000000000000E+00 
    0.0000000000000000E+00     6.2500000000129829E-01     0.0000000000000000E+00 
    0.0000000000000000E+00     5.9375000000147926E-01     0.0000000000000000E+00 
    0.0000000000000000E+00     5.6250000000168354E-01     0.0000000000000000E+00 
    0.0000000000000000E+00     5.3125000000188671E-01     0.0000000000000000E+00 
    0.0000000000000000E+00     5.0000000000205835E-01     0.0000000000000000E+00 
    0.0000000000000000E+00     4.6875000000192979E-01     0.0000000000000000E+00 
    0.0000000000000000E+00     4.3750000000180111E-01     0.0000000000000000E+00 
    0.0000000000000000E+00     4.0625000000167238E-01     0.0000000000000000E+00 
[...]
CELL_DATA 2795 
SCALARS Pressure double 1 
LOOKUP_TABLE default 

    5.6170392199115620E+00 
    1.2911627566735286E+01 
    9.1382120667723115E+00 
    8.7375949295519622E+00 
    6.9253095740303356E+00 
    1.2800010788234120E+01 
    1.3460871356703418E+01 
    5.0109562567982024E+00 
    9.6716541369157571E+00 
    7.3882308490426656E+00 
    6.2867160948568177E+00 
    1.2569482148238190E+01 
    1.2822237882898312E+01 
    1.2771976868084117E+01 
    8.4288582307267959E+00 
    4.9265346272738633E+00 
    8.0297100537462747E+00 
    6.7017445579189552E+00 
    1.2245403848205482E+01 
    9.1296766552240012E+00 
    9.0224888152983187E+00 
    1.2713534633308106E+01 
    8.4940908484405284E+00 
    3.2955155658214952E-01 
    1.2552600793310409E+01 
    1.2799094267013025E+01 
    1.3490060225152652E+01 
    6.0420769447849052E+00 
    1.2498057623180054E+01 
    1.3487142693587622E+01 
    9.1817956319812772E+00 
    9.3756031813677865E+00 
    6.5300886413441059E+00 
    9.0986965983194299E+00 
    2.9051638953295225E+00 
    8.0345188791202720E+00 
    9.0885875036120094E+00 
    1.3524525205630724E+01 
    1.3440239421267632E+01 
    1.2581084217274814E+01 
    6.8583666474812484E+00 
    1.2530436934726268E+01 
    6.8653630934005849E-01 
    8.9654805786615608E+00 
    1.3267551930665000E+01 
    1.3113922123975591E+01 
    1.2559853636979785E+01 
    9.9973552671136137E+00 
    1.2625712825965342E+01 
    8.2190223498816799E+00 
    7.8219055968581923E+00 
    9.3414183894328424E+00 
    8.8597113863317194E+00 
    8.0772023585083321E+00 
    9.2516528300006708E+00 
    1.2057764586719003E+01 
    1.0903078152870441E+01 
    6.9632716265755210E+00 
    1.2716990156017086E+01 
    1.2647999278639952E+01 
    8.7513652437783627E+00 
    8.7835348687416488E+00 
    8.6481000153541618E+00 
    1.3396596523290807E+01 
    1.3630861455521032E+01 
    8.0391301259251602E+00 
    9.3395570028364805E+00 
    1.2481199474242370E+01 
    1.0702763302672864E+01 
    8.8218409738946733E+00 
    1.3638839212598857E+01 
    1.2653469657827177E+01 
    7.9235843650140092E+00 
    1.3204650723310817E+01 
    9.4996210198401609E+00 
    1.2417278997337837E+01 
    1.3534338242805957E+01 
    9.4407878823438782E+00 
    5.7223445885640079E+00 
    9.3579207203619728E+00 
    1.3448050938831965E+01 
    1.3669147249514877E+01 
    8.0469642520179452E+00 
    9.2636499359269528E+00 
    1.3708169377109058E+01 
    9.0926971091780100E+00 
    8.5722413812090483E+00 
    1.1071501209913476E+01 
    5.4571717594392357E+00 
    7.8429864376958403E+00 
    9.2654647070026996E+00 
    9.8005229624702590E+00 
    1.5108551608325030E+01 
    6.7271769308792893E+00 
    9.3473746385293524E+00 
    1.2540024062591035E+01 
    1.2777837639914146E+01 
    5.9121531980328381E+00 
    8.9686199929584749E+00 
    9.2939692765593342E+00 
    1.2796586255115301E+01 
    9.3032656107874594E+00 
    1.2734348883483765E+01 
    3.5913905427442439E+00 
    6.1111046276532859E+00 
    9.5605379562524320E+00 
    1.2919763826514803E+01 
    8.0014028428925368E+00 
    8.5498635426132292E+00 
    9.2887541612181810E+00 
    8.5419810892812258E+00 
    1.0570984675401112E+01 
    8.3076884509392528E+00 
    7.9314372606728609E+00 
    6.2164601350620412E+00 
    1.0802288497283440E+01 
    9.3757305360680370E+00 
    1.3315419246770485E+01 
    8.0283563694193578E+00 
    8.7230841888512636E+00 
    1.2643705293452410E+01 
    7.2529601065177225E+00 
    1.3055707226158166E+01 
    9.1762697228760519E+00 
    8.6560248996338274E+00 
    1.2779839506989275E+01 
    9.3709413793388077E+00 
    1.3542045402680223E+01 
    1.1081268016522053E+01 
    1.1923933732361496E+01 
    1.3505625161304511E+01 
    6.7411033936585580E+00 
    9.5782574703348473E+00 
    1.2783059234341279E+01 
    2.6947722182904426E+00 
    9.2302842149307534E+00 
    1.3474594376647820E+01 
    8.6847537678213360E+00 
    1.0034121826480812E+01 
    5.8565650338384332E+00 
    1.2538964516451127E+01 
    1.5586862823668666E+01 
    1.1498558139688345E+01 
    8.6815227446794001E+00 
    7.7513529222370074E+00 
    9.9357342108780564E+00 
    9.1946854399076337E+00 
    6.3536985809422495E+00 
    1.3501830260139412E+01 
    1.2872970215800525E+01 
    1.2541590799649276E+01 
    9.8105377627427082E+00 
    7.8974632874750359E+00 
    9.0215728944699425E+00 
    1.3229943242590684E+01 
    8.1274426056790627E+00 
    9.1099583328426306E+00 
    8.2776381472478686E+00 
    1.0571068420904378E+01 
    1.5575348408967262E+01 
    1.2533894967874703E+01 
    7.8552082206173184E+00 
    1.2955757733003544E+01 
    1.2881961962270911E+01 
    1.2955919855955710E+01 
    1.3896360520112855E+01 
    1.4412441057320196E+01 
    1.3111273864937701E+01 
    9.3312085083606249E+00 
    9.9169877916829119E+00 
    1.2952919700467396E+01 
    1.3324891041678205E+01 
    6.6350173278569402E+00 
    1.2559480050208848E+01 
    1.3195012676730940E+01 
    6.4587288434445673E+00 
    1.3810932914184793E+01 
    1.3802131105903250E+01 
    1.2308167610553525E+01 
    9.6367222240069363E+00 
    2.3605974487047598E+00 
    1.3475095693654367E+01 
    9.5046085051079334E+00 
    1.3590099999574106E+01 
    8.6212740727819543E+00 
    1.3321329721811107E+01 
    8.3899545292159894E-01 
    1.1941551959668219E+01 
    8.8263725120774961E+00 
    7.8600763179079713E+00 
    7.6565355826377690E+00 
    9.1442917428929622E+00 
    1.0255238708987479E+01 
    9.4658602868751078E+00 
    6.3089905174205070E+00 
    1.3321078635631183E+01 
    1.2806150101957364E+01 
    1.0816577949363394E+01 
    9.5533308906494430E+00 
    1.3787979378020419E+00 
    7.0570728963842511E+00 
    4.8674894618237214E+00 
    1.3497997457649870E+01 
    1.0384451521036571E+01 
    1.2858783876414961E+01 
    1.2866738543593746E+01 
    8.1988295080241880E+00 
    1.0847786366952864E+01 
    1.2537524767786001E+01 
    1.3785347521514543E+01 
    5.8368864315927755E+00 
    1.1310594399321287E+01 
    9.4998892852628227E+00 
    5.1915430256686825E+00 
    8.1918454791164450E+00 
    1.1314167143378890E+01 
    1.2831898544562993E+01 
    9.2063795385041853E+00 
    1.2934665892334914E+01 
    1.2716994255130750E+01 
    1.2670662499580418E+01 
    9.0283911710070299E+00 
    7.8084996436375542E+00 
    1.2549005694576541E+01 
    7.9192853809445038E+00 
    9.3060892272748568E+00 
    7.7600855720843072E+00 
    9.0572917211067274E+00 
    1.2874702894140547E+01 
    5.7437318512880395E+00 
    8.1083824722127620E+00 
    1.3415847952161423E+01 
    9.0424415327535055E+00 
    1.0275563128618773E+01 
    5.8941322400626115E+00 
    7.9767385143607568E+00 
    1.2696761867633011E+01 
    1.2986556742374331E+01 
    4.7980790875204891E+00 
    9.0446189309133249E+00 
    7.7973512092736383E+00 
    1.4187184587811780E+01 
    1.3676430683653479E+01 
    1.4437512102068673E+01 
    9.0648076115306129E+00 
    1.2850608864393177E+01 
    1.2499291365011754E+01 
    8.9448432636520430E+00 
    1.2541846493336637E+01 
    9.5536244645212616E+00 
    5.2586286035596741E+00 
    9.2584194069876826E+00 
    1.3404551510003774E+01 
    1.2538947827607052E+01 
    6.2536376616651799E+00 
    1.2565773745544430E+01 
    1.0244298082994177E+01 
    9.2123056220916002E+00 
    8.7597943619300409E+00 
    1.2419074691351947E+01 
    9.7618085467554394E+00 
    1.2553702087882748E+01 
    8.9106619052664140E+00 
    5.4526364335455870E+00 
    9.3728440869677563E+00 
    7.6648671832554278E+00 
    1.1499188466269203E+01 
    1.3587014643090464E+01 
    1.2547804470170979E+01 
    1.3468385450263311E+01 
    8.9936711488322114E+00 
    6.0877501384652639E+00 
    6.1753568769934066E+00 
    9.4105204081706102E+00 
    9.2817196428006046E+00 
    1.3042665473892836E+00 
    1.2104396561971594E+01 
    1.3922628692937257E+01 
    8.6321413500005306E+00 
    5.4817233091071627E+00 
    1.0526989753410101E+01 
    1.2564500078113971E+01 
    6.5176406350737661E+00 
    4.4141344234552857E+00 
    9.2534643810566095E+00 
    1.2653822307178114E+01 
    1.3232145029164434E+01 
    1.3128030445519355E+01 
    1.2990600183489775E+01 
    6.3542241690720305E+00 
    9.2044098020819103E+00 
    1.2114627361874451E+01 
    7.2521624306793493E+00 
    1.2810345852651706E+01 
    1.1054230023845710E+01 
    6.2716725376015754E+00 
    1.2664152136459718E+01 
    1.3490367815580958E+01 
    1.2661898152379500E+01 
    6.2735377044244549E+00 
    9.3355299482539920E+00 
    6.9016228919813987E+00 
    8.8003941667034908E+00 
    1.2556712271817725E+01 
    1.2545992480503232E+01 
    6.3105369907117721E+00 
    1.3358201853867008E+01 
    9.8428301779274232E+00 
    1.2582838870982744E+01 
    1.3330480866741540E+01 
    1.2567199065071335E+01 
    1.1720118671836003E+01 
    1.4237276307575597E+01 
    8.5966429910858224E+00 
    1.3440236533779091E+01 
    1.2609819014756923E+01 
    1.3507539037028687E+01 
    1.3352002460460033E+01 
    8.6893477101165395E+00 
    9.1309370250860322E+00 
    8.6228809153462702E+00 
    1.1278628946437278E+01 
    3.6021618402796056E+00 
    9.3321039471928788E+00 
    1.4358995944751866E+01 
    9.5566644587411904E+00 
    9.7291350555677116E+00 
    1.3482255372954434E+01 
    1.3701022323260370E+01 
    8.5501370478599323E+00 
    1.2569704362471386E+01 
    1.2542673236538395E+01 
    9.7177854444845639E+00 
    1.3310417099569298E+01 
    6.5894610934125266E+00 
    4.1716457114433210E+00 
    9.9766384251447597E+00 
    9.5698807426643331E+00 
    1.2548108383417778E+01 
    5.8959166256211413E+00 
    1.3050606806479323E+01 
    4.2474946269198650E+00 
    9.5077177632220824E+00 
    8.7429378288375830E+00 
    9.3114980384193178E+00 
    1.5626160028786165E+01 
    3.5013030975879245E+00 
    9.2480579154084435E+00 
    1.0986238811338826E+01 
    8.9012253869564599E+00 
    6.9499636751984202E+00 
    1.3158411110578990E+01 
    1.5193726834826148E+01 
    1.3292891400994378E+01 
    9.1904546667139542E+00 
    5.1647960096872820E+00 
    1.5051726208459371E+01 
    1.2794988810731043E+01 
    6.6618511354309753E+00 
    8.8158569976018892E+00 
    1.3881096119948895E+01 
    2.9769526847918395E+00 
    9.6163292332550583E+00 
    1.3262102243769167E+01 
    9.3250338085498647E+00 
    8.1067474000525834E+00 
    9.2882927869850818E+00 
    1.2316341102837912E+01 
    9.3042294072949119E+00 
    4.6004184182463606E+00 
    8.0927483708668857E-01 
    6.9060468320639083E+00 
    1.4085280084985861E+01 
    8.6222840039672199E+00 
    1.0561791840671871E+01 
    1.0087551413375822E+01 
    1.1551110436994566E+01 
    9.3385929680745878E+00 
    1.2710392310626426E+01 
    1.5640218814450714E+01 
    1.0986186067751317E+01 
    1.3414916899555086E+01 
    4.8906712877188430E-01 
    1.2547815624790763E+01 
    5.0915553828349536E+00 
    1.4522392829148092E+01 
    9.2616846104635293E+00 
    8.2198699227353238E+00 
    7.0412489131241021E+00 
    4.8297710852653246E+00 
    1.0393600956913593E+01 
    7.3180566205273800E+00 
    1.1402970047975051E+01 
    1.9714604419499602E+00 
    1.0272151432454521E+01 
    1.2487330423271619E+01 
    5.6002638402209772E+00 
    1.2995423677638479E+01 
    1.4334053100299414E+01 
    1.2856025989651537E+01 
    9.1318120261651430E+00 
    9.3058668933846498E+00 
    9.2543386726472203E+00 
    5.2354724666679875E+00 
    8.3778521064164071E+00 
    8.2345877842842672E+00 
    9.2434689983393827E+00 
    8.5598841153018821E+00 
    6.1682236336241125E-01 
    5.8424595184969261E+00 
    8.9224714337682869E+00 
    9.2192821269676823E+00 
    1.1714051679438739E+01 
    1.9593783828599585E+00 
    9.6807689639336498E+00 
    9.5746579362020636E+00 
    3.3667775890897271E+00 
    1.2738351321801622E+01 
    7.9367928867103466E+00 
    9.4394477262125474E+00 
    1.2790526608294817E+01 
    4.8475062981602264E+00 
    1.2843008079549385E+01 
    8.0429189715551743E+00 
    9.0026571281962331E-01 
    8.6799022219682378E+00 
    1.3370332832468312E+01 
    1.2547837685498855E+01 
    1.2565874429011473E+01 
    9.6241099753140702E+00 
    9.5115314144751135E+00 
    7.9177939744328594E+00 
    6.3438238304190886E+00 
    1.2890996431326464E+01 
    8.8143394828607704E+00 
    6.1942214243357974E+00 
    1.2560955623791779E+01 
    1.3192979019986414E+01 
    9.4378285971154217E+00 
    9.0879026750190182E+00 
    1.5522337632701733E+01 
    9.7185499980163002E+00 
    1.2910344772970110E+01 
    7.5149946441020745E+00 
    1.5668724798123435E+01 
    6.1391977048196082E+00 
    8.3107097301827615E+00 
    6.8872373881762927E+00 
    9.9287345380915220E+00 
    7.8895829967970004E+00 
    1.5652427660081464E+01 
    9.7623479926393006E+00 
    1.2257921847221658E+01 
    6.3163422157903026E+00 
    9.3360904032391279E+00 
    1.2764101877057080E+01 
    7.9200758704746432E+00 
    6.5963642423484483E+00 
    1.0214558024565770E+01 
    1.2981901576558963E+01 
    6.7829271344148196E+00 
    8.7614806051475060E+00 
    9.1141511873904673E+00 
    1.2525435586974181E+01 
    8.9279342358744831E+00 
    1.2954390789416976E+01 
    1.3534729444913005E+01 
    7.9432816850109305E+00 
    7.7801261226471583E+00 
    7.3620688200871207E+00 
    1.2654186931209239E+01 
    9.5810771391448704E+00 
    1.5232172706955019E+01 
    1.1931224811084057E+01 
    1.2725509119954237E+01 
    1.4929281901014559E+01 
    1.4341233144105605E+01 
    9.3839888033365142E+00 
    9.2287744399037379E+00 
    1.2337851038598965E+01 
    1.2582206716186398E+01 
    1.3051586360268560E+01 
    1.2813568865613659E+01 
    1.5541648539486609E+01 
    9.7181318306192619E+00 
    8.0355337781405840E+00 
    9.6991638033108138E+00 
    1.3453645789658331E+01 
    9.4794921708843791E+00 
    5.4635167173391359E+00 
    9.1163356992757141E+00 
    1.3849470329548788E+01 
    9.6077054801369055E+00 
    8.0455619274830816E+00 
    9.0552991253811719E+00 
    1.3954495737312334E+01 
    1.2582867793469518E+01 
    7.6250570918890164E+00 
    1.4084386169372022E+01 
    9.4136853129627109E+00 
    1.3050834510901407E+01 
    1.3966664577125535E+01 
    9.7985223990425840E+00 
    4.8500468817214619E+00 
    1.0185447868525516E+01 
    5.0189801542814498E+00 
    9.5267416316102533E+00 
    9.3237369807179977E+00 
    1.0718902127118854E+01 
    5.3079959888023467E+00 
    1.1376729014199777E+01 
    9.3485179060200636E+00 
    1.2804685833838647E+01 
    9.7680079628536998E+00 
    7.4362873323185346E+00 
    8.9395435581435727E+00 
    9.8013310437502774E+00 
    9.8142818088612351E+00 
    1.3578006118407790E+01 
    7.6700348140352252E+00 
    7.5358427720761814E+00 
    5.5865247295243341E+00 
    1.3077463015792189E+01 
    8.9773782145373140E+00 
    1.2392005420645726E+01 
    9.2948113655025519E+00 
    6.1198198916195254E+00 
    1.2608227394446347E+01 
    9.2666892649816521E+00 
    6.6860653330690170E+00 
    7.0938516353295258E+00 
    7.3514422525335199E+00 
    1.2832199489290208E+01 
    9.2454082823927681E+00 
    1.3425187737904405E+01 
    9.2180831770125415E+00 
    9.1496537668235209E+00 
    8.6822678435965752E+00 
    1.2684226638402079E+01 
    9.0665515003272645E+00 
    7.3904728323803335E+00 
    1.4329278191482295E+01 
    1.2757911614696766E+01 
    6.4357332662998274E+00 
    2.4732691807249059E+00 
    9.2348970871741649E+00 
    8.6914580125981580E+00 
    7.7736696035048922E+00 
    8.4959897763319194E+00 
    1.2733095458137763E+01 
    8.9543728280340087E+00 
    8.0897542315072997E+00 
    1.2602047748342672E+01 
    6.3773438151857258E+00 
    1.2301254531904215E+01 
    8.4029762387257065E+00 
    7.3228042168247844E+00 
    7.8502582965146015E+00 
    1.3130234529447183E+01 
    9.3146404933016314E+00 
    9.3231719914252196E+00 
    5.3888618861380007E+00 
    5.8339402971944496E+00 
    1.1682254899013587E+01 
    9.3334639841532212E+00 
    9.2758581731252434E+00 
    1.4070208355394183E+01 
    7.5373816204448065E+00 
    9.3460537993221049E+00 
    6.5971530898318527E+00 
    6.8063947442250718E+00 
    1.2677054771395468E+01 
    8.9604913849184857E+00 
    6.4443783974025308E+00 
    9.8143545780211081E+00 
    9.1963586075110335E+00 
    1.2680132550459454E+01 
    1.4159224917154148E+01 
    9.5028798908508794E-01 
    9.2396666952591975E+00 
    9.5684054205105511E+00 
    1.2739852321762410E+01 
    8.7500277170697736E+00 
    9.2862653812589535E+00 
    1.3626424846917031E+01 
    7.8832395968180231E+00 
    6.5029079643961438E+00 
    1.1261728697313689E+01 
    1.2560327403167015E+01 
    1.3506559407680527E+01 
    1.3763098353349021E+01 
    9.0864575060147281E+00 
    9.2316590701529222E+00 
    1.0457729960517016E+01 
    6.1110196422427130E+00 
    1.2676635384789767E+01 
    7.0168855178417120E+00 
    6.3677690528064907E+00 
    1.1645862439106443E+01 
    1.0957010273103883E+01 
    6.2433670527685861E+00 
    1.2593043577504536E+01 
    1.3493241483832607E+01 
    9.7325477060122676E+00 
    1.4256661694342878E+01 
    1.2622747183214910E+01 
    8.8227431096963436E+00 
    1.3248396259423693E+01 
    6.8102459402039850E+00 
    1.2577141696910248E+01 
    9.2387540293679731E+00 
    9.2000112176060895E+00 
    1.4231916429204993E+01 
    9.0079686735067721E+00 
    1.1379037019113836E+01 
    7.8357927939213807E+00 
    1.3604304198773960E+01 
    1.2492671399890083E+01 
    8.1836864466227208E+00 
    1.2538525167419598E+01 
    8.4119425411618032E+00 
    9.2984206740939648E+00 
    1.3455529536202254E+01 
    1.2806880408426395E+01 
    1.3496305320933349E+01 
    1.2742664867839688E+01 
    8.3830487676044676E+00 
    8.5929373533774189E+00 
    1.3502639424332232E+01 
    8.7111012050770587E+00 
    1.2432352003721684E+01 
    8.9994686849122871E+00 
    3.6321102047364584E+00 
    6.4373205200158470E+00 
    5.9549897195741908E+00 
    1.3458739520639964E+01 
    1.4164905419942023E+01 
    1.2555166584940080E+01 
    1.0791485574702508E+01 
    1.2816268405165960E+01 
    1.2599734771220801E+01 
    1.3135760290836711E+01 
    5.2015845569896770E+00 
    3.3870903455538630E+00 
    1.0597938040992952E+01 
    8.9036498651026772E+00 
    1.2734427520855936E+01 
    1.2732122417703263E+01 
    9.5858766286045878E+00 
    1.2766065500140652E+01 
    9.2261829483270770E+00 
    9.1365422879166580E+00 
    4.6941960667442295E+00 
    3.3737760252743545E+00 
    1.3951459863911001E+01 
    7.2317837144779711E+00 
    8.1271393391858897E+00 
    9.4882295217635040E+00 
    1.5523564272864192E+01 
    9.5771753975039964E+00 
    9.5271489472414608E+00 
    3.8371631509670023E+00 
    9.5778666850400729E+00 
    9.5906124542714064E+00 
    1.3023832972186007E+01 
    7.8546554023928135E+00 
    8.8781472403122503E+00 
    1.4111803106653035E+01 
    9.2478616680464381E+00 
    1.2569632814628624E+01 
    1.2804700206850960E+01 
    1.1495769010152335E+01 
    7.8581073337416631E+00 
    1.2742015403360670E+01 
    9.0438618500352845E+00 
    1.2750834835764389E+01 
    1.2513031315333215E+01 
    1.3476640010305292E+01 
    1.2741334847267851E+01 
    1.1983054350382105E+01 
    9.2369331917978190E+00 
    6.1953474472317334E+00 
    1.5398626627720876E+01 
    7.1617571198351095E+00 
    1.3413305352557924E+01 
    9.2343778811116533E+00 
    7.5763611641351778E+00 
    4.5382814093739050E+00 
    9.6228752592874720E+00 
    1.2730213395441734E+01 
    1.2726192529266379E+01 
    9.2772273541121741E+00 
    9.2286269302825108E+00 
    1.4311058556945314E+01 
    1.3708880827347238E+01 
    9.5942258358739565E+00 
    3.1524463681052071E+00 
    1.1952778404440805E+01 
    1.5650394573734054E+01 
    9.2402171284421346E+00 
    1.1134895788123641E+01 
    8.7466299430748204E+00 
    1.5258701875256529E+01 
    1.3783373691996438E+01 
    1.3530117462042062E+01 
    9.6141993040476397E+00 
    4.2303139269387406E+00 
    8.7059272427930594E+00 
    8.7719546301952978E+00 
    8.8161781480037131E+00 
    3.4294330050560720E+00 