# vtk DataFile Version 2.0
Pressure Field Data 
ASCII 
DATASET UNSTRUCTURED_GRID 

POINTS 2860 double 

    0.0000000000000000E+00     0.0000000000000000E+00     0.0000000000000000E+00 
    1.0000000000000000E+00     0.0000000000000000E+00     0.0000000000000000E+00 
    1.0000000000000000E+00     1.0000000000000000E+00     0.0000000000000000E+00 
    0.0000000000000000E+00     1.0000000000000000E+00     0.0000000000000000E+00 
    2.5000000000000000E-01     2.5000000000000000E-01     0.0000000000000000E+00 
    7.5000000000000000E-01     2.5000000000000000E-01     0.0000000000000000E+00 
    7.5000000000000000E-01     7.5000000000000000E-01     0.0000000000000000E+00 
    2.5000000000000000E-01     7.5000000000000000E-01     0.0000000000000000E+00 
    3.1249999999942091E-02     0.0000000000000000E+00     0.0000000000000000E+00 
    6.2499999999873469E-02     0.0000000000000000E+00     0.0000000000000000E+00 
    9.3749999999826514E-02     0.0000000000000000E+00     0.0000000000000000E+00 
    1.2499999999977961E-01     0.0000000000000000E+00     0.0000000000000000E+00 
    1.5624999999968961E-01     0.0000000000000000E+00     0.0000000000000000E+00 
    1.8749999999959971E-01     0.0000000000000000E+00     0.0000000000000000E+00 
    2.1874999999950970E-01     0.0000000000000000E+00     0.0000000000000000E+00 
    2.4999999999941969E-01     0.0000000000000000E+00     0.0000000000000000E+00 
    2.8124999999932920E-01     0.0000000000000000E+00     0.0000000000000000E+00 
    3.1249999999923850E-01     0.0000000000000000E+00     0.0000000000000000E+00 
    3.4374999999914790E-01     0.0000000000000000E+00     0.0000000000000000E+00 
    3.7499999999905720E-01     0.0000000000000000E+00     0.0000000000000000E+00 
    4.0624999999896660E-01     0.0000000000000000E+00     0.0000000000000000E+00 
    4.3749999999887590E-01     0.0000000000000000E+00     0.0000000000000000E+00 
    4.6874999999878530E-01     0.0000000000000000E+00     0.0000000000000000E+00 
    4.9999999999869471E-01     0.0000000000000000E+00     0.0000000000000000E+00 
    5.3124999999877620E-01     0.0000000000000000E+00     0.0000000000000000E+00 
    5.6249999999885780E-01     0.0000000000000000E+00     0.0000000000000000E+00 
    5.9374999999893940E-01     0.0000000000000000E+00     0.0000000000000000E+00 
    6.2499999999902101E-01     0.0000000000000000E+00     0.0000000000000000E+00 
    6.5624999999910261E-01     0.0000000000000000E+00     0.0000000000000000E+00 
    6.8749999999918421E-01     0.0000000000000000E+00     0.0000000000000000E+00 
    7.1874999999926570E-01     0.0000000000000000E+00     0.0000000000000000E+00 
    7.4999999999934730E-01     0.0000000000000000E+00     0.0000000000000000E+00 
    7.8124999999942890E-01     0.0000000000000000E+00     0.0000000000000000E+00 
    8.1249999999951039E-01     0.0000000000000000E+00     0.0000000000000000E+00 
    8.4374999999959199E-01     0.0000000000000000E+00     0.0000000000000000E+00 
    8.7499999999967359E-01     0.0000000000000000E+00     0.0000000000000000E+00 
    9.0624999999975520E-01     0.0000000000000000E+00     0.0000000000000000E+00 
    9.3749999999983680E-01     0.0000000000000000E+00     0.0000000000000000E+00 
    9.6874999999991840E-01     0.0000000000000000E+00     0.0000000000000000E+00 
    1.0000000000000000E+00     3.1249999999942091E-02     0.0000000000000000E+00 
    1.0000000000000000E+00     6.2499999999873469E-02     0.0000000000000000E+00 
    1.0000000000000000E+00     9.3749999999826514E-02     0.0000000000000000E+00 
    1.0000000000000000E+00     1.2499999999977961E-01     0.0000000000000000E+00 
    1.0000000000000000E+00     1.5624999999968961E-01     0.0000000000000000E+00 
    1.0000000000000000E+00     1.8749999999959971E-01     0.0000000000000000E+00 
    1.0000000000000000E+00     2.1874999999950970E-01     0.0000000000000000E+00 
    1.0000000000000000E+00     2.4999999999941969E-01     0.0000000000000000E+00 
    1.0000000000000000E+00     2.8124999999932920E-01     0.0000000000000000E+00 
    1.0000000000000000E+00     3.1249999999923850E-01     0.0000000000000000E+00 
    1.0000000000000000E+00     3.4374999999914790E-01     0.0000000000000000E+00 
    1.0000000000000000E+00     3.7499999999905720E-01     0.0000000000000000E+00 
    1.0000000000000000E+00     4.0624999999896660E-01     0.0000000000000000E+00 
    1.0000000000000000E+00     4.3749999999887590E-01     0.0000000000000000E+00 
    1.0000000000000000E+00     4.6874999999878530E-01     0.0000000000000000E+00 
    1.0000000000000000E+00     4.9999999999869471E-01     0.0000000000000000E+00 
    1.0000000000000000E+00     5.3124999999877620E-01     0.0000000000000000E+00 
    1.0000000000000000E+00     5.6249999999885780E-01     0.0000000000000000E+00 
    1.0000000000000000E+00     5.9374999999893940E-01     0.0000000000000000E+00 
    1.0000000000000000E+00     6.2499999999902101E-01     0.0000000000000000E+00 
    1.0000000000000000E+00     6.5624999999910261E-01     0.0000000000000000E+00 
    1.0000000000000000E+00     6.8749999999918421E-01     0.0000000000000000E+00 
    1.0000000000000000E+00     7.1874999999926570E-01     0.0000000000000000E+00 
    1.0000000000000000E+00     7.4999999999934730E-01     0.0000000000000000E+00 
    1.0000000000000000E+00     7.8124999999942890E-01     0.0000000000000000E+00 
    1.0000000000000000E+00     8.1249999999951039E-01     0.0000000000000000E+00 
    1.0000000000000000E+00     8.4374999999959199E-01     0.0000000000000000E+00 
    1.0000000000000000E+00     8.7499999999967359E-01     0.0000000000000000E+00 
    1.0000000000000000E+00     9.0624999999975520E-01     0.0000000000000000E+00 
    1.0000000000000000E+00     9.3749999999983680E-01     0.0000000000000000E+00 
    1.0000000000000000E+00     9.6874999999991840E-01     0.0000000000000000E+00 
    9.6875000000003686E-01     1.0000000000000000E+00     0.0000000000000000E+00 
    9.3750000000011691E-01     1.0000000000000000E+00     0.0000000000000000E+00 
    9.0625000000015765E-01     1.0000000000000000E+00     0.0000000000000000E+00 
    8.7500000000017863E-01     1.0000000000000000E+00     0.0000000000000000E+00 
    8.4375000000028044E-01     1.0000000000000000E+00     0.0000000000000000E+00 
    8.1250000000040856E-01     1.0000000000000000E+00     0.0000000000000000E+00 
    7.8125000000054956E-01     1.0000000000000000E+00     0.0000000000000000E+00 
    7.5000000000066480E-01     1.0000000000000000E+00     0.0000000000000000E+00 
    7.1875000000086831E-01     1.0000000000000000E+00     0.0000000000000000E+00 
    6.8750000000102829E-01     1.0000000000000000E+00     0.0000000000000000E+00 
    6.5625000000114431E-01     1.0000000000000000E+00     0.0000000000000000E+00 
    6.2500000000129829E-01     1.0000000000000000E+00     0.0000000000000000E+00 
    5.9375000000147926E-01     1.0000000000000000E+00     0.0000000000000000E+00 
    5.6250000000168354E-01     1.0000000000000000E+00     0.0000000000000000E+00 
    5.3125000000188671E-01     1.0000000000000000E+00     0.0000000000000000E+00 
    5.0000000000205835E-01     1.0000000000000000E+00     0.0000000000000000E+00 
    4.6875000000192979E-01     1.0000000000000000E+00     0.0000000000000000E+00 
    4.3750000000180111E-01     1.0000000000000000E+00     0.0000000000000000E+00 
    4.0625000000167238E-01     1.0000000000000000E+00     0.0000000000000000E+00 
    3.7500000000154382E-01     1.0000000000000000E+00     0.0000000000000000E+00 
    3.4375000000141509E-01     1.0000000000000000E+00     0.0000000000000000E+00 
    3.1250000000128642E-01     1.0000000000000000E+00     0.0000000000000000E+00 
    2.8125000000115769E-01     1.0000000000000000E+00     0.0000000000000000E+00 
    2.5000000000102918E-01     1.0000000000000000E+00     0.0000000000000000E+00 
    2.1875000000090050E-01     1.0000000000000000E+00     0.0000000000000000E+00 
    1.8750000000077180E-01     1.0000000000000000E+00     0.0000000000000000E+00 
    1.5625000000064329E-01     1.0000000000000000E+00     0.0000000000000000E+00 
    1.2500000000051459E-01     1.0000000000000000E+00     0.0000000000000000E+00 
    9.3750000000385914E-02     1.0000000000000000E+00     0.0000000000000000E+00 
    6.2500000000257239E-02     1.0000000000000000E+00     0.0000000000000000E+00 
    3.1250000000128557E-02     1.0000000000000000E+00     0.0000000000000000E+00 
    0.0000000000000000E+00     9.6875000000003686E-01     0.0000000000000000E+00 
    0.0000000000000000E+00     9.3750000000011691E-01     0.0000000000000000E+00 
    0.0000000000000000E+00     9.0625000000015765E-01     0.0000000000000000E+00 
    0.0000000000000000E+00     8.7500000000017863E-01     0.0000000000000000E+00 
    0.0000000000000000E+00     8.4375000000028044E-01     0.0000000000000000E+00 
    0.0000000000000000E+00     8.1250000000040856E-01     0.0000000000000000E+00 
    0.0000000000000000E+00     7.8125000000054956E-01     0.0000000000000000E+00 
    0.0000000000000000E+00     7.5000000000066480E-01     0.0000000000000000E+00 
    0.0000000000000000E+00     7.1875000000086831E-01     0.0000000000000000E+00 
    0.0000000000000000E+00     6.8750000000102829E-01     0.0000000000000000E+00 
    0.0000000000000000E+00     6.5625000000114431E-01     0.0000000000000000E+00 
    0.0000000000000000E+00     6.2500000000129829E-01     0.0000000000000000E+00 
    0.0000000000000000E+00     5.9375000000147926E-01     0.0000000000000000E+00 
    0.0000000000000000E+00     5.6250000000168354E-01     0.0000000000000000E+00 
    0.0000000000000000E+00     5.3125000000188671E-01     0.0000000000000000E+00 
    0.0000000000000000E+00     5.0000000000205835E-01     0.0000000000000000E+00 
    0.0000000000000000E+00     4.6875000000192979E-01     0.0000000000000000E+00 
    0.0000000000000000E+00     4.3750000000180111E-01     0.0000000000000000E+00 
    0.0000000000000000E+00     4.0625000000167238E-01     0.0000000000000000E+00 
[...]
CELL_DATA 2795 
SCALARS Pressure double 1 
LOOKUP_TABLE default 

    5.3445100827878509E+00 
    1.2257526345606001E+01 
    8.7149229254468885E+00 
    8.3109397932278242E+00 
    6.5889227000858588E+00 
    1.2154447849269438E+01 
    1.2784190252524239E+01 
    4.7686911057518557E+00 
    9.2074013010598765E+00 
    7.0397110893911892E+00 
    6.0035100657522369E+00 
    1.1936531794200553E+01 
    1.2169192883528073E+01 
    1.2127810710328028E+01 
    8.0372497176435207E+00 
    4.6883734663858041E+00 
    7.6391939950881467E+00 
    6.3956474113538686E+00 
    1.1630750558827335E+01 
    8.7122184527327740E+00 
    8.5977233905097457E+00 
    1.2072369498138007E+01 
    8.0793192131125586E+00 
    3.1428594590172065E-01 
    1.1910442392584871E+01 
    1.2149709438712449E+01 
    1.2812479318487533E+01 
    5.7696841006772743E+00 
    1.1869113069795482E+01 
    1.2811228511773447E+01 
    8.7707877224976336E+00 
    8.9463468711459875E+00 
    6.2306824882934411E+00 
    8.6755506145854504E+00 
    2.7671818171632530E+00 
    7.6436535672829775E+00 
    8.6678980257704712E+00 
    1.2847552736971712E+01 
    1.2764676181685486E+01 
    1.1947424723645224E+01 
    6.5264180534566805E+00 
    1.1892817550653719E+01 
    6.5504251719251549E-01 
    8.5263001839289831E+00 
    1.2596985045048909E+01 
    1.2449680645858688E+01 
    1.1927489892477276E+01 
    9.5237319314988582E+00 
    1.1989013685551191E+01 
    7.8198939626349642E+00 
    7.4413148086277543E+00 
    8.9131678070589615E+00 
    8.4251909592969110E+00 
    7.6847319851574287E+00 
    8.8454558007704644E+00 
    1.1453726953722393E+01 
    1.0376734793908540E+01 
    6.6250572306227928E+00 
    1.2075678660656221E+01 
    1.2010437934956034E+01 
    8.3455130587589448E+00 
    8.3662641643339501E+00 
    8.2255928357477597E+00 
    1.2724051915131831E+01 
    1.2947762674727452E+01 
    7.6482611385835844E+00 
    8.9117071388797697E+00 
    1.1852861236779486E+01 
    1.0182689155912241E+01 
    8.4078031909864208E+00 
    1.2956615987601042E+01 
    1.2008866793577448E+01 
    7.5380515265714889E+00 
    1.2536067436296102E+01 
    9.0946037321369477E+00 
    1.1783583915383410E+01 
    1.2856954081736752E+01 
    8.9715930777655668E+00 
    5.4457529449289526E+00 
    8.9288436095666217E+00 
    1.2771904939393075E+01 
    1.2987504273299756E+01 
    7.6545410130874405E+00 
    8.8413761681740848E+00 
    1.3023796809007816E+01 
    8.6740765836037230E+00 
    8.1535087183692685E+00 
    1.0528067603526205E+01 
    5.1916890073130082E+00 
    7.4614621891857258E+00 
    8.8429472959973765E+00 
    9.3274125108282568E+00 
    1.4392786275963067E+01 
    6.4002880141320002E+00 
    8.9190748460489342E+00 
    1.1908924389040536E+01 
    1.2126549664393425E+01 
    5.6254331922349756E+00 
    8.5458228162025058E+00 
    8.8719730490227189E+00 
    1.2144705508588142E+01 
    8.8778695671511798E+00 
    1.2084908874045654E+01 
    3.4211546196590001E+00 
    5.8353262190495441E+00 
    9.1171207437833903E+00 
    1.2265655897932181E+01 
    7.6118990813636378E+00 
    8.1526162901941355E+00 
    8.8624459810546075E+00 
    8.1250311389102610E+00 
    1.0106718213485943E+01 
    7.9166099259589178E+00 
    7.5454479571019828E+00 
    5.9165713394611332E+00 
    1.0257170867410906E+01 
    8.9479371532955021E+00 
    1.2646236126072381E+01 
    7.6487862606952595E+00 
    8.2992661438934547E+00 
    1.2000278857321279E+01 
    6.9007217773476386E+00 
    1.2394596360541673E+01 
    8.7580046448830586E+00 
    8.2332242508849252E+00 
    1.2128667791054573E+01 
    8.9406837859707906E+00 
    1.2862945200390850E+01 
    1.0536970453604805E+01 
    1.1328145294784479E+01 
    1.2827492754943155E+01 
    6.4136445071354302E+00 
    9.1319290747409259E+00 
    1.2133319592579692E+01 
    2.5694228992103318E+00 
    8.8223395106018199E+00 
    1.2797664308072017E+01 
    8.2626187215079359E+00 
    9.5310756981892055E+00 
    5.5728789980050317E+00 
    1.1908648983399109E+01 
    1.4864571499815684E+01 
    1.0928614781248591E+01 
    8.2575162345534316E+00 
    7.3742197732724701E+00 
    9.4739701578517472E+00 
    8.7752891136486166E+00 
    6.0683305213350556E+00 
    1.2823896205831339E+01 
    1.2219265781820306E+01 
    1.1910438168256878E+01 
    9.3450497836332236E+00 
    7.5133394154947730E+00 
    8.5973923562840682E+00 
    1.2560177989886640E+01 
    7.7314576574526388E+00 
    8.6608222302540518E+00 
    7.8740522173582077E+00 
    1.0041342202120893E+01 
    1.4853230985161717E+01 
    1.1903025973734517E+01 
    7.4791208353849088E+00 
    1.2297035347253809E+01 
    1.2229213033564969E+01 
    1.2300327184165573E+01 
    1.3206946990891979E+01 
    1.3710079277222452E+01 
    1.2446002395023726E+01 
    8.9039869065326442E+00 
    9.4190615344401873E+00 
    1.2295981083483415E+01 
    1.2654387956927186E+01 
    6.3362854895742071E+00 
    1.1927073443330908E+01 
    1.2526746471421445E+01 
    6.1689002098720076E+00 
    1.3121730081203534E+01 
    1.3115893263573545E+01 
    1.1689959290280301E+01 
    9.1863528189783832E+00 
    2.2468789530989692E+00 
    1.2798087117805553E+01 
    9.0626558540127427E+00 
    1.2910256573145528E+01 
    8.2024512571952659E+00 
    1.2648742077866949E+01 
    7.9876542213794099E-01 
    1.1344920850827265E+01 
    8.4039216543351944E+00 
    7.4778061373090656E+00 
    7.2841163712982508E+00 
    8.7279665316763548E+00 
    9.7874967420259047E+00 
    8.9959419680438728E+00 
    6.0061303470323644E+00 
    1.2651344431481636E+01 
    1.2155999071226978E+01 
    1.0289560925791546E+01 
    9.1091934409021000E+00 
    1.3168515217802024E+00 
    6.7143379011271627E+00 
    4.6330687341859820E+00 
    1.2822222750393426E+01 
    9.8717825279471132E+00 
    1.2208169134968186E+01 
    1.2213788134034861E+01 
    7.8015397947886651E+00 
    1.0296882890138120E+01 
    1.1906315012121965E+01 
    1.3099395679795624E+01 
    5.5538332760149123E+00 
    1.0736651184534422E+01 
    9.0274771010375332E+00 
    4.9396588235809542E+00 
    7.7927420933235787E+00 
    1.0733137464484276E+01 
    1.2180578639548008E+01 
    8.7870657275078585E+00 
    1.2279572391315568E+01 
    1.2070190250405362E+01 
    1.2026171744949556E+01 
    8.6053657865020128E+00 
    7.4343195621802804E+00 
    1.1917514356302386E+01 
    7.5340328283666995E+00 
    8.8811836533626902E+00 
    7.3826249880495407E+00 
    8.6109818938220162E+00 
    1.2221213941936565E+01 
    5.4843403382695284E+00 
    7.7135275996630224E+00 
    1.2741801512929570E+01 
    8.6213581521964908E+00 
    9.7684784472200761E+00 
    5.6283831259204211E+00 
    7.5885551506574913E+00 
    1.2050796050789295E+01 
    1.2329531107621786E+01 
    4.5791703206299088E+00 
    8.6220554144541985E+00 
    7.4185534276818252E+00 
    1.3489706036389597E+01 
    1.2994341755188518E+01 
    1.3734133298144688E+01 
    8.6442218719900410E+00 
    1.2198434654029004E+01 
    1.1870154085640369E+01 
    8.5235147795377433E+00 
    1.1910581082282151E+01 
    9.1084838846426894E+00 
    5.0050730158210959E+00 
    8.8040053098234008E+00 
    1.2732003721984910E+01 
    1.1907821019878783E+01 
    5.9724560178075787E+00 
    1.1933034344939077E+01 
    9.7844116997897235E+00 
    8.8053756657246449E+00 
    8.3394914089224521E+00 
    1.1794552247530918E+01 
    9.3043678146134123E+00 
    1.1921806480883109E+01 
    8.4771811990371511E+00 
    5.1935690918948616E+00 
    8.9451716470361085E+00 
    7.2919616144620027E+00 
    1.0928945811117103E+01 
    1.2906172300582035E+01 
    1.1916718483884292E+01 
    1.2791544793704162E+01 
    8.5697691827389413E+00 
    5.8137241629045295E+00 
    5.8974590206157522E+00 
    8.9991536367641771E+00 
    8.8590098379282480E+00 
    1.2407613602521446E+00 
    1.1497999053537011E+01 
    1.3231214765193426E+01 
    8.2110333284925296E+00 
    5.2151854240580269E+00 
    9.9948445649553648E+00 
    1.1931765960592152E+01 
    6.2011273859281353E+00 
    4.2017823727058206E+00 
    8.8312415183312947E+00 
    1.2015600389002232E+01 
    1.2566027435424921E+01 
    1.2463192135389948E+01 
    1.2333798513424329E+01 
    6.0470015969669788E+00 
    8.7950945153371336E+00 
    1.1498528379843123E+01 
    6.9149290956985681E+00 
    1.2157825624817868E+01 
    1.0489664034502946E+01 
    5.9889125240995238E+00 
    1.2025279176747626E+01 
    1.2811648046140458E+01 
    1.2014870400331848E+01 
    5.9687503246791618E+00 
    8.9079333676027481E+00 
    6.5662238017598860E+00 
    8.3890945730905191E+00 
    1.1924504050824943E+01 
    1.1914443940017270E+01 
    6.0040718007573153E+00 
    1.2684189173641624E+01 
    9.3866627525402198E+00 
    1.1951306449591367E+01 
    1.2659622556765347E+01 
    1.1935591999468008E+01 
    1.1137073404045692E+01 
    1.3537491565357877E+01 
    8.1826207569935061E+00 
    1.2764688017507225E+01 
    1.1974111776902760E+01 
    1.2829272840340352E+01 
    1.2678314556280569E+01 
    8.2714075103129741E+00 
    8.7098297939890728E+00 
    8.2017723994110163E+00 
    1.0722513334237782E+01 
    3.4309613693372611E+00 
    8.9298692352617692E+00 
    1.3656982332333607E+01 
    9.1135879063175622E+00 
    9.2785856241964471E+00 
    1.2804849196905710E+01 
    1.3017119601162825E+01 
    8.1536899015704503E+00 
    1.1936709648703737E+01 
    1.1911509615391349E+01 
    9.2677909527769984E+00 
    1.2638569453601288E+01 
    6.2938501095154695E+00 
    3.9791007722162903E+00 
    9.5166765866695542E+00 
    9.1258365013086493E+00 
    1.1916258779920536E+01 
    5.6099244458608180E+00 
    1.2390352810299877E+01 
    4.0519785141751257E+00 
    9.0678690527552082E+00 
    8.3427284498437526E+00 
    8.8854841747977815E+00 
    1.4903749054216261E+01 
    3.3359875261676635E+00 
    8.8412182331783633E+00 
    1.0432080737697923E+01 
    8.4827871104008263E+00 
    6.6173352700242409E+00 
    1.2495700550344257E+01 
    1.4476565143587818E+01 
    1.2622237400724430E+01 
    8.7838025148041954E+00 
    4.9140227724365513E+00 
    1.4337704819796347E+01 
    1.2144654131274910E+01 
    6.3495338131660768E+00 
    8.3840470424651112E+00 
    1.3192295114175323E+01 
    2.8367119950447881E+00 
    9.1706253117092782E+00 
    1.2592765368385825E+01 
    8.8985392307208429E+00 
    7.7261622271558004E+00 
    8.8852802064177592E+00 
    1.1683694742375829E+01 
    8.8789807084449031E+00 
    4.3787702679617162E+00 
    7.6873691374860886E-01 
    6.5963898616363279E+00 
    1.3388811469116646E+01 
    8.2011416457119228E+00 
    1.0035954202459239E+01 
    9.6142879198415603E+00 
    1.0956246168602689E+01 
    8.9116497950022264E+00 
    1.2063583978204489E+01 
    1.4917660027861194E+01 
    1.0447464539351843E+01 
    1.2740457606271164E+01 
    4.6611295317965395E-01 
    1.1916116334017298E+01 
    4.8505304669497784E+00 
    1.3817338098736466E+01 
    8.8553001488604153E+00 
    7.8318652966214932E+00 
    6.6991652326668705E+00 
    4.5965004965325740E+00 
    9.8939022376274171E+00 
    6.9823138384669488E+00 
    1.0838205406381871E+01 
    1.8746410486884284E+00 
    9.8099958012869610E+00 
    1.1858897737245783E+01 
    5.3459932812389415E+00 
    1.2335153636906547E+01 
    1.3634039157894037E+01 
    1.2204799746732748E+01 
    8.7258268184125285E+00 
    8.8805238893059677E+00 
    8.8479695067717881E+00 
    4.9820485574762783E+00 
    7.9689800103283899E+00 
    7.8330426223737675E+00 
    8.8365067909297323E+00 
    8.1426429308080426E+00 
    5.8704196632866790E-01 
    5.5630735966584375E+00 
    8.4844447776695642E+00 
    8.8123523893347180E+00 
    1.1130842432918461E+01 
    1.8686306105249606E+00 
    9.2323269131384329E+00 
    9.1307348211338688E+00 
    3.2074229482639849E+00 
    1.2093157086181060E+01 
    7.5510938331939288E+00 
    9.0048472252437133E+00 
    1.2139794742858488E+01 
    4.6134271760486092E+00 
    1.2190788483791222E+01 
    7.6512423580467859E+00 
    8.6056953571626804E-01 
    8.2563902613278852E+00 
    1.2697168462933519E+01 
    1.1916292845264357E+01 
    1.1933643638079094E+01 
    9.2153663334618425E+00 
    9.0711043839249648E+00 
    7.5326302774381499E+00 
    6.0408242951273792E+00 
    1.2235384316638102E+01 
    8.3830356099593129E+00 
    5.9030730403615497E+00 
    1.1928628894990537E+01 
    1.2526491741202857E+01 
    9.0162041373302628E+00 
    8.6701312114696041E+00 
    1.4801533829173010E+01 
    9.2684709958045897E+00 
    1.2255207063471119E+01 
    7.1494521685276213E+00 
    1.4946109244036506E+01 
    5.8627266811440935E+00 
    7.9203271053395898E+00 
    6.5770130639518785E+00 
    9.4689102664139089E+00 
    7.5289018933257328E+00 
    1.4929946768247248E+01 
    9.3102474014982253E+00 
    1.1630567457419406E+01 
    6.0327032059022230E+00 
    8.9082821720814174E+00 
    1.2115312717124855E+01 
    7.5557084336006604E+00 
    6.2803941479880452E+00 
    9.7027088359922224E+00 
    1.2327277604513341E+01 
    6.4726249396825146E+00 
    8.3600699956310027E+00 
    8.6939430278291336E+00 
    1.1895073071542141E+01 
    8.5042673710685204E+00 
    1.2299065292368434E+01 
    1.2855553332490247E+01 
    7.5567919758938400E+00 
    7.4016417430568850E+00 
    7.0199377159837457E+00 
    1.2015905799886253E+01 
    9.1259176075673523E+00 
    1.4514619739611287E+01 
    1.1341148256580034E+01 
    1.2078030296681867E+01 
    1.4217421658704472E+01 
    1.3641373099823646E+01 
    8.9529255340516194E+00 
    8.8217391205573854E+00 
    1.1717885965985744E+01 
    1.1948479054130175E+01 
    1.2389227211986823E+01 
    1.2162242102133677E+01 
    1.4819907070565067E+01 
    9.2680807186045726E+00 
    7.6443481571247123E+00 
    9.2341812216346639E+00 
    1.2777417347035332E+01 
    9.0402710049562334E+00 
    5.2152843169126317E+00 
    8.7104566449262713E+00 
    1.3161064218842682E+01 
    9.1623739983198504E+00 
    7.6538366185133508E+00 
    8.6328363996197464E+00 
    1.3263118915988667E+01 
    1.1942921417067442E+01 
    7.2561711988215229E+00 
    1.3389477006009860E+01 
    8.9795830069797891E+00 
    1.2391367468512881E+01 
    1.3274835439993998E+01 
    9.3105837947008361E+00 
    4.6152542975515365E+00 
    9.6719129905428645E+00 
    4.7756603025646012E+00 
    9.0846347771136564E+00 
    8.8989525148872328E+00 
    1.0174757644646444E+01 
    5.0504260756898338E+00 
    1.0797619005233463E+01 
    8.9200043746287445E+00 
    1.2153856030199876E+01 
    9.2821518799021465E+00 
    7.0832460391345800E+00 
    8.5184395776487420E+00 
    9.3465308421989697E+00 
    9.3606491408597314E+00 
    1.2897570805239623E+01 
    7.2971693669952318E+00 
    7.1694887083399728E+00 
    5.3156810110726704E+00 
    1.2414658835969542E+01 
    8.5540946139904399E+00 
    1.1760986834650353E+01 
    8.8698411825921646E+00 
    5.8233918995226750E+00 
    1.1966390428355915E+01 
    8.8436817008712776E+00 
    6.3617059684863779E+00 
    6.7490791535861465E+00 
    6.9938919987724377E+00 
    1.2179879451148922E+01 
    8.8384954787835763E+00 
    1.2750023228745135E+01 
    8.7998346117879613E+00 
    8.7349809266418301E+00 
    8.2807715570648988E+00 
    1.2038640354299126E+01 
    8.6478909833909796E+00 
    7.0311743128488340E+00 
    1.3629377664490779E+01 
    1.2108624719444213E+01 
    6.1470875606797906E+00 
    2.3581926447032764E+00 
    8.8274753785574429E+00 
    8.2859295800343222E+00 
    7.3957543192805213E+00 
    8.0984717032570277E+00 
    1.2090841962194698E+01 
    8.5490838591947522E+00 
    7.6995613162153731E+00 
    1.1967131145215815E+01 
    6.0903295695460864E+00 
    1.1683394213405881E+01 
    7.9971834102555341E+00 
    6.9708390025410321E+00 
    7.4684268894067154E+00 
    1.2467725062995939E+01 
    8.8884212402184080E+00 
    8.8963519651652678E+00 
    5.1278226104383737E+00 
    5.5509454395287730E+00 
    1.1083092712829341E+01 
    8.9059580046219509E+00 
    8.8726451601970151E+00 
    1.3375341906224049E+01 
    7.1707569894398144E+00 
    8.9175990184054932E+00 
    6.3006196675054591E+00 
    6.4980176620153260E+00 
    1.2030542277938586E+01 
    8.5352543011011797E+00 
    6.1314304051191622E+00 
    9.3457630835452186E+00 
    8.7750617750796298E+00 
    1.2034010252194738E+01 
    1.3462213370549131E+01 
    9.0859140775902780E-01 
    8.8324293158597005E+00 
    9.1245134880832754E+00 
    1.2091612909040737E+01 
    8.3253163555925411E+00 
    8.8629051642462038E+00 
    1.2943435150338036E+01 
    7.4996421773207640E+00 
    6.1871075591160407E+00 
    1.0719507353614397E+01 
    1.1927963561609621E+01 
    1.2828557100148137E+01 
    1.3078254286309592E+01 
    8.6785453051579058E+00 
    8.8245376132190003E+00 
    9.9543269351636212E+00 
    5.8361540599874893E+00 
    1.2037570510246683E+01 
    6.6761035907745105E+00 
    6.0819990628124314E+00 
    1.1072328623212892E+01 
    1.0421681900819642E+01 
    5.9629045864678947E+00 
    1.1958623485842800E+01 
    1.2815580149731499E+01 
    9.2818355911674910E+00 
    1.3557185280977151E+01 
    1.1986541462325489E+01 
    8.4077166435844948E+00 
    1.2579727616278122E+01 
    6.5044658765493377E+00 
    1.1943692666060134E+01 
    8.8315432963579248E+00 
    8.7910404432148468E+00 
    1.3532373950607475E+01 
    8.5834208202889908E+00 
    1.0817764264262490E+01 
    7.4545558860495724E+00 
    1.2922843648477039E+01 
    1.1863976004906318E+01 
    7.7860559151717554E+00 
    1.1908015375751493E+01 
    8.0194975253286014E+00 
    8.8720354195256768E+00 
    1.2779350652326334E+01 
    1.2154679245713988E+01 
    1.2818586138552773E+01 
    1.2094210308852269E+01 
    7.9741636476379947E+00 
    8.1836117045559948E+00 
    1.2824579567607827E+01 
    8.2983881412207889E+00 
    1.1807002560258368E+01 
    8.5756894217146034E+00 
    3.4605265244088033E+00 
    6.1460861814405598E+00 
    5.6862633822912745E+00 
    1.2782355807611253E+01 
    1.3467484660593573E+01 
    1.1923409381931579E+01 
    1.0295292339902629E+01 
    1.2169252292515701E+01 
    1.1964987589495113E+01 
    1.2474128692681191E+01 
    4.9497490739768670E+00 
    3.2278194842970565E+00 
    1.0103179382964337E+01 
    8.4749611349111120E+00 
    1.2092227357513339E+01 
    1.2090047442970606E+01 
    9.1396309881357123E+00 
    1.2122156518666376E+01 
    8.8190481043924471E+00 
    8.6967871147423281E+00 
    4.4678633514037376E+00 
    3.2146869922388510E+00 
    1.3260353425209125E+01 
    6.9059145685693810E+00 
    7.7311744552842505E+00 
    9.0495059013958876E+00 
    1.4802422709383983E+01 
    9.1327432624975060E+00 
    9.0626941927223648E+00 
    3.6558800103904714E+00 
    9.1332598675338179E+00 
    9.1452005315719394E+00 
    1.2362750280014083E+01 
    7.4721661223648921E+00 
    8.4512169853361279E+00 
    1.3416078100518474E+01 
    8.8417704642486932E+00 
    1.1936806727411113E+01 
    1.2155368880295701E+01 
    1.0949093837088563E+01 
    7.5004845984515205E+00 
    1.2093455961525143E+01 
    8.6296937029273657E+00 
    1.2104411821825536E+01 
    1.1883320637410828E+01 
    1.2799565616556411E+01 
    1.2093247903520030E+01 
    1.1384440315937118E+01 
    8.8297686333446670E+00 
    5.9162480742580019E+00 
    1.4678991972990975E+01 
    6.8137976882343940E+00 
    1.2740408462836575E+01 
    8.8271136958385075E+00 
    7.2072613256683473E+00 
    4.3281292018371262E+00 
    9.1753538225807620E+00 
    1.2082374247477318E+01 
    1.2078113547628806E+01 
    8.8533412928179889E+00 
    8.8211626123909497E+00 
    1.3610622881902346E+01 
    1.3025542102348012E+01 
    9.1494894160144202E+00 
    3.0048373059182669E+00 
    1.1358394233369165E+01 
    1.4928176104781084E+01 
    8.8332005581508142E+00 
    1.0613998822297974E+01 
    8.3205203815299971E+00 
    1.4541391511618990E+01 
    1.3097189459570211E+01 
    1.2850406361318822E+01 
    9.1692203944411332E+00 
    4.0335245771007573E+00 
    8.2808970530565933E+00 
    8.3465662310003008E+00 
    8.3948287226157507E+00 
    3.2673802265464267E+00 