# vtk DataFile Version 2.0
Pressure Field Data 
ASCII 
DATASET UNSTRUCTURED_GRID 

POINTS 2860 double 

    0.0000000000000000E+00     0.0000000000000000E+00     0.0000000000000000E+00 
    1.0000000000000000E+00     0.0000000000000000E+00     0.0000000000000000E+00 
    1.0000000000000000E+00     1.0000000000000000E+00     0.0000000000000000E+00 
    0.0000000000000000E+00     1.0000000000000000E+00     0.0000000000000000E+00 
    2.5000000000000000E-01     2.5000000000000000E-01     0.0000000000000000E+00 
    7.5000000000000000E-01     2.5000000000000000E-01     0.0000000000000000E+00 
    7.5000000000000000E-01     7.5000000000000000E-01     0.0000000000000000E+00 
    2.5000000000000000E-01     7.5000000000000000E-01     0.0000000000000000E+00 
    3.1249999999942091E-02     0.0000000000000000E+00     0.0000000000000000E+00 
    6.2499999999873469E-02     0.0000000000000000E+00     0.0000000000000000E+00 
    9.3749999999826514E-02     0.0000000000000000E+00     0.0000000000000000E+00 
    1.2499999999977961E-01     0.0000000000000000E+00     0.0000000000000000E+00 
    1.5624999999968961E-01     0.0000000000000000E+00     0.0000000000000000E+00 
    1.8749999999959971E-01     0.0000000000000000E+00     0.0000000000000000E+00 
    2.1874999999950970E-01     0.0000000000000000E+00     0.0000000000000000E+00 
    2.4999999999941969E-01     0.0000000000000000E+00     0.0000000000000000E+00 
    2.8124999999932920E-01     0.0000000000000000E+00     0.0000000000000000E+00 
    3.1249999999923850E-01     0.0000000000000000E+00     0.0000000000000000E+00 
    3.4374999999914790E-01     0.0000000000000000E+00     0.0000000000000000E+00 
    3.7499999999905720E-01     0.0000000000000000E+00     0.0000000000000000E+00 
    4.0624999999896660E-01     0.0000000000000000E+00     0.0000000000000000E+00 
    4.3749999999887590E-01     0.0000000000000000E+00     0.0000000000000000E+00 
    4.6874999999878530E-01     0.0000000000000000E+00     0.0000000000000000E+00 
    4.9999999999869471E-01     0.0000000000000000E+00     0.0000000000000000E+00 
    5.3124999999877620E-01     0.0000000000000000E+00     0.0000000000000000E+00 
    5.6249999999885780E-01     0.0000000000000000E+00     0.0000000000000000E+00 
    5.9374999999893940E-01     0.0000000000000000E+00     0.0000000000000000E+00 
    6.2499999999902101E-01     0.0000000000000000E+00     0.0000000000000000E+00 
    6.5624999999910261E-01     0.0000000000000000E+00     0.0000000000000000E+00 
    6.8749999999918421E-01     0.0000000000000000E+00     0.0000000000000000E+00 
    7.1874999999926570E-01     0.0000000000000000E+00     0.0000000000000000E+00 
    7.4999999999934730E-01     0.0000000000000000E+00     0.0000000000000000E+00 
    7.8124999999942890E-01     0.0000000000000000E+00     0.0000000000000000E+00 
    8.1249999999951039E-01     0.0000000000000000E+00     0.0000000000000000E+00 
    8.4374999999959199E-01     0.0000000000000000E+00     0.0000000000000000E+00 
    8.7499999999967359E-01     0.0000000000000000E+00     0.0000000000000000E+00 
    9.0624999999975520E-01     0.0000000000000000E+00     0.0000000000000000E+00 
    9.3749999999983680E-01     0.0000000000000000E+00     0.0000000000000000E+00 
    9.6874999999991840E-01     0.0000000000000000E+00     0.0000000000000000E+00 
    1.0000000000000000E+00     3.1249999999942091E-02     0.0000000000000000E+00 
    1.0000000000000000E+00     6.2499999999873469E-02     0.0000000000000000E+00 
    1.0000000000000000E+00     9.3749999999826514E-02     0.0000000000000000E+00 
    1.0000000000000000E+00     1.2499999999977961E-01     0.0000000000000000E+00 
    1.0000000000000000E+00     1.5624999999968961E-01     0.0000000000000000E+00 
    1.0000000000000000E+00     1.8749999999959971E-01     0.0000000000000000E+00 
    1.0000000000000000E+00     2.1874999999950970E-01     0.0000000000000000E+00 
    1.0000000000000000E+00     2.4999999999941969E-01     0.0000000000000000E+00 
    1.0000000000000000E+00     2.8124999999932920E-01     0.0000000000000000E+00 
    1.0000000000000000E+00     3.1249999999923850E-01     0.0000000000000000E+00 
    1.0000000000000000E+00     3.4374999999914790E-01     0.0000000000000000E+00 
    1.0000000000000000E+00     3.7499999999905720E-01     0.0000000000000000E+00 
    1.0000000000000000E+00     4.0624999999896660E-01     0.0000000000000000E+00 
    1.0000000000000000E+00     4.3749999999887590E-01     0.0000000000000000E+00 
    1.0000000000000000E+00     4.6874999999878530E-01     0.0000000000000000E+00 
    1.0000000000000000E+00     4.9999999999869471E-01     0.0000000000000000E+00 
    1.0000000000000000E+00     5.3124999999877620E-01     0.0000000000000000E+00 
    1.0000000000000000E+00     5.6249999999885780E-01     0.0000000000000000E+00 
    1.0000000000000000E+00     5.9374999999893940E-01     0.0000000000000000E+00 
    1.0000000000000000E+00     6.2499999999902101E-01     0.0000000000000000E+00 
    1.0000000000000000E+00     6.5624999999910261E-01     0.0000000000000000E+00 
    1.0000000000000000E+00     6.8749999999918421E-01     0.0000000000000000E+00 
    1.0000000000000000E+00     7.1874999999926570E-01     0.0000000000000000E+00 
    1.0000000000000000E+00     7.4999999999934730E-01     0.0000000000000000E+00 
    1.0000000000000000E+00     7.8124999999942890E-01     0.0000000000000000E+00 
    1.0000000000000000E+00     8.1249999999951039E-01     0.0000000000000000E+00 
    1.0000000000000000E+00     8.4374999999959199E-01     0.0000000000000000E+00 
    1.0000000000000000E+00     8.7499999999967359E-01     0.0000000000000000E+00 
    1.0000000000000000E+00     9.0624999999975520E-01     0.0000000000000000E+00 
    1.0000000000000000E+00     9.3749999999983680E-01     0.0000000000000000E+00 
    1.0000000000000000E+00     9.6874999999991840E-01     0.0000000000000000E+00 
    9.6875000000003686E-01     1.0000000000000000E+00     0.0000000000000000E+00 
    9.3750000000011691E-01     1.0000000000000000E+00     0.0000000000000000E+00 
    9.0625000000015765E-01     1.0000000000000000E+00     0.0000000000000000E+00 
    8.7500000000017863E-01     1.0000000000000000E+00     0.0000000000000000E+00 
    8.4375000000028044E-01     1.0000000000000000E+00     0.0000000000000000E+00 
    8.1250000000040856E-01     1.0000000000000000E+00     0.0000000000000000E+00 
    7.8125000000054956E-01     1.0000000000000000E+00     0.0000000000000000E+00 
    7.5000000000066480E-01     1.0000000000000000E+00     0.0000000000000000E+00 
    7.1875000000086831E-01     1.0000000000000000E+00     0.0000000000000000E+00 
    6.8750000000102829E-01     1.0000000000000000E+00     0.0000000000000000E+00 
    6.5625000000114431E-01     1.0000000000000000E+00     0.0000000000000000E+00 
    6.2500000000129829E-01     1.0000000000000000E+00     0.0000000000000000E+00 
    5.9375000000147926E-01     1.0000000000000000E+00     0.0000000000000000E+00 
    5.6250000000168354E-01     1.0000000000000000E+00     0.0000000000000000E+00 
    5.3125000000188671E-01     1.0000000000000000E+00     0.0000000000000000E+00 
    5.0000000000205835E-01     1.0000000000000000E+00     0.0000000000000000E+00 
    4.6875000000192979E-01     1.0000000000000000E+00     0.0000000000000000E+00 
    4.3750000000180111E-01     1.0000000000000000E+00     0.0000000000000000E+00 
    4.0625000000167238E-01     1.0000000000000000E+00     0.0000000000000000E+00 
    3.7500000000154382E-01     1.0000000000000000E+00     0.0000000000000000E+00 
    3.4375000000141509E-01     1.0000000000000000E+00     0.0000000000000000E+00 
    3.1250000000128642E-01     1.0000000000000000E+00     0.0000000000000000E+00 
    2.8125000000115769E-01     1.0000000000000000E+00     0.0000000000000000E+00 
    2.5000000000102918E-01     1.0000000000000000E+00     0.0000000000000000E+00 
    2.1875000000090050E-01     1.0000000000000000E+00     0.0000000000000000E+00 
    1.8750000000077180E-01     1.0000000000000000E+00     0.0000000000000000E+00 
    1.5625000000064329E-01     1.0000000000000000E+00     0.0000000000000000E+00 
    1.2500000000051459E-01     1.0000000000000000E+00     0.0000000000000000E+00 
    9.3750000000385914E-02     1.0000000000000000E+00     0.0000000000000000E+00 
    6.2500000000257239E-02     1.0000000000000000E+00     0.0000000000000000E+00 
    3.1250000000128557E-02     1.0000000000000000E+00     0.0000000000000000E+00 
    0.0000000000000000E+00     9.6875000000003686E-01     0.0000000000000000E+00 
    0.0000000000000000E+00     9.3750000000011691E-01     0.0000000000000000E+00 
    0.0000000000000000E+00     9.0625000000015765E-01     0.0000000000000000E+00 
    0.0000000000000000E+00     8.7500000000017863E-01     0.0000000000000000E+00 
    0.0000000000000000E+00     8.4375000000028044E-01     0.0000000000000000E+00 
    0.0000000000000000E+00     8.1250000000040856E-01     0.0000000000000000E+00 
    0.0000000000000000E+00     7.8125000000054956E-01     0.0000000000000000E+00 
    0.0000000000000000E+00     7.5000000000066480E-01     0.0000000000000000E+00 
    0.0000000000000000E+00     7.1875000000086831E-01     0.0000000000000000E+00 
    0.0000000000000000E+00     6.8750000000102829E-01     0.0000000000000000E+00 
    0.0000000000000000E+00     6.5625000000114431E-01     0.0000000000000000E+00 
    0.0000000000000000E+00     6.2500000000129829E-01     0.0000000000000000E+00 
    0.0000000000000000E+00     5.9375000000147926E-01     0.0000000000000000E+00 
    0.0000000000000000E+00     5.6250000000168354E-01     0.0000000000000000E+00 
    0.0000000000000000E+00     5.3125000000188671E-01     0.0000000000000000E+00 
    0.0000000000000000E+00     5.0000000000205835E-01     0.0000000000000000E+00 
    0.0000000000000000E+00     4.6875000000192979E-01     0.0000000000000000E+00 
    0.0000000000000000E+00     4.3750000000180111E-01     0.0000000000000000E+00 
    0.0000000000000000E+00     4.0625000000167238E-01     0.0000000000000000E+00 
[...]
CELL_DATA 2795 
SCALARS Pressure double 1 
LOOKUP_TABLE default 

    7.7809387323249162E+00 
    2.1107700054052358E+01 
    1.3038718015219358E+01 
    1.2586918486422400E+01 
    9.6896717302892288E+00 
    2.0427565455075420E+01 
    2.2046119276675100E+01 
    6.8908706637860409E+00 
    1.3822550521193101E+01 
    1.0333574241531048E+01 
    8.6920390076879137E+00 
    1.9993599980902360E+01 
    2.0759604037383884E+01 
    2.0377239175410981E+01 
    1.1910926331961670E+01 
    6.7677057703891759E+00 
    1.1382072293439034E+01 
    9.3009493440185889E+00 
    1.9232967380805214E+01 
    1.3020440024178720E+01 
    1.2866206216257629E+01 
    2.0234603311396985E+01 
    1.2163492678016604E+01 
    4.4726925191042444E-01 
    2.0079343434949443E+01 
    2.0872160252451646E+01 
    2.2127810834089900E+01 
    8.3341077253316325E+00 
    1.9827159789379426E+01 
    2.2262492257055413E+01 
    1.3340032934403823E+01 
    1.3332668473336613E+01 
    9.0265566821623029E+00 
    1.2983886486859946E+01 
    4.0234658441509126E+00 
    1.1388603338944989E+01 
    1.2966800986324003E+01 
    2.2342208850731208E+01 
    2.2009819035201836E+01 
    2.0015595253549748E+01 
    9.6006155185265989E+00 
    2.0164651799388594E+01 
    9.2832773404097391E-01 
    1.2976450821838554E+01 
    2.1707369151454298E+01 
    2.1267356576948387E+01 
    1.9975709951588186E+01 
    1.4420657327385596E+01 
    1.9968239088034906E+01 
    1.1679199284721649E+01 
    1.1051367453793752E+01 
    1.3284457857249938E+01 
    1.2811083972171764E+01 
    1.1457793859932870E+01 
    1.3461703843714401E+01 
    1.8808497591619862E+01 
    1.6066166448600228E+01 
    9.7449729886277972E+00 
    2.0263215406104731E+01 
    2.0101544830062277E+01 
    1.2622623955719860E+01 
    1.2489439194185682E+01 
    1.2434184631981253E+01 
    2.2074674948346704E+01 
    2.2535292693205932E+01 
    1.1397660709002700E+01 
    1.3283088957233550E+01 
    1.9531772255134619E+01 
    1.5824505445276102E+01 
    1.2539135048451524E+01 
    2.2432134640709442E+01 
    2.0417759280160364E+01 
    1.1214520469053259E+01 
    2.1431220717523644E+01 
    1.3850359624915964E+01 
    1.9858372099866529E+01 
    2.2385853186103038E+01 
    1.3870405836526587E+01 
    7.9209167301126033E+00 
    1.3309217905181375E+01 
    2.2011058314990166E+01 
    2.2631854066262797E+01 
    1.1444528627562230E+01 
    1.3190856616539978E+01 
    2.2670470122376216E+01 
    1.2969376428947262E+01 
    1.2299889889046373E+01 
    1.6576904609613074E+01 
    7.5435137548466749E+00 
    1.1085341787732956E+01 
    1.3189787833101063E+01 
    1.4044704104230942E+01 
    2.5003981816828890E+01 
    9.4005481329761000E+00 
    1.3294462285777087E+01 
    1.9945422644315464E+01 
    2.0651293700390223E+01 
    8.2002428665248228E+00 
    1.2779124490730323E+01 
    1.3233770119685971E+01 
    2.0706236806145974E+01 
    1.3233674310355712E+01 
    2.0549809784905420E+01 
    4.8615357272722104E+00 
    8.4404027218282316E+00 
    1.3609073181864577E+01 
    2.1138657582502216E+01 
    1.1331864421317038E+01 
    1.2291428188068366E+01 
    1.3211135127238373E+01 
    1.2257207483490673E+01 
    1.5476069775529469E+01 
    1.1890045633723931E+01 
    1.1223296635618755E+01 
    8.6491291344918508E+00 
    1.6580531251510809E+01 
    1.3335775660021602E+01 
    2.1943937310938480E+01 
    1.1306480128945802E+01 
    1.2562628263301702E+01 
    2.0428183078231523E+01 
    1.0191888464757884E+01 
    2.1354891801542831E+01 
    1.3080692108838329E+01 
    1.2450114152864032E+01 
    2.0667926854467886E+01 
    1.3326903147302353E+01 
    2.2311363914701971E+01 
    1.6618597714488981E+01 
    1.8475218443818211E+01 
    2.2164216821698105E+01 
    9.4187249037956882E+00 
    1.3637513202259917E+01 
    2.0776784360775846E+01 
    3.6133513038443987E+00 
    1.3425045549590804E+01 
    2.2090923509254910E+01 
    1.2499659931280455E+01 
    1.5031469847520430E+01 
    8.1230236648246006E+00 
    1.9998722154915367E+01 
    2.5706825109297458E+01 
    1.7482177454766529E+01 
    1.2493348769952107E+01 
    1.0943925069931471E+01 
    1.4524706162798712E+01 
    1.3105311603071545E+01 
    8.7826165938050220E+00 
    2.2190488039599252E+01 
    2.0675910950424466E+01 
    1.9952162819209818E+01 
    1.4059870508765474E+01 
    1.1177363568444248E+01 
    1.2862855345805951E+01 
    2.1453149688813525E+01 
    1.1534311922595828E+01 
    1.3242376598488386E+01 
    1.1797135459369814E+01 
    1.6234810470895823E+01 
    2.5690586188404197E+01 
    1.9920284130597167E+01 
    1.1105749616769314E+01 
    2.1077930312044479E+01 
    2.1050835075490685E+01 
    2.1213192076294973E+01 
    2.3073144415419915E+01 
    2.3955200164264788E+01 
    2.1183267406625834E+01 
    1.3271325737810129E+01 
    1.4732409954615004E+01 
    2.0774241280870815E+01 
    2.1874476544815874E+01 
    9.1825615896103283E+00 
    1.9963941776746601E+01 
    2.1343493376130802E+01 
    8.9339698672759091E+00 
    2.2938093819416469E+01 
    2.2891851601764255E+01 
    1.9361227898111871E+01 
    1.3741863468637755E+01 
    3.3209009616890981E+00 
    2.2120963221594742E+01 
    1.3518454027026051E+01 
    2.2501742536863084E+01 
    1.2395841316871499E+01 
    2.1723147563355997E+01 
    1.1623846186800804E+00 
    1.8463015318404072E+01 
    1.2551880395304028E+01 
    1.1116854435428381E+01 
    1.0794541752225452E+01 
    1.3036246832506540E+01 
    1.4847043165101853E+01 
    1.3955706970161629E+01 
    8.7819718566854661E+00 
    2.1908822291630386E+01 
    2.0862409196842538E+01 
    1.6022304671315535E+01 
    1.3595476771959950E+01 
    1.8151510944813767E+00 
    9.8847777965464410E+00 
    6.7010999945009342E+00 
    2.2302759120545634E+01 
    1.5310455500534724E+01 
    2.0572329964447189E+01 
    2.0974789203770765E+01 
    1.1700694610796869E+01 
    1.6212036223481395E+01 
    1.9907944312029027E+01 
    2.2866644082197269E+01 
    8.0950648176566951E+00 
    1.7576673637525339E+01 
    1.3923195529345218E+01 
    7.1558293990679980E+00 
    1.1660060571227575E+01 
    1.7189023511019435E+01 
    2.0912773309857133E+01 
    1.3114834887843180E+01 
    2.1154563829350774E+01 
    2.0631908569255952E+01 
    2.0537011757580235E+01 
    1.2871580675526189E+01 
    1.1072912672694514E+01 
    1.9973792639811144E+01 
    1.1209004301352303E+01 
    1.3240549224777487E+01 
    1.0954764539015230E+01 
    1.3166989580016455E+01 
    2.0974454381424273E+01 
    7.9449580187621569E+00 
    1.1527890298983028E+01 
    2.2058311165895059E+01 
    1.2889610482707383E+01 
    1.5134870126034551E+01 
    8.1503824073409188E+00 
    1.1305972571912822E+01 
    2.0574877626292508E+01 
    2.1270568166021310E+01 
    6.6497404499567896E+00 
    1.2898230384729992E+01 
    1.1024776468312716E+01 
    2.3587309090168400E+01 
    2.2654010189961973E+01 
    2.4012786731852223E+01 
    1.2928138159621243E+01 
    2.0948529112471803E+01 
    1.9793330733039113E+01 
    1.2741638077768394E+01 
    1.9943496433043443E+01 
    1.3595612294696625E+01 
    7.2532190797308411E+00 
    1.3469105122621565E+01 
    2.2124054166619644E+01 
    1.9934507764284408E+01 
    8.6385835185647011E+00 
    1.9982359341396975E+01 
    1.4891583119256186E+01 
    1.3395644095219215E+01 
    1.2626234955028030E+01 
    1.9643704914049582E+01 
    1.4251247344219536E+01 
    1.9974789252226763E+01 
    1.2875883069391683E+01 
    7.5208012798345836E+00 
    1.3341202477683792E+01 
    1.0813756859425727E+01 
    1.7524120647217543E+01 
    2.2383878015912760E+01 
    1.9986674809318810E+01 
    2.2070685246103135E+01 
    1.2813728689734205E+01 
    8.4153205628909493E+00 
    8.5394444993055050E+00 
    1.3700451912318870E+01 
    1.3206397854666568E+01 
    1.8252155640704704E+00 
    1.8862685391254349E+01 
    2.3137091986258515E+01 
    1.2411987430868642E+01 
    7.5796721354562759E+00 
    1.5954211497734967E+01 
    1.9967003112061349E+01 
    9.0894069860152893E+00 
    6.0387992295325654E+00 
    1.3173273899431063E+01 
    2.0206774212459759E+01 
    2.1780954031480821E+01 
    2.1174825877551925E+01 
    2.1291882319916450E+01 
    8.8534931235596446E+00 
    1.3380491330999261E+01 
    1.9268406859441487E+01 
    1.0131768734433523E+01 
    2.0733603281969220E+01 
    1.6607958794149059E+01 
    8.6671786568719575E+00 
    2.0053665988409268E+01 
    2.2283788621639442E+01 
    2.0335714802525001E+01 
    8.7365783330578051E+00 
    1.3277663848270613E+01 
    9.6585752251373176E+00 
    1.2474303526656948E+01 
    1.9964476732391674E+01 
    1.9947442306393437E+01 
    8.7885066630209661E+00 
    2.1776687942559313E+01 
    1.4136846290121918E+01 
    2.0103719807078157E+01 
    2.1981914821696904E+01 
    2.0032344098285066E+01 
    1.7920327894890690E+01 
    2.3705239817321644E+01 
    1.2357399414916829E+01 
    2.2010414337682501E+01 
    2.0099657405057833E+01 
    2.2178084495666486E+01 
    2.1743145927098258E+01 
    1.2509958845182101E+01 
    1.3025989239147250E+01 
    1.2395906745699605E+01 
    1.6970000640416799E+01 
    4.8849968620889390E+00 
    1.3595404320164272E+01 
    2.3894246259325783E+01 
    1.3604253920210184E+01 
    1.3923013847045443E+01 
    2.2114568460430625E+01 
    2.2546110600773122E+01 
    1.2292793141433988E+01 
    1.9985056289863671E+01 
    1.9958527951661928E+01 
    1.3901489299487000E+01 
    2.1629842134575739E+01 
    9.1286586956629456E+00 
    5.7860480303937205E+00 
    1.4386532810625965E+01 
    1.3623786203139504E+01 
    1.9922659630738142E+01 
    8.1793016090439412E+00 
    2.0996748594824833E+01 
    5.9005618518368017E+00 
    1.3528996088042312E+01 
    1.2613264830325200E+01 
    1.3244341240339432E+01 
    2.5755800341962072E+01 
    4.7374966392034903E+00 
    1.3455602813272563E+01 
    1.6983946770192532E+01 
    1.2672935379040929E+01 
    9.7366519920158421E+00 
    2.1296078197740382E+01 
    2.5124340654696617E+01 
    2.1720975888071930E+01 
    1.3359188462715236E+01 
    7.1146029406349980E+00 
    2.4940317369676411E+01 
    2.0796422202061180E+01 
    9.2754596860743561E+00 
    1.2727080979136501E+01 
    2.3040225532887632E+01 
    4.0157957933992829E+00 
    1.3712394474081735E+01 
    2.1804297441022406E+01 
    1.3263229366685438E+01 
    1.1425391659431041E+01 
    1.3522728168929055E+01 
    1.9455410966145283E+01 
    1.3236312653042070E+01 
    6.2966530331371313E+00 
    1.1476032942038257E+00 
    9.6159338334649664E+00 
    2.3448218320293659E+01 
    1.2393315397373030E+01 
    1.5628849364374490E+01 
    1.4775551214550566E+01 
    1.7671571655184646E+01 
    1.3282201387549041E+01 
    2.0583130200379234E+01 
    2.5774136521843342E+01 
    1.6433541078009309E+01 
    2.1949078809448579E+01 
    6.6953434200853512E-01 
    1.9945519641021530E+01 
    7.0126685240082578E+00 
    2.4147254002733941E+01 
    1.3478599282314367E+01 
    1.1617169131201402E+01 
    9.8647629682013775E+00 
    6.6338829501734233E+00 
    1.5188153073250417E+01 
    1.0232672006207007E+01 
    1.7328111784184618E+01 
    2.7861299762492235E+00 
    1.4955722172658637E+01 
    1.9779416158243311E+01 
    7.7377251750535052E+00 
    2.0903025867383917E+01 
    2.3696382946118227E+01 
    2.0705185042647305E+01 
    1.3261296437775570E+01 
    1.3236888609251022E+01 
    1.3466249515697235E+01 
    7.2153617328654640E+00 
    1.1961462462541149E+01 
    1.1715540906128735E+01 
    1.3447855492019233E+01 
    1.2293368262146970E+01 
    8.5850159706070472E-01 
    8.0857225140231019E+00 
    1.2912855240085220E+01 
    1.3407342980590714E+01 
    1.7981620155860654E+01 
    2.6229948194159851E+00 
    1.3832420983274709E+01 
    1.3635778870086593E+01 
    4.5532308226816447E+00 
    2.0390551420174685E+01 
    1.1261779429870495E+01 
    1.3428359400227993E+01 
    2.0741968389482849E+01 
    6.6537034235704873E+00 
    2.0573401048690055E+01 
    1.1399500880940728E+01 
    1.1804758590616711E+00 
    1.2491196560381210E+01 
    2.1908272963744334E+01 
    1.9962730951301086E+01 
    2.0010798463154906E+01 
    1.4049162727147955E+01 
    1.3533064331605969E+01 
    1.1216611978604954E+01 
    8.8256274476148633E+00 
    2.0908694822762332E+01 
    1.2719969036185967E+01 
    8.5820849417962428E+00 
    1.9989579559484614E+01 
    2.1507289396285252E+01 
    1.3736734994258869E+01 
    1.2957907753619493E+01 
    2.5609256655115125E+01 
    1.3903146265789315E+01 
    2.1036361337259954E+01 
    1.0588499968174130E+01 
    2.5806567352853239E+01 
    8.4894018311350283E+00 
    1.1896425368908284E+01 
    9.5552481715219244E+00 
    1.4301892832959014E+01 
    1.1078756168554337E+01 
    2.5786373829853904E+01 
    1.3985884564696244E+01 
    1.9437927655707444E+01 
    8.7333870127843500E+00 
    1.3277377756401187E+01 
    2.0745117994133160E+01 
    1.1117628620867915E+01 
    9.2085475907253809E+00 
    1.5432618492260850E+01 
    2.0858605014239135E+01 
    9.4270717792065497E+00 
    1.2643305967430292E+01 
    1.3002567361743088E+01 
    1.9905140487762282E+01 
    1.2711906925223220E+01 
    2.1217593313590438E+01 
    2.2243281586857314E+01 
    1.1244190473492273E+01 
    1.0994348818539979E+01 
    1.0299575255180814E+01 
    2.0152033665954267E+01 
    1.3647950993016396E+01 
    2.5179699496300756E+01 
    1.8191086297471308E+01 
    2.0625632971024039E+01 
    2.4752420525420483E+01 
    2.3701701530810141E+01 
    1.3343055158476878E+01 
    1.3423190553057855E+01 
    1.9376995630262179E+01 
    2.0007393142057253E+01 
    2.1226079174374156E+01 
    2.0817263429531927E+01 
    2.5644748697733103E+01 
    1.3902313213104946E+01 
    1.1414792787538213E+01 
    1.3845576732482911E+01 
    2.2032688332150606E+01 
    1.3481079679737626E+01 
    7.5477638245187535E+00 
    1.3235405530810381E+01 
    2.2994014609867850E+01 
    1.3695611630501622E+01 
    1.1411568544393541E+01 
    1.2916199629019003E+01 
    2.3184866574948916E+01 
    2.0340645894075625E+01 
    1.0758945872796977E+01 
    2.3404755365278234E+01 
    1.3384687557999932E+01 
    2.1411073347919832E+01 
    2.3190223741452243E+01 
    1.4423715580479051E+01 
    6.6665324811681375E+00 
    1.5189416261082531E+01 
    6.9046427749338495E+00 
    1.3553464793626167E+01 
    1.3265673516400431E+01 
    1.6273251736403385E+01 
    7.3218560323071813E+00 
    1.7652625926334828E+01 
    1.3294302571968538E+01 
    2.0809538044274301E+01 
    1.4598502963456214E+01 
    1.0462603741908934E+01 
    1.2731868541509085E+01 
    1.4308999452340181E+01 
    1.4080752976254431E+01 
    2.2475727077203164E+01 
    1.0818410029175361E+01 
    1.0608864811396808E+01 
    7.7248721120513366E+00 
    2.1353211784983859E+01 
    1.2792418089265361E+01 
    1.9849651578354990E+01 
    1.3223527312760806E+01 
    8.5033677783492525E+00 
    2.0332424675571893E+01 
    1.3188109725656386E+01 
    9.3406978880427776E+00 
    9.9488149069330127E+00 
    1.0335491534558892E+01 
    2.0841360436072318E+01 
    1.3451129843143484E+01 
    2.1952017005139897E+01 
    1.3128464930717627E+01 
    1.3038892319584493E+01 
    1.2510076477739240E+01 
    2.0514085985444236E+01 
    1.2918675163294990E+01 
    1.0387619671018232E+01 
    2.3697901115367952E+01 
    2.0671098578128923E+01 
    8.9042432607459947E+00 
    3.3122068565737210E+00 
    1.3433228752420108E+01 
    1.2336995591895443E+01 
    1.0984671508324006E+01 
    1.2200304685802678E+01 
    2.0270792752160069E+01 
    1.2963959056819720E+01 
    1.1517688726764362E+01 
    2.0050093635977614E+01 
    8.8244738915832119E+00 
    1.9315127454192019E+01 
    1.1892140565596099E+01 
    1.0298448926047222E+01 
    1.1112728844554111E+01 
    2.1579140245860408E+01 
    1.3248600157224406E+01 
    1.3260109262352847E+01 
    7.4411195608027363E+00 
    8.0909492528768912E+00 
    1.8119700648364088E+01 
    1.3274114786375167E+01 
    1.3500172579150529E+01 
    2.3398148729900814E+01 
    1.0614268891996440E+01 
    1.3291701841211596E+01 
    9.1506987770822033E+00 
    9.4642843243660746E+00 
    2.0435972923814564E+01 
    1.2756938390390598E+01 
    8.9830232674872761E+00 
    1.4060383403429581E+01 
    1.3110628060538540E+01 
    2.0468758087119710E+01 
    2.3548620546301226E+01 
    1.2474445126856732E+00 
    1.3441268794368991E+01 
    1.3622011279231574E+01 
    2.0647894036769745E+01 
    1.2606490272067431E+01 
    1.3211251445007708E+01 
    2.2516639783917938E+01 
    1.1147211096411686E+01 
    9.0682588634008425E+00 
    1.6772945883430111E+01 
    1.9981369013034879E+01 
    2.2159055012681357E+01 
    2.2812290440615168E+01 
    1.3183618998189161E+01 
    1.3427974144895311E+01 
    1.5272718243975765E+01 
    8.4399927961838301E+00 
    2.0181912824919159E+01 
    9.8251579057511815E+00 
    8.8073509034612503E+00 
    1.7624609859620122E+01 
    1.6260227153338452E+01 
    8.6286091480962437E+00 
    2.0039457769426814E+01 
    2.2133748314011072E+01 
    1.3929497199342146E+01 
    2.3717779915639220E+01 
    2.0089899974919984E+01 
    1.2735599218120612E+01 
    2.1478199039831562E+01 
    9.4630445207583538E+00 
    1.9994588553800646E+01 
    1.3439835573620133E+01 
    1.3373345826598321E+01 
    2.3693498706272830E+01 
    1.2842594630445811E+01 
    1.7135458638941472E+01 
    1.1077561683209920E+01 
    2.2402671232887300E+01 
    1.9803694537894668E+01 
    1.1623896829429301E+01 
    1.9980423880719492E+01 
    1.1886450430947136E+01 
    1.3224748484734524E+01 
    2.2046817343632480E+01 
    2.0735620508595634E+01 
    2.2138923184656409E+01 
    2.0646355933613361E+01 
    1.1990918140105373E+01 
    1.2354225387410988E+01 
    2.2159558286088235E+01 
    1.2550072017791152E+01 
    1.9596417077423514E+01 
    1.2825426502133956E+01 
    4.9340497974931665E+00 
    8.9098551311584480E+00 
    8.2342730148872452E+00 
    2.2051011434043545E+01 
    2.3566469998965591E+01 
    1.9988712505222622E+01 
    1.5846106472418890E+01 
    2.0480681590983970E+01 
    2.0039039579026433E+01 
    2.1239895350671940E+01 
    7.1642855364959912E+00 
    4.5829396572175405E+00 
    1.5464235684930097E+01 
    1.2863727908473157E+01 
    2.0291601068911429E+01 
    2.0290052483138979E+01 
    1.3650612362291872E+01 
    2.0350067077457155E+01 
    1.3418780263718709E+01 
    1.3245177531620604E+01 
    6.4350449445057318E+00 
    4.5565770634319218E+00 
    2.3174612877589624E+01 
    1.0103470701501346E+01 
    1.1540756848254686E+01 
    1.3499162440137249E+01 
    2.5616586000375417E+01 
    1.3636827194176970E+01 
    1.3908649857313147E+01 
    5.2495011581924258E+00 
    1.3636595041469283E+01 
    1.3658030943908383E+01 
    2.0943725615440563E+01 
    1.1126135561722537E+01 
    1.2620473611023810E+01 
    2.3463706442416704E+01 
    1.3454874409712025E+01 
    2.0006910491064538E+01 
    2.0459757384926515E+01 
    1.7238250568685327E+01 
    1.1071226918864928E+01 
    2.0635460834709548E+01 
    1.3106357399027432E+01 
    2.0372272216563712E+01 
    1.9872705362161415E+01 
    2.2095909663980805E+01 
    2.0672034431865136E+01 
    1.8501682308170885E+01 
    1.3436797373467675E+01 
    8.5650014859164774E+00 
    2.5443818028844397E+01 
    1.0048729966533003E+01 
    2.2120917565272972E+01 
    1.3432449813096389E+01 
    1.0701993076715032E+01 
    6.2231640170535778E+00 
    1.3714044114120004E+01 
    2.0619947163789210E+01 
    2.0584398769634255E+01 
    1.3197316008123952E+01 
    1.3422655355543395E+01 
    2.3777042515987524E+01 
    2.2702762292537962E+01 
    1.3667544984988918E+01 
    4.2646338280608695E+00 
    1.8330407170564001E+01 
    2.5778624493849811E+01 
    1.3442378822914980E+01 
    1.6513364332168081E+01 
    1.2601275413704677E+01 
    2.5239299456917625E+01 
    2.2840770531533781E+01 
    2.2317605555547292E+01 
    1.3702070595694286E+01 
    5.8325858753022066E+00 
    1.2534191182244301E+01 
    1.2642244217124290E+01 
    1.2719120383439314E+01 
    4.6773880916713972E+00 