# vtk DataFile Version 2.0
Pressure Field Data 
ASCII 
DATASET UNSTRUCTURED_GRID 

POINTS 2860 double 

    0.0000000000000000E+00     0.0000000000000000E+00     0.0000000000000000E+00 
    1.0000000000000000E+00     0.0000000000000000E+00     0.0000000000000000E+00 
    1.0000000000000000E+00     1.0000000000000000E+00     0.0000000000000000E+00 
    0.0000000000000000E+00     1.0000000000000000E+00     0.0000000000000000E+00 
    2.5000000000000000E-01     2.5000000000000000E-01     0.0000000000000000E+00 
    7.5000000000000000E-01     2.5000000000000000E-01     0.0000000000000000E+00 
    7.5000000000000000E-01     7.5000000000000000E-01     0.0000000000000000E+00 
    2.5000000000000000E-01     7.5000000000000000E-01     0.0000000000000000E+00 
    3.1249999999942091E-02     0.0000000000000000E+00     0.0000000000000000E+00 
    6.2499999999873469E-02     0.0000000000000000E+00     0.0000000000000000E+00 
    9.3749999999826514E-02     0.0000000000000000E+00     0.0000000000000000E+00 
    1.2499999999977961E-01     0.0000000000000000E+00     0.0000000000000000E+00 
    1.5624999999968961E-01     0.0000000000000000E+00     0.0000000000000000E+00 
    1.8749999999959971E-01     0.0000000000000000E+00     0.0000000000000000E+00 
    2.1874999999950970E-01     0.0000000000000000E+00     0.0000000000000000E+00 
    2.4999999999941969E-01     0.0000000000000000E+00     0.0000000000000000E+00 
    2.8124999999932920E-01     0.0000000000000000E+00     0.0000000000000000E+00 
    3.1249999999923850E-01     0.0000000000000000E+00     0.0000000000000000E+00 
    3.4374999999914790E-01     0.0000000000000000E+00     0.0000000000000000E+00 
    3.7499999999905720E-01     0.0000000000000000E+00     0.0000000000000000E+00 
    4.0624999999896660E-01     0.0000000000000000E+00     0.0000000000000000E+00 
    4.3749999999887590E-01     0.0000000000000000E+00     0.0000000000000000E+00 
    4.6874999999878530E-01     0.0000000000000000E+00     0.0000000000000000E+00 
    4.9999999999869471E-01     0.0000000000000000E+00     0.0000000000000000E+00 
    5.3124999999877620E-01     0.0000000000000000E+00     0.0000000000000000E+00 
    5.6249999999885780E-01     0.0000000000000000E+00     0.0000000000000000E+00 
    5.9374999999893940E-01     0.0000000000000000E+00     0.0000000000000000E+00 
    6.2499999999902101E-01     0.0000000000000000E+00     0.0000000000000000E+00 
    6.5624999999910261E-01     0.0000000000000000E+00     0.0000000000000000E+00 
    6.8749999999918421E-01     0.0000000000000000E+00     0.0000000000000000E+00 
    7.1874999999926570E-01     0.0000000000000000E+00     0.0000000000000000E+00 
    7.4999999999934730E-01     0.0000000000000000E+00     0.0000000000000000E+00 
    7.8124999999942890E-01     0.0000000000000000E+00     0.0000000000000000E+00 
    8.1249999999951039E-01     0.0000000000000000E+00     0.0000000000000000E+00 
    8.4374999999959199E-01     0.0000000000000000E+00     0.0000000000000000E+00 
    8.7499999999967359E-01     0.0000000000000000E+00     0.0000000000000000E+00 
    9.0624999999975520E-01     0.0000000000000000E+00     0.0000000000000000E+00 
    9.3749999999983680E-01     0.0000000000000000E+00     0.0000000000000000E+00 
    9.6874999999991840E-01     0.0000000000000000E+00     0.0000000000000000E+00 
    1.0000000000000000E+00     3.1249999999942091E-02     0.0000000000000000E+00 
    1.0000000000000000E+00     6.2499999999873469E-02     0.0000000000000000E+00 
    1.0000000000000000E+00     9.3749999999826514E-02     0.0000000000000000E+00 
    1.0000000000000000E+00     1.2499999999977961E-01     0.0000000000000000E+00 
    1.0000000000000000E+00     1.5624999999968961E-01     0.0000000000000000E+00 
    1.0000000000000000E+00     1.8749999999959971E-01     0.0000000000000000E+00 
    1.0000000000000000E+00     2.1874999999950970E-01     0.0000000000000000E+00 
    1.0000000000000000E+00     2.4999999999941969E-01     0.0000000000000000E+00 
    1.0000000000000000E+00     2.8124999999932920E-01     0.0000000000000000E+00 
    1.0000000000000000E+00     3.1249999999923850E-01     0.0000000000000000E+00 
    1.0000000000000000E+00     3.4374999999914790E-01     0.0000000000000000E+00 
    1.0000000000000000E+00     3.7499999999905720E-01     0.0000000000000000E+00 
    1.0000000000000000E+00     4.0624999999896660E-01     0.0000000000000000E+00 
    1.0000000000000000E+00     4.3749999999887590E-01     0.0000000000000000E+00 
    1.0000000000000000E+00     4.6874999999878530E-01     0.0000000000000000E+00 
    1.0000000000000000E+00     4.9999999999869471E-01     0.0000000000000000E+00 
    1.0000000000000000E+00     5.3124999999877620E-01     0.0000000000000000E+00 
    1.0000000000000000E+00     5.6249999999885780E-01     0.0000000000000000E+00 
    1.0000000000000000E+00     5.9374999999893940E-01     0.0000000000000000E+00 
    1.0000000000000000E+00     6.2499999999902101E-01     0.0000000000000000E+00 
    1.0000000000000000E+00     6.5624999999910261E-01     0.0000000000000000E+00 
    1.0000000000000000E+00     6.8749999999918421E-01     0.0000000000000000E+00 
    1.0000000000000000E+00     7.1874999999926570E-01     0.0000000000000000E+00 
    1.0000000000000000E+00     7.4999999999934730E-01     0.0000000000000000E+00 
    1.0000000000000000E+00     7.8124999999942890E-01     0.0000000000000000E+00 
    1.0000000000000000E+00     8.1249999999951039E-01     0.0000000000000000E+00 
    1.0000000000000000E+00     8.4374999999959199E-01     0.0000000000000000E+00 
    1.0000000000000000E+00     8.7499999999967359E-01     0.0000000000000000E+00 
    1.0000000000000000E+00     9.0624999999975520E-01     0.0000000000000000E+00 
    1.0000000000000000E+00     9.3749999999983680E-01     0.0000000000000000E+00 
    1.0000000000000000E+00     9.6874999999991840E-01     0.0000000000000000E+00 
    9.6875000000003686E-01     1.0000000000000000E+00     0.0000000000000000E+00 
    9.3750000000011691E-01     1.0000000000000000E+00     0.0000000000000000E+00 
    9.0625000000015765E-01     1.0000000000000000E+00     0.0000000000000000E+00 
    8.7500000000017863E-01     1.0000000000000000E+00     0.0000000000000000E+00 
    8.4375000000028044E-01     1.0000000000000000E+00     0.0000000000000000E+00 
    8.1250000000040856E-01     1.0000000000000000E+00     0.0000000000000000E+00 
    7.8125000000054956E-01     1.0000000000000000E+00     0.0000000000000000E+00 
    7.5000000000066480E-01     1.0000000000000000E+00     0.0000000000000000E+00 
    7.1875000000086831E-01     1.0000000000000000E+00     0.0000000000000000E+00 
    6.8750000000102829E-01     1.0000000000000000E+00     0.0000000000000000E+00 
    6.5625000000114431E-01     1.0000000000000000E+00     0.0000000000000000E+00 
    6.2500000000129829E-01     1.0000000000000000E+00     0.0000000000000000E+00 
    5.9375000000147926E-01     1.0000000000000000E+00     0.0000000000000000E+00 
    5.6250000000168354E-01     1.0000000000000000E+00     0.0000000000000000E+00 
    5.3125000000188671E-01     1.0000000000000000E+00     0.0000000000000000E+00 
    5.0000000000205835E-01     1.0000000000000000E+00     0.0000000000000000E+00 
    4.6875000000192979E-01     1.0000000000000000E+00     0.0000000000000000E+00 
    4.3750000000180111E-01     1.0000000000000000E+00     0.0000000000000000E+00 
    4.0625000000167238E-01     1.0000000000000000E+00     0.0000000000000000E+00 
    3.7500000000154382E-01     1.0000000000000000E+00     0.0000000000000000E+00 
    3.4375000000141509E-01     1.0000000000000000E+00     0.0000000000000000E+00 
    3.1250000000128642E-01     1.0000000000000000E+00     0.0000000000000000E+00 
    2.8125000000115769E-01     1.0000000000000000E+00     0.0000000000000000E+00 
    2.5000000000102918E-01     1.0000000000000000E+00     0.0000000000000000E+00 
    2.1875000000090050E-01     1.0000000000000000E+00     0.0000000000000000E+00 
    1.8750000000077180E-01     1.0000000000000000E+00     0.0000000000000000E+00 
    1.5625000000064329E-01     1.0000000000000000E+00     0.0000000000000000E+00 
    1.2500000000051459E-01     1.0000000000000000E+00     0.0000000000000000E+00 
    9.3750000000385914E-02     1.0000000000000000E+00     0.0000000000000000E+00 
    6.2500000000257239E-02     1.0000000000000000E+00     0.0000000000000000E+00 
    3.1250000000128557E-02     1.0000000000000000E+00     0.0000000000000000E+00 
    0.0000000000000000E+00     9.6875000000003686E-01     0.0000000000000000E+00 
    0.0000000000000000E+00     9.3750000000011691E-01     0.0000000000000000E+00 
    0.0000000000000000E+00     9.0625000000015765E-01     0.0000000000000000E+00 
    0.0000000000000000E+00     8.7500000000017863E-01     0.0000000000000000E+00 
    0.0000000000000000E+00     8.4375000000028044E-01     0.0000000000000000E+00 
    0.0000000000000000E+00     8.1250000000040856E-01     0.0000000000000000E+00 
    0.0000000000000000E+00     7.8125000000054956E-01     0.0000000000000000E+00 
    0.0000000000000000E+00     7.5000000000066480E-01     0.0000000000000000E+00 
    0.0000000000000000E+00     7.1875000000086831E-01     0.0000000000000000E+00 
    0.0000000000000000E+00     6.8750000000102829E-01     0.0000000000000000E+00 
    0.0000000000000000E+00     6.5625000000114431E-01     0.0000000000000000E+00 
    0.0000000000000000E+00     6.2500000000129829E-01     0.0000000000000000E+00 
    0.0000000000000000E+00     5.9375000000147926E-01     0.0000000000000000E+00 
    0.0000000000000000E+00     5.6250000000168354E-01     0.0000000000000000E+00 
    0.0000000000000000E+00     5.3125000000188671E-01     0.0000000000000000E+00 
    0.0000000000000000E+00     5.0000000000205835E-01     0.0000000000000000E+00 
    0.0000000000000000E+00     4.6875000000192979E-01     0.0000000000000000E+00 
    0.0000000000000000E+00     4.3750000000180111E-01     0.0000000000000000E+00 
    0.0000000000000000E+00     4.0625000000167238E-01     0.0000000000000000E+00 
[...]
CELL_DATA 2795 
SCALARS Pressure double 1 
LOOKUP_TABLE default 

    8.8019337301310649E+00 
    1.9687074866054825E+01 
    1.3812156006321867E+01 
    1.3506438869475184E+01 
    1.0807622015187288E+01 
    1.9438596376010675E+01 
    2.0434888202488580E+01 
    7.8563355409477618E+00 
    1.4383553241805249E+01 
    1.0996878858418262E+01 
    9.3040725310959687E+00 
    1.9074792482740811E+01 
    1.9576438056856915E+01 
    1.9393644069409532E+01 
    1.2739256408335669E+01 
    7.7220864943074030E+00 
    1.2468171358291851E+01 
    9.9376996504940074E+00 
    1.8453863645002212E+01 
    1.3788786645931825E+01 
    1.3682344493887530E+01 
    1.9298114523950293E+01 
    1.3158286284789588E+01 
    5.3205378081660371E-01 
    1.9023920788315817E+01 
    1.9527184584290424E+01 
    2.0476341142350307E+01 
    8.9496493831435568E+00 
    1.8949479173331724E+01 
    2.0478238739054394E+01 
    1.4034397709763653E+01 
    1.3995622295494210E+01 
    9.7279331506312055E+00 
    1.3774388916385234E+01 
    4.5468357469179779E+00 
    1.2473924010045305E+01 
    1.3757531053525318E+01 
    2.0528597905710381E+01 
    2.0404426437474754E+01 
    1.9092828716558135E+01 
    1.0660149084658109E+01 
    1.9117453993612344E+01 
    1.1033712289325575E+00 
    1.3795647496163054E+01 
    2.0216875273111270E+01 
    1.9845000840246986E+01 
    1.9059572845077980E+01 
    1.4808277248338451E+01 
    1.9091730382275923E+01 
    1.2752309675158571E+01 
    1.2160086715124981E+01 
    1.3956591061226504E+01 
    1.3680227244385975E+01 
    1.2546742376090702E+01 
    1.4117697251938836E+01 
    1.8108832874211085E+01 
    1.6048952739740219E+01 
    1.0864012771123713E+01 
    1.9309036924672899E+01 
    1.9188341462504994E+01 
    1.3459046025727048E+01 
    1.3286634167941717E+01 
    1.3382696445995407E+01 
    2.0351966407155075E+01 
    2.0708269089657179E+01 
    1.2486556543306765E+01 
    1.3954549130781999E+01 
    1.8710457764006104E+01 
    1.5858033874622954E+01 
    1.3368136803971058E+01 
    2.0676266697126710E+01 
    1.9286315942509425E+01 
    1.2315350429849014E+01 
    1.9973247510021164E+01 
    1.4404405083282681E+01 
    1.8866496977109655E+01 
    2.0547656929572113E+01 
    1.4467265837360896E+01 
    8.8706697151067466E+00 
    1.3974368727833413E+01 
    2.0416204843514226E+01 
    2.0725396749977119E+01 
    1.2505592343595284E+01 
    1.3900528274820413E+01 
    2.0782092916465952E+01 
    1.3754070584024699E+01 
    1.3272433682193007E+01 
    1.6421041440902204E+01 
    8.5242992712578989E+00 
    1.2195096897515111E+01 
    1.3896470371336701E+01 
    1.4546289812969194E+01 
    2.2523584664905076E+01 
    1.0506918022990192E+01 
    1.3963074476231126E+01 
    1.9028629553238716E+01 
    1.9499470896531001E+01 
    9.2467480319620741E+00 
    1.3601910095444026E+01 
    1.3933173171439782E+01 
    1.9535629079908194E+01 
    1.3918368387905701E+01 
    1.9410866330005955E+01 
    5.6091550182052359E+00 
    9.0370507115216601E+00 
    1.4200473715418456E+01 
    1.9696895149885098E+01 
    1.2429174858845656E+01 
    1.3165039074900902E+01 
    1.3890251318837713E+01 
    1.3228149611282166E+01 
    1.5608218801012566E+01 
    1.2826116707645406E+01 
    1.2324453437855370E+01 
    9.6432179501797481E+00 
    1.6489553991889657E+01 
    1.4001763814428925E+01 
    2.0242420049127901E+01 
    1.1974285371962203E+01 
    1.3480502806897675E+01 
    1.9295452290606850E+01 
    1.1285213366022315E+01 
    1.9904512265637770E+01 
    1.3828244891650451E+01 
    1.3394462973023009E+01 
    1.9505885430142719E+01 
    1.3987853926112729E+01 
    2.0555150748097596E+01 
    1.6450487652380097E+01 
    1.7845420881321612E+01 
    2.0498234374140775E+01 
    1.0525830995548771E+01 
    1.4222244596185529E+01 
    1.9507588218507088E+01 
    4.1912812652050180E+00 
    1.4091592015684991E+01 
    2.0453669645864984E+01 
    1.3427594911387454E+01 
    1.5335513612403682E+01 
    9.1030025483241452E+00 
    1.9031417850847681E+01 
    2.3079182512869195E+01 
    1.7098574375761110E+01 
    1.3430675078002059E+01 
    1.2052319596104390E+01 
    1.4901256460810222E+01 
    1.3846030843820046E+01 
    9.4197710364865070E+00 
    2.0498012959583033E+01 
    1.9465508922194154E+01 
    1.9031523927991479E+01 
    1.4542713975581504E+01 
    1.2276256765025572E+01 
    1.3676561251477910E+01 
    2.0008455969124057E+01 
    1.2618860821596956E+01 
    1.3995289074383257E+01 
    1.2839457143682671E+01 
    1.6213770535531602E+01 
    2.3065863041909314E+01 
    1.9016473935924598E+01 
    1.2097159208935190E+01 
    1.9772614492326777E+01 
    1.9644358215205219E+01 
    1.9747757048867424E+01 
    2.1034951424448007E+01 
    2.1689148907954269E+01 
    1.9813271504273970E+01 
    1.3945465726721023E+01 
    1.5100538511130409E+01 
    1.9582800604374853E+01 
    2.0238921939481301E+01 
    9.8697524111888004E+00 
    1.9056928484980798E+01 
    1.9950771410102835E+01 
    9.5880370547232907E+00 
    2.0950812113873777E+01 
    2.0907100135379643E+01 
    1.8566487448246484E+01 
    1.4300693483192788E+01 
    3.7155920168723919E+00 
    2.0460308301144170E+01 
    1.4133151311046383E+01 
    2.0630050602649273E+01 
    1.3337016603500992E+01 
    2.0182292839274037E+01 
    1.3818039316666200E+00 
    1.7844546841421081E+01 
    1.3341808446336380E+01 
    1.2220879942114667E+01 
    1.1911636997645216E+01 
    1.3793570795601173E+01 
    1.5132925234923016E+01 
    1.4539280578212008E+01 
    9.7402515014592304E+00 
    2.0242860579392161E+01 
    1.9538753357623150E+01 
    1.6007663500840216E+01 
    1.4190468964334203E+01 
    2.1298952913745284E+00 
    1.1007498143818628E+01 
    7.6274858478816618E+00 
    2.0493126703450926E+01 
    1.5479457469570811E+01 
    1.9477288308646536E+01 
    1.9627601653661987E+01 
    1.2718477125907569E+01 
    1.6141817163742473E+01 
    1.9016364136013802E+01 
    2.0887867493613342E+01 
    9.1069524969262776E+00 
    1.7216129418246819E+01 
    1.4492774926381086E+01 
    8.1150131994642773E+00 
    1.2712812503495826E+01 
    1.6859238611194524E+01 
    1.9576051081793096E+01 
    1.3845982056742979E+01 
    1.9720183575864056E+01 
    1.9410827332722175E+01 
    1.9342539584802147E+01 
    1.3679425468137506E+01 
    1.2110209644633080E+01 
    1.9043470554600958E+01 
    1.2305008659154502E+01 
    1.3929385775094389E+01 
    1.2069392644099119E+01 
    1.3947323063643699E+01 
    1.9640977600004245E+01 
    8.4928930374337064E+00 
    1.2590379669178292E+01 
    2.0378897048498736E+01 
    1.3685332626435015E+01 
    1.5352152123602201E+01 
    8.7037214114917116E+00 
    1.2394368888821546E+01 
    1.9380447892261234E+01 
    1.9792361208618377E+01 
    7.1576462299668435E+00 
    1.3703596240730816E+01 
    1.2120694118357244E+01 
    2.1410889798872692E+01 
    2.0738155018890389E+01 
    2.1725954185253176E+01 
    1.3724435091331067E+01 
    1.9603393487164588E+01 
    1.8927286194995634E+01 
    1.3561211934958578E+01 
    1.9030848709615729E+01 
    1.4190950029242055E+01 
    8.1834029531481640E+00 
    1.4153151156029654E+01 
    2.0366758343859932E+01 
    1.9025600465818282E+01 
    9.2625344342687264E+00 
    1.9068522247118597E+01 
    1.5167475226451412E+01 
    1.4065835403488753E+01 
    1.3516622019463693E+01 
    1.8798845831343939E+01 
    1.4703393105293632E+01 
    1.9050400950713776E+01 
    1.3720149408190276E+01 
    8.4106233137100261E+00 
    1.4014255307195977E+01 
    1.1922599322199620E+01 
    1.7124382716591832E+01 
    2.0615330645311097E+01 
    1.9042207028192941E+01 
    2.0445820611219975E+01 
    1.3617036112862674E+01 
    9.0003399892020592E+00 
    9.1334243905655850E+00 
    1.4295343759673468E+01 
    1.3896671972449433E+01 
    2.1286538506651671E+00 
    1.8153086568590034E+01 
    2.1083626099222695E+01 
    1.3358269274717346E+01 
    8.5758328272646551E+00 
    1.6011738001057697E+01 
    1.9063156760482933E+01 
    1.0177456856611725E+01 
    6.9169490834186602E+00 
    1.3884215003076500E+01 
    1.9169779440766757E+01 
    2.0128698613879887E+01 
    1.9856370601590417E+01 
    1.9795131889906621E+01 
    9.8880690175478421E+00 
    1.4060490082965648E+01 
    1.8471010976059659E+01 
    1.0783466422007752E+01 
    1.9557723411184526E+01 
    1.6430642957988585E+01 
    9.2773530381787825E+00 
    1.9162419385617955E+01 
    2.0519656690917959E+01 
    1.9252946133240599E+01 
    9.8115081773916994E+00 
    1.3950199103103520E+01 
    1.0775167535307638E+01 
    1.3149774664619402E+01 
    1.9053737060846032E+01 
    1.9036953573468132E+01 
    9.8658905480764236E+00 
    2.0246582975561196E+01 
    1.4598360896831176E+01 
    1.9087800177064004E+01 
    2.0278599840714321E+01 
    1.9067985106589141E+01 
    1.7430722524206104E+01 
    2.1486667272863151E+01 
    1.3288134029355399E+01 
    2.0404287793973236E+01 
    1.9117799757018684E+01 
    2.0502942894371191E+01 
    2.0241421571256200E+01 
    1.3419454403969691E+01 
    1.3799392817777665E+01 
    1.3346780790186639E+01 
    1.6717457407713148E+01 
    5.6358257053494887E+00 
    1.4216232371798716E+01 
    2.1632619934695263E+01 
    1.4196850705584129E+01 
    1.4437140314541701E+01 
    2.0467617495798624E+01 
    2.0756184138431955E+01 
    1.3162349169481823E+01 
    1.9073963786295739E+01 
    1.9033569853362319E+01 
    1.4420907943479129E+01 
    2.0180166474919179E+01 
    9.7998425716282949E+00 
    6.2646238543609165E+00 
    1.4786574564400999E+01 
    1.4211533626022838E+01 
    1.9031351136202780E+01 
    9.2244355701389669E+00 
    1.9762084053400184E+01 
    6.3788242848673864E+00 
    1.4140138881127868E+01 
    1.3427918066378318E+01 
    1.3925214498580278E+01 
    2.3121024223710883E+01 
    5.4668096978918124E+00 
    1.4112999751130475E+01 
    1.6808729579944508E+01 
    1.3493783389949282E+01 
    1.0731309830323520E+01 
    1.9983388220648887E+01 
    2.2623019679213112E+01 
    2.0154552079165178E+01 
    1.4036271190512252E+01 
    8.0876645018400168E+00 
    2.2456224562862335E+01 
    1.9525554904789491E+01 
    1.0153401439481877E+01 
    1.3616086121737531E+01 
    2.1012891596921584E+01 
    4.6546198139322090E+00 
    1.4278353553747856E+01 
    2.0196765673254816E+01 
    1.3943012656509527E+01 
    1.2091619453815083E+01 
    1.4162764895902670E+01 
    1.8538427131074506E+01 
    1.3924560951087418E+01 
    7.2077598813377772E+00 
    1.3703366467535112E+00 
    1.0302840462249348E+01 
    2.1299939869324440E+01 
    1.3345759912891697E+01 
    1.5712415087104818E+01 
    1.5085220361365375E+01 
    1.7208566259758111E+01 
    1.3957626882550800E+01 
    1.9398909448524186E+01 
    2.3136685176858631E+01 
    1.6312730031191119E+01 
    2.0367188401026130E+01 
    7.9751663882748580E-01 
    1.9038882330084981E+01 
    7.8973794003151738E+00 
    2.1829171185390528E+01 
    1.4130047593317443E+01 
    1.2387228696450777E+01 
    1.0987231894077281E+01 
    7.5739877452137048E+00 
    1.5382801617302295E+01 
    1.0959445874008310E+01 
    1.6979122182222621E+01 
    3.1480653513730981E+00 
    1.5216106576532420E+01 
    1.8914532404125211E+01 
    8.2989863258541785E+00 
    1.9631296008643250E+01 
    2.1567462539437397E+01 
    1.9466405791616154E+01 
    1.3957123947529666E+01 
    1.3918009998449532E+01 
    1.4120972336656957E+01 
    8.2046769186126447E+00 
    1.2987939854110683E+01 
    1.2777256416851912E+01 
    1.4107186221553814E+01 
    1.3255010184068981E+01 
    1.0262703453853914E+00 
    9.0008052171288373E+00 
    1.3754048657853659E+01 
    1.4075060961408631E+01 
    1.7467735258460817E+01 
    3.0552290599865746E+00 
    1.4368838577386539E+01 
    1.4220603957362284E+01 
    5.2634308662141418E+00 
    1.9279952844951737E+01 
    1.2330070310579629E+01 
    1.4064236638883983E+01 
    1.9524030250083737E+01 
    7.5994465987173063E+00 
    1.9415754847359533E+01 
    1.2493171786435354E+01 
    1.3891480608941209E+00 
    1.3426514846437573E+01 
    2.0296099606393152E+01 
    1.9041301358104370E+01 
    1.9068446622079986E+01 
    1.4550544955265348E+01 
    1.4143284679799763E+01 
    1.2307255785326737E+01 
    9.7602879614029003E+00 
    1.9680116611580484E+01 
    1.3609080979710313E+01 
    9.4479748985622845E+00 
    1.9061359618030298E+01 
    1.9995088568315794E+01 
    1.4324757727690574E+01 
    1.3738679843414413E+01 
    2.3000564723864187E+01 
    1.4422160795900933E+01 
    1.9694690863726684E+01 
    1.1696158351657793E+01 
    2.3166266975674187E+01 
    9.0785454005031543E+00 
    1.2827232390761937E+01 
    1.0278932937093280E+01 
    1.4722885991618853E+01 
    1.1868625690040689E+01 
    2.3148507489364125E+01 
    1.4484552709802594E+01 
    1.8541260001501875E+01 
    9.3598053780483514E+00 
    1.3950838023687806E+01 
    1.9479581418140143E+01 
    1.1934451333890244E+01 
    1.0184253227038537E+01 
    1.5646504623663480E+01 
    1.9711399438459697E+01 
    1.0061592291983478E+01 
    1.3456497165765557E+01 
    1.3782221789848142E+01 
    1.9002872875518815E+01 
    1.3516791730247979E+01 
    1.9744496496512870E+01 
    2.0540734599943544E+01 
    1.2340451670692410E+01 
    1.2098357048706482E+01 
    1.0950822879868252E+01 
    1.9200621762993944E+01 
    1.4244661647078825E+01 
    2.2666891569220212E+01 
    1.7664099933007485E+01 
    1.9422911675502657E+01 
    2.2309834701458684E+01 
    2.1574171267433556E+01 
    1.4001823045002176E+01 
    1.4087865237307915E+01 
    1.8571230112093971E+01 
    1.9093894965443862E+01 
    1.9913051501955813E+01 
    1.9554765129644778E+01 
    2.3027842126691922E+01 
    1.4421531970876449E+01 
    1.2484815524717643E+01 
    1.4390335432141226E+01 
    2.0424420585087383E+01 
    1.4104629697090971E+01 
    8.0916743499627195E+00 
    1.3936454609302141E+01 
    2.0978051304079976E+01 
    1.4265694166666355E+01 
    1.2496436246883372E+01 
    1.3719614432166450E+01 
    2.1113917998128326E+01 
    1.9210687112707287E+01 
    1.1817931835609294E+01 
    2.1279409657274826E+01 
    1.4032464875175945E+01 
    1.9881664745179698E+01 
    2.1127311795921447E+01 
    1.4857997287131376E+01 
    7.6123461403709678E+00 
    1.5429960815919751E+01 
    7.8645588137822715E+00 
    1.4158822177983826E+01 
    1.3948849724030001E+01 
    1.6227715704209256E+01 
    8.3144080253904082E+00 
    1.7249137969889116E+01 
    1.3965092507111484E+01 
    1.9540477999254591E+01 
    1.5020895189018646E+01 
    1.1426416117293352E+01 
    1.3556656571175155E+01 
    1.4743630558110716E+01 
    1.4556026954156494E+01 
    2.0625958007862042E+01 
    1.1935119325532851E+01 
    1.1731465068998775E+01 
    8.7341613093828911E+00 
    1.9945202095274944E+01 
    1.3610533163852278E+01 
    1.8881643903682271E+01 
    1.3914902118053623E+01 
    9.5435105047641642E+00 
    1.9231451528311545E+01 
    1.3890889830342619E+01 
    1.0416995168746487E+01 
    1.1052045530493476E+01 
    1.1447977549284419E+01 
    1.9584806084567226E+01 
    1.4109701845338588E+01 
    2.0382928130815046E+01 
    1.3850131808282123E+01 
    1.3786166185977216E+01 
    1.3353424176854418E+01 
    1.9355570235706864E+01 
    1.3691625098833853E+01 
    1.1510391979929999E+01 
    2.1563366302980956E+01 
    1.9472471927551837E+01 
    9.5498100075277268E+00 
    3.8497554213651357E+00 
    1.4096669878614955E+01 
    1.3157325394317414E+01 
    1.2091452032758662E+01 
    1.3096020472015303E+01 
    1.9329306341690828E+01 
    1.3722336698041003E+01 
    1.2543581516030763E+01 
    1.9125939127834044E+01 
    9.4513924146802495E+00 
    1.8520544270964830E+01 
    1.2652521635784026E+01 
    1.1316210397130948E+01 
    1.2207522640249925E+01 
    1.9991786616046969E+01 
    1.3927662810189922E+01 
    1.3937128362483612E+01 
    8.4436879154938325E+00 
    9.1307718856357862E+00 
    1.7552334191242927E+01 
    1.3947930883399490E+01 
    1.4146645320043808E+01 
    2.1266685452371142E+01 
    1.1730794871316075E+01 
    1.3961284507979190E+01 
    9.8057955798127754E+00 
    1.0140164212544782E+01 
    1.9301415974281117E+01 
    1.3543412762495501E+01 
    1.0069238370982088E+01 
    1.4546049065631097E+01 
    1.3854069339793668E+01 
    1.9323244139992010E+01 
    2.1378506470000513E+01 
    1.4708876802338626E+00 
    1.4102838228353450E+01 
    1.4210206220923027E+01 
    1.9444055056908983E+01 
    1.3515690468956901E+01 
    1.3896606476284829E+01 
    2.0702409616989453E+01 
    1.2253856475933564E+01 
    1.0157417833167530E+01 
    1.6585017511035730E+01 
    1.9060553792018254E+01 
    2.0497311472986105E+01 
    2.0852847936554145E+01 
    1.3903759334513122E+01 
    1.4091868834449679E+01 
    1.5447894320541641E+01 
    9.0426479902146149E+00 
    1.9245267696946392E+01 
    1.0947222635466154E+01 
    9.4402264593101375E+00 
    1.7225465239104775E+01 
    1.6188686189001718E+01 
    9.2447048549037163E+00 
    1.9110537633664379E+01 
    2.0480351484874962E+01 
    1.4442030011353168E+01 
    2.1502668857766849E+01 
    1.9157040605413130E+01 
    1.3581949260539988E+01 
    2.0095480798319315E+01 
    1.0153965712380426E+01 
    1.9084840990350990E+01 
    1.4101383068571151E+01 
    1.4054394531572312E+01 
    2.1478672424452238E+01 
    1.3661108406794066E+01 
    1.6846012276446675E+01 
    1.2179252538386262E+01 
    2.0637125609195444E+01 
    1.8933846968207543E+01 
    1.2695941564930092E+01 
    1.9029299243435766E+01 
    1.2733185146460182E+01 
    1.3902785166436736E+01 
    2.0426423371535787E+01 
    1.9552757408389574E+01 
    2.0484015345113082E+01 
    1.9448045185637241E+01 
    1.2997342897074413E+01 
    1.3266228733484104E+01 
    2.0494641670821135E+01 
    1.3430127908306918E+01 
    1.8763100581150727E+01 
    1.3637280500302928E+01 
    5.6807116525428603E+00 
    9.5307261614179755E+00 
    8.8126682196899395E+00 
    2.0431610144585679E+01 
    2.1388781644292500E+01 
    1.9052741430482769E+01 
    1.5886606225320994E+01 
    1.9445138444659680E+01 
    1.9122063306471677E+01 
    1.9949112371827351E+01 
    8.1481218998362799E+00 
    5.2893772749029271E+00 
    1.5597800306117827E+01 
    1.3708689169130524E+01 
    1.9336809376124965E+01 
    1.9333209527931373E+01 
    1.4231843756206398E+01 
    1.9386401257677697E+01 
    1.4084663070040971E+01 
    1.3985617183743102E+01 
    7.3591674193223540E+00 
    5.2646577347033521E+00 
    2.1107773397485079E+01 
    1.0825230339682381E+01 
    1.2617721119259357E+01 
    1.4117703550092445E+01 
    2.3004703723197778E+01 
    1.4221353339409081E+01 
    1.4470801700700747E+01 
    5.9776845036518678E+00 
    1.4221153188725077E+01 
    1.4237240541528587E+01 
    1.9675426289908671E+01 
    1.2216385739797989E+01 
    1.3376913772001044E+01 
    2.1317114274883277E+01 
    1.4113289733880116E+01 
    1.9074638766171869E+01 
    1.9373085966497108E+01 
    1.6941641477580120E+01 
    1.1831916415454808E+01 
    1.9446403605757684E+01 
    1.3865189347310016E+01 
    1.9291947860522086E+01 
    1.8980348129288959E+01 
    2.0457229195373770E+01 
    1.9446728917162506E+01 
    1.7878026668701438E+01 
    1.4098921290987970E+01 
    9.1662840526013625E+00 
    2.2862552939270714E+01 
    1.1171602907061795E+01 
    2.0374658793422697E+01 
    1.4095735783255687E+01 
    1.1806312983993028E+01 
    6.8992105709305109E+00 
    1.4279252517107208E+01 
    1.9428478195724466E+01 
    1.9414439488701134E+01 
    1.3880459894572709E+01 
    1.4088585246698027E+01 
    2.1562912766662237E+01 
    2.0780376140825553E+01 
    1.4244475158073275E+01 
    4.9264663861212936E+00 
    1.7759422949365607E+01 
    2.3143998324616017E+01 
    1.4102988739744102E+01 
    1.6391131696627507E+01 
    1.3515274211457680E+01 
    2.2698079942866745E+01 
    2.0882716797128982E+01 
    2.0571311967154635E+01 
    1.4270430422958114E+01 
    6.4152439535278498E+00 
    1.3463719373954680E+01 
    1.3543769728037498E+01 
    1.3590884049873871E+01 
    5.3702480435084867E+00 