# vtk DataFile Version 2.0
Pressure Field Data 
ASCII 
DATASET UNSTRUCTURED_GRID 

POINTS 2860 double 

    0.0000000000000000E+00     0.0000000000000000E+00     0.0000000000000000E+00 
    1.0000000000000000E+00     0.0000000000000000E+00     0.0000000000000000E+00 
    1.0000000000000000E+00     1.0000000000000000E+00     0.0000000000000000E+00 
    0.0000000000000000E+00     1.0000000000000000E+00     0.0000000000000000E+00 
    2.5000000000000000E-01     2.5000000000000000E-01     0.0000000000000000E+00 
    7.5000000000000000E-01     2.5000000000000000E-01     0.0000000000000000E+00 
    7.5000000000000000E-01     7.5000000000000000E-01     0.0000000000000000E+00 
    2.5000000000000000E-01     7.5000000000000000E-01     0.0000000000000000E+00 
    3.1249999999942091E-02     0.0000000000000000E+00     0.0000000000000000E+00 
    6.2499999999873469E-02     0.0000000000000000E+00     0.0000000000000000E+00 
    9.3749999999826514E-02     0.0000000000000000E+00     0.0000000000000000E+00 
    1.2499999999977961E-01     0.0000000000000000E+00     0.0000000000000000E+00 
    1.5624999999968961E-01     0.0000000000000000E+00     0.0000000000000000E+00 
    1.8749999999959971E-01     0.0000000000000000E+00     0.0000000000000000E+00 
    2.1874999999950970E-01     0.0000000000000000E+00     0.0000000000000000E+00 
    2.4999999999941969E-01     0.0000000000000000E+00     0.0000000000000000E+00 
    2.8124999999932920E-01     0.0000000000000000E+00     0.0000000000000000E+00 
    3.1249999999923850E-01     0.0000000000000000E+00     0.0000000000000000E+00 
    3.4374999999914790E-01     0.0000000000000000E+00     0.0000000000000000E+00 
    3.7499999999905720E-01     0.0000000000000000E+00     0.0000000000000000E+00 
    4.0624999999896660E-01     0.0000000000000000E+00     0.0000000000000000E+00 
    4.3749999999887590E-01     0.0000000000000000E+00     0.0000000000000000E+00 
    4.6874999999878530E-01     0.0000000000000000E+00     0.0000000000000000E+00 
    4.9999999999869471E-01     0.0000000000000000E+00     0.0000000000000000E+00 
    5.3124999999877620E-01     0.0000000000000000E+00     0.0000000000000000E+00 
    5.6249999999885780E-01     0.0000000000000000E+00     0.0000000000000000E+00 
    5.9374999999893940E-01     0.0000000000000000E+00     0.0000000000000000E+00 
    6.2499999999902101E-01     0.0000000000000000E+00     0.0000000000000000E+00 
    6.5624999999910261E-01     0.0000000000000000E+00     0.0000000000000000E+00 
    6.8749999999918421E-01     0.0000000000000000E+00     0.0000000000000000E+00 
    7.1874999999926570E-01     0.0000000000000000E+00     0.0000000000000000E+00 
    7.4999999999934730E-01     0.0000000000000000E+00     0.0000000000000000E+00 
    7.8124999999942890E-01     0.0000000000000000E+00     0.0000000000000000E+00 
    8.1249999999951039E-01     0.0000000000000000E+00     0.0000000000000000E+00 
    8.4374999999959199E-01     0.0000000000000000E+00     0.0000000000000000E+00 
    8.7499999999967359E-01     0.0000000000000000E+00     0.0000000000000000E+00 
    9.0624999999975520E-01     0.0000000000000000E+00     0.0000000000000000E+00 
    9.3749999999983680E-01     0.0000000000000000E+00     0.0000000000000000E+00 
    9.6874999999991840E-01     0.0000000000000000E+00     0.0000000000000000E+00 
    1.0000000000000000E+00     3.1249999999942091E-02     0.0000000000000000E+00 
    1.0000000000000000E+00     6.2499999999873469E-02     0.0000000000000000E+00 
    1.0000000000000000E+00     9.3749999999826514E-02     0.0000000000000000E+00 
    1.0000000000000000E+00     1.2499999999977961E-01     0.0000000000000000E+00 
    1.0000000000000000E+00     1.5624999999968961E-01     0.0000000000000000E+00 
    1.0000000000000000E+00     1.8749999999959971E-01     0.0000000000000000E+00 
    1.0000000000000000E+00     2.1874999999950970E-01     0.0000000000000000E+00 
    1.0000000000000000E+00     2.4999999999941969E-01     0.0000000000000000E+00 
    1.0000000000000000E+00     2.8124999999932920E-01     0.0000000000000000E+00 
    1.0000000000000000E+00     3.1249999999923850E-01     0.0000000000000000E+00 
    1.0000000000000000E+00     3.4374999999914790E-01     0.0000000000000000E+00 
    1.0000000000000000E+00     3.7499999999905720E-01     0.0000000000000000E+00 
    1.0000000000000000E+00     4.0624999999896660E-01     0.0000000000000000E+00 
    1.0000000000000000E+00     4.3749999999887590E-01     0.0000000000000000E+00 
    1.0000000000000000E+00     4.6874999999878530E-01     0.0000000000000000E+00 
    1.0000000000000000E+00     4.9999999999869471E-01     0.0000000000000000E+00 
    1.0000000000000000E+00     5.3124999999877620E-01     0.0000000000000000E+00 
    1.0000000000000000E+00     5.6249999999885780E-01     0.0000000000000000E+00 
    1.0000000000000000E+00     5.9374999999893940E-01     0.0000000000000000E+00 
    1.0000000000000000E+00     6.2499999999902101E-01     0.0000000000000000E+00 
    1.0000000000000000E+00     6.5624999999910261E-01     0.0000000000000000E+00 
    1.0000000000000000E+00     6.8749999999918421E-01     0.0000000000000000E+00 
    1.0000000000000000E+00     7.1874999999926570E-01     0.0000000000000000E+00 
    1.0000000000000000E+00     7.4999999999934730E-01     0.0000000000000000E+00 
    1.0000000000000000E+00     7.8124999999942890E-01     0.0000000000000000E+00 
    1.0000000000000000E+00     8.1249999999951039E-01     0.0000000000000000E+00 
    1.0000000000000000E+00     8.4374999999959199E-01     0.0000000000000000E+00 
    1.0000000000000000E+00     8.7499999999967359E-01     0.0000000000000000E+00 
    1.0000000000000000E+00     9.0624999999975520E-01     0.0000000000000000E+00 
    1.0000000000000000E+00     9.3749999999983680E-01     0.0000000000000000E+00 
    1.0000000000000000E+00     9.6874999999991840E-01     0.0000000000000000E+00 
    9.6875000000003686E-01     1.0000000000000000E+00     0.0000000000000000E+00 
    9.3750000000011691E-01     1.0000000000000000E+00     0.0000000000000000E+00 
    9.0625000000015765E-01     1.0000000000000000E+00     0.0000000000000000E+00 
    8.7500000000017863E-01     1.0000000000000000E+00     0.0000000000000000E+00 
    8.4375000000028044E-01     1.0000000000000000E+00     0.0000000000000000E+00 
    8.1250000000040856E-01     1.0000000000000000E+00     0.0000000000000000E+00 
    7.8125000000054956E-01     1.0000000000000000E+00     0.0000000000000000E+00 
    7.5000000000066480E-01     1.0000000000000000E+00     0.0000000000000000E+00 
    7.1875000000086831E-01     1.0000000000000000E+00     0.0000000000000000E+00 
    6.8750000000102829E-01     1.0000000000000000E+00     0.0000000000000000E+00 
    6.5625000000114431E-01     1.0000000000000000E+00     0.0000000000000000E+00 
    6.2500000000129829E-01     1.0000000000000000E+00     0.0000000000000000E+00 
    5.9375000000147926E-01     1.0000000000000000E+00     0.0000000000000000E+00 
    5.6250000000168354E-01     1.0000000000000000E+00     0.0000000000000000E+00 
    5.3125000000188671E-01     1.0000000000000000E+00     0.0000000000000000E+00 
    5.0000000000205835E-01     1.0000000000000000E+00     0.0000000000000000E+00 
    4.6875000000192979E-01     1.0000000000000000E+00     0.0000000000000000E+00 
    4.3750000000180111E-01     1.0000000000000000E+00     0.0000000000000000E+00 
    4.0625000000167238E-01     1.0000000000000000E+00     0.0000000000000000E+00 
    3.7500000000154382E-01     1.0000000000000000E+00     0.0000000000000000E+00 
    3.4375000000141509E-01     1.0000000000000000E+00     0.0000000000000000E+00 
    3.1250000000128642E-01     1.0000000000000000E+00     0.0000000000000000E+00 
    2.8125000000115769E-01     1.0000000000000000E+00     0.0000000000000000E+00 
    2.5000000000102918E-01     1.0000000000000000E+00     0.0000000000000000E+00 
    2.1875000000090050E-01     1.0000000000000000E+00     0.0000000000000000E+00 
    1.8750000000077180E-01     1.0000000000000000E+00     0.0000000000000000E+00 
    1.5625000000064329E-01     1.0000000000000000E+00     0.0000000000000000E+00 
    1.2500000000051459E-01     1.0000000000000000E+00     0.0000000000000000E+00 
    9.3750000000385914E-02     1.0000000000000000E+00     0.0000000000000000E+00 
    6.2500000000257239E-02     1.0000000000000000E+00     0.0000000000000000E+00 
    3.1250000000128557E-02     1.0000000000000000E+00     0.0000000000000000E+00 
    0.0000000000000000E+00     9.6875000000003686E-01     0.0000000000000000E+00 
    0.0000000000000000E+00     9.3750000000011691E-01     0.0000000000000000E+00 
    0.0000000000000000E+00     9.0625000000015765E-01     0.0000000000000000E+00 
    0.0000000000000000E+00     8.7500000000017863E-01     0.0000000000000000E+00 
    0.0000000000000000E+00     8.4375000000028044E-01     0.0000000000000000E+00 
    0.0000000000000000E+00     8.1250000000040856E-01     0.0000000000000000E+00 
    0.0000000000000000E+00     7.8125000000054956E-01     0.0000000000000000E+00 
    0.0000000000000000E+00     7.5000000000066480E-01     0.0000000000000000E+00 
    0.0000000000000000E+00     7.1875000000086831E-01     0.0000000000000000E+00 
    0.0000000000000000E+00     6.8750000000102829E-01     0.0000000000000000E+00 
    0.0000000000000000E+00     6.5625000000114431E-01     0.0000000000000000E+00 
    0.0000000000000000E+00     6.2500000000129829E-01     0.0000000000000000E+00 
    0.0000000000000000E+00     5.9375000000147926E-01     0.0000000000000000E+00 
    0.0000000000000000E+00     5.6250000000168354E-01     0.0000000000000000E+00 
    0.0000000000000000E+00     5.3125000000188671E-01     0.0000000000000000E+00 
    0.0000000000000000E+00     5.0000000000205835E-01     0.0000000000000000E+00 
    0.0000000000000000E+00     4.6875000000192979E-01     0.0000000000000000E+00 
    0.0000000000000000E+00     4.3750000000180111E-01     0.0000000000000000E+00 
    0.0000000000000000E+00     4.0625000000167238E-01     0.0000000000000000E+00 
[...]
CELL_DATA 2795 
SCALARS Pressure double 1 
LOOKUP_TABLE default 

    6.2282379035706104E+00 
    1.4261136114479434E+01 
    1.0045457839564746E+01 
    9.6533373578084696E+00 
    7.6635309618087959E+00 
    1.4130416817499723E+01 
    1.4852329967266686E+01 
    5.5620877279573069E+00 
    1.0609877275681711E+01 
    8.1204078264663977E+00 
    6.9270038139880432E+00 
    1.3875373147204769E+01 
    1.4169768925945947E+01 
    1.4099644691163597E+01 
    9.2744245053960572E+00 
    5.4698400980415496E+00 
    8.8741718261112581E+00 
    7.3765255868146546E+00 
    1.3514660233124493E+01 
    1.0034076582922308E+01 
    9.9291311479592963E+00 
    1.4035069174005995E+01 
    9.3866500552347780E+00 
    3.6588748170279495E-01 
    1.3875735831649367E+01 
    1.4139613131316516E+01 
    1.4883302902764353E+01 
    6.6592753061675456E+00 
    1.3796318139373934E+01 
    1.4878329673820787E+01 
    1.0093015550135004E+01 
    1.0251132930677969E+01 
    7.1976232374903777E+00 
    1.0008048505732466E+01 
    3.2268765742357002E+00 
    8.8797165939974434E+00 
    9.9969084882683710E+00 
    1.4917858247226993E+01 
    1.4829508608143463E+01 
    1.3888123524012595E+01 
    7.6037169401797744E+00 
    1.3848293281727086E+01 
    7.6144215749318567E-01 
    9.9006907662055958E+00 
    1.4649035898866497E+01 
    1.4477357785545712E+01 
    1.3864752348238831E+01 
    1.0966025803860573E+01 
    1.3936019617157305E+01 
    9.0800372808503376E+00 
    8.6472553900919671E+00 
    1.0216262050890201E+01 
    9.7900160169452644E+00 
    8.9257424745020941E+00 
    1.0161311138224441E+01 
    1.3305876679606424E+01 
    1.1958127519057262E+01 
    7.7051636096103966E+00 
    1.4039077481794335E+01 
    1.3962368681713739E+01 
    9.6418691799712093E+00 
    9.6630083518963712E+00 
    9.5557930198595642E+00 
    1.4781258225987106E+01 
    1.5036470685950777E+01 
    8.8843489611836901E+00 
    1.0215584787312231E+01 
    1.3767463644501579E+01 
    1.1771915742043413E+01 
    9.7080319289898398E+00 
    1.5041194171509041E+01 
    1.3984346702360014E+01 
    8.7586818036471090E+00 
    1.4577951057364404E+01 
    1.0391745034044096E+01 
    1.3725488679170152E+01 
    1.4928661671410849E+01 
    1.0433583081810692E+01 
    6.3800331589814059E+00 
    1.0234392387915275E+01 
    1.4838448845440229E+01 
    1.5071686627665114E+01 
    8.8966190193621468E+00 
    1.0151534226988773E+01 
    1.5115431228994867E+01 
    9.9992076611745890E+00 
    9.4725432729500145E+00 
    1.2189730576722306E+01 
    6.0744102441267831E+00 
    8.6701709313244830E+00 
    1.0150868702538041E+01 
    1.0766514700860098E+01 
    1.6577417174155215E+01 
    7.4465369783973250E+00 
    1.0223879585468634E+01 
    1.3842763853710981E+01 
    1.4121677085103483E+01 
    6.5544057994586007E+00 
    9.8702528537790553E+00 
    1.0181254072296765E+01 
    1.4141819004692843E+01 
    1.0181114131675889E+01 
    1.4074358683673870E+01 
    3.9854970700604593E+00 
    6.7351629705387692E+00 
    1.0460668093401196E+01 
    1.4269283398427667E+01 
    8.8441836528299280E+00 
    9.4224783413547737E+00 
    1.0164817307238311E+01 
    9.4388393451819841E+00 
    1.1542885695775540E+01 
    9.1639875522247056E+00 
    8.7673303211594629E+00 
    6.9208137819447630E+00 
    1.1942694831906872E+01 
    1.0252479569135840E+01 
    1.4693809016507238E+01 
    8.8098537584429284E+00 
    9.6348584567716475E+00 
    1.3972743284778767E+01 
    8.0280967212880743E+00 
    1.4418796470819107E+01 
    1.0075474522544825E+01 
    9.5643653358969587E+00 
    1.4123623153865095E+01 
    1.0246742359122386E+01 
    1.4938794957120139E+01 
    1.2202326922458955E+01 
    1.3153507265687571E+01 
    1.4899964057586958E+01 
    7.4616748905311878E+00 
    1.0485902890218174E+01 
    1.4124233165806828E+01 
    2.9872507355412972E+00 
    1.0140109236060239E+01 
    1.4866543989536341E+01 
    9.5932927292410586E+00 
    1.1092971749758785E+01 
    6.5236295687285137E+00 
    1.3840877397953074E+01 
    1.7068915463002178E+01 
    1.2672518831975539E+01 
    9.5923083619684579E+00 
    8.5699623390835011E+00 
    1.0801150918082744E+01 
    1.0092331002024002E+01 
    7.0000940785653123E+00 
    1.4896093027986042E+01 
    1.4201587517463748E+01 
    1.3844433126880167E+01 
    1.0766434729651483E+01 
    8.7299267440176340E+00 
    9.9274400081025611E+00 
    1.4605482688207129E+01 
    8.9830206594379316E+00 
    1.0063863824181441E+01 
    9.1483183576423368E+00 
    1.1683411624109299E+01 
    1.7057064724033360E+01 
    1.3836087108066899E+01 
    8.6930694930963686E+00 
    1.4314313792178767E+01 
    1.4228890440567072E+01 
    1.4308271301437015E+01 
    1.5314024993084367E+01 
    1.5855391429603678E+01 
    1.4475132484575004E+01 
    1.0207296011479764E+01 
    1.0959388867676870E+01 
    1.4301864100898916E+01 
    1.4705330235775662E+01 
    7.3068102077224548E+00 
    1.3864429050893385E+01 
    1.4567546132754494E+01 
    7.1147386121654872E+00 
    1.5228398492467463E+01 
    1.5213614832755727E+01 
    1.3584118430916394E+01 
    1.0554738354589796E+01 
    2.6288641729887932E+00 
    1.4867553871263722E+01 
    1.0394283412115406E+01 
    1.4989225700283486E+01 
    9.5235177090318146E+00 
    1.4704425175383257E+01 
    9.3462971497836711E-01 
    1.3171165213008655E+01 
    9.7074885025065853E+00 
    8.6887307118229558E+00 
    8.4658449476938227E+00 
    1.0045282622467134E+01 
    1.1195241072027734E+01 
    1.0463068618557466E+01 
    7.0308311542961794E+00 
    1.4700248486553145E+01 
    1.4148120717083808E+01 
    1.1898507386797366E+01 
    1.0455212178449525E+01 
    1.5259957876255350E+00 
    7.8078227164552771E+00 
    5.4114212359128873E+00 
    1.4889153608731604E+01 
    1.1316811112773655E+01 
    1.4197581884627093E+01 
    1.4214061085986492E+01 
    9.0602668709441190E+00 
    1.1908364575247768E+01 
    1.3840048794298248E+01 
    1.5196290572879258E+01 
    6.4904890523004264E+00 
    1.2504845199841586E+01 
    1.0489484864618952E+01 
    5.7748407803311270E+00 
    9.0537382817728211E+00 
    1.2476994656222317E+01 
    1.4176098075947619E+01 
    1.0099220737300989E+01 
    1.4286072337503521E+01 
    1.4052566525798920E+01 
    1.4001834796645058E+01 
    9.9335530903366163E+00 
    8.6258628322293305E+00 
    1.3852300975571673E+01 
    8.7536896535120956E+00 
    1.0186045716703935E+01 
    8.5792826724280786E+00 
    1.0009043032153315E+01 
    1.4223072930350684E+01 
    6.3340091829184839E+00 
    8.9619187597965908E+00 
    1.4803081515700214E+01 
    9.9456720121623903E+00 
    1.1210115534907544E+01 
    6.4988261271019958E+00 
    8.8170738369903638E+00 
    1.4030720782078163E+01 
    1.4341656943219949E+01 
    5.2987140405581670E+00 
    9.9512030707474075E+00 
    8.6217653372569867E+00 
    1.5620547209598483E+01 
    1.5079862991492716E+01 
    1.5882495120376364E+01 
    9.9713240360873474E+00 
    1.4196441415531901E+01 
    1.3797099269505532E+01 
    9.8436794751648442E+00 
    1.3844833155277316E+01 
    1.0455361265267737E+01 
    5.8552338737143526E+00 
    1.0211719089798807E+01 
    1.4789471099335206E+01 
    1.3841657847971552E+01 
    6.8907295705655391E+00 
    1.3871373868638115E+01 
    1.1205144183637861E+01 
    1.0120521145313960E+01 
    9.6683899524817214E+00 
    1.3708561162255940E+01 
    1.0646623585014275E+01 
    1.3857669746648149E+01 
    9.8360367699652702E+00 
    6.0693541109751727E+00 
    1.0256160486053416E+01 
    8.4754002181386081E+00 
    1.2675247606483079E+01 
    1.4986978369621434E+01 
    1.3850581752115090E+01 
    1.4860167932962737E+01 
    9.8938874179281164E+00 
    6.7106876188898505E+00 
    6.8060742643879442E+00 
    1.0304156161003718E+01 
    1.0162155938386453E+01 
    1.4541243122247747E+00 
    1.3355326562865057E+01 
    1.5344229477429355E+01 
    9.5373649628359107E+00 
    6.0959152372001615E+00 
    1.1638843552967014E+01 
    1.3869979009554205E+01 
    7.2180151896513394E+00 
    4.9000235234309679E+00 
    1.0139477811499910E+01 
    1.3952986668401831E+01 
    1.4604644851347317E+01 
    1.4494508322056021E+01 
    1.4345255844957546E+01 
    7.0581858669152719E+00 
    1.0114624856053476E+01 
    1.3391004799303845E+01 
    7.9715866595975431E+00 
    1.4156837787830840E+01 
    1.2153179692083281E+01 
    6.9096861258753082E+00 
    1.3979052702725085E+01 
    1.4887588350894095E+01 
    1.3995653556079326E+01 
    6.9489132691469608E+00 
    1.0211809950618736E+01 
    7.6378999791391786E+00 
    9.6405701760587430E+00 
    1.3861344068778569E+01 
    1.3849452761529761E+01 
    6.9894861877501295E+00 
    1.4743807361517268E+01 
    1.0768611659042568E+01 
    1.3882573021497787E+01 
    1.4712260718980676E+01 
    1.3869368988554244E+01 
    1.2919285153348195E+01 
    1.5675194145670982E+01 
    9.4921177231532976E+00 
    1.4829475693658145E+01 
    1.3911115990348549E+01 
    1.4902217892091938E+01 
    1.4736831744759678E+01 
    9.5927701380697528E+00 
    1.0037241667731264E+01 
    9.5278383475804915E+00 
    1.2421640276931937E+01 
    3.9983886375548678E+00 
    1.0240592014999113E+01 
    1.5801296247052095E+01 
    1.0455804713413613E+01 
    1.0644467920843990E+01 
    1.4875264681469078E+01 
    1.5106621381330253E+01 
    9.4217471783976379E+00 
    1.3875762708923299E+01 
    1.3845544125489894E+01 
    1.0632041660226086E+01 
    1.4691757528960455E+01 
    7.2582130737979238E+00 
    4.6149476894388757E+00 
    1.0913925270937836E+01 
    1.0471531719843448E+01 
    1.3851729554543471E+01 
    6.5353429540608161E+00 
    1.4409307998753194E+01 
    4.6978641486595913E+00 
    1.0400433878945741E+01 
    9.6260839194779173E+00 
    1.0188468583521514E+01 
    1.7108519470330926E+01 
    3.8841530077186550E+00 
    1.0157588411964570E+01 
    1.2145140074776478E+01 
    9.7960396747116238E+00 
    7.7235874418557922E+00 
    1.4522484826082067E+01 
    1.6665280096340219E+01 
    1.4672781967567113E+01 
    1.0097549268749432E+01 
    5.7406587732528616E+00 
    1.6517643076412696E+01 
    1.4137301938079494E+01 
    7.4055849813013062E+00 
    9.7409277823095266E+00 
    1.5297556998457848E+01 
    3.3038556342311405E+00 
    1.0521307804650354E+01 
    1.4641068461861337E+01 
    1.0201767434494661E+01 
    8.8934725641789516E+00 
    1.0197520413077223E+01 
    1.3615175491753092E+01 
    1.0183061114600264E+01 
    5.1088289688213129E+00 
    9.0674245006610543E-01 
    7.6070529431053115E+00 
    1.5516769796902572E+01 
    9.5273294940879705E+00 
    1.1525429533089138E+01 
    1.0957267410015790E+01 
    1.2748479479503418E+01 
    1.0215149822398118E+01 
    1.4045917010837458E+01 
    1.7122868617023460E+01 
    1.2096371511515731E+01 
    1.4802020465488949E+01 
    5.4372273748933575E-01 
    1.3851500641525302E+01 
    5.6636335204800785E+00 
    1.5970674827629926E+01 
    1.0171275051296950E+01 
    9.0421703470480939E+00 
    7.7907306934155907E+00 
    5.3608133768068642E+00 
    1.1418234780934261E+01 
    8.0575357715471068E+00 
    1.2568510853945213E+01 
    2.2027813619575070E+00 
    1.1239687227079683E+01 
    1.3784072420487469E+01 
    6.1786659260983852E+00 
    1.4345452133065287E+01 
    1.5771403068706690E+01 
    1.4185280143905153E+01 
    1.0035976585729113E+01 
    1.0183217776766677E+01 
    1.0163964820631071E+01 
    5.8096523963705211E+00 
    9.2588453742475583E+00 
    9.1011678890190790E+00 
    1.0152941113554473E+01 
    9.4576632525715993E+00 
    6.8791816139597783E-01 
    6.5127247376710633E+00 
    9.8581921503268983E+00 
    1.0127769088248375E+01 
    1.2916772491070825E+01 
    2.1734612180899355E+00 
    1.0591659465420390E+01 
    1.0475739657025432E+01 
    3.7366685015430181E+00 
    1.4044712407415416E+01 
    8.7737236397440181E+00 
    1.0324141688633354E+01 
    1.4133629730726968E+01 
    5.3817942151614986E+00 
    1.4169732989575703E+01 
    8.8900940746949733E+00 
    9.9642397904153068E-01 
    9.5900364585569324E+00 
    1.4755598788487463E+01 
    1.3851314199026284E+01 
    1.3869685065397961E+01 
    1.0509978939166436E+01 
    1.0404654011895589E+01 
    8.7521742790900117E+00 
    7.0721008641804612E+00 
    1.4243586882492615E+01 
    9.7381222380280192E+00 
    6.8862297746932422E+00 
    1.3865446326687486E+01 
    1.4563459255089182E+01 
    1.0330337262787264E+01 
    9.9918408796469453E+00 
    1.7001584068149146E+01 
    1.0632908321636821E+01 
    1.4261911537499120E+01 
    8.3121662445400819E+00 
    1.7151511867985583E+01 
    6.7664346915428952E+00 
    9.1662273218061756E+00 
    7.5824129020412228E+00 
    1.0863328797229261E+01 
    8.6810613268884360E+00 
    1.7134949963679368E+01 
    1.0680840479924949E+01 
    1.3550594310192583E+01 
    6.9597077573719774E+00 
    1.0211389441110004E+01 
    1.4103465780092170E+01 
    8.7158525903902007E+00 
    7.3434777562676716E+00 
    1.1292317876459725E+01 
    1.4330185242670478E+01 
    7.4636360778466315E+00 
    9.6467867799713591E+00 
    1.0021347292089638E+01 
    1.3826739470271576E+01 
    9.8223629947028179E+00 
    1.4306229788947432E+01 
    1.4931217694986721E+01 
    8.7800798761672922E+00 
    8.6016283190076344E+00 
    8.0897066379451044E+00 
    1.3969390328632683E+01 
    1.0478399530973135E+01 
    1.6704567869783148E+01 
    1.3111481183989119E+01 
    1.4062338206804299E+01 
    1.6390928044955967E+01 
    1.5778371347976845E+01 
    1.0259058774042307E+01 
    1.0137733056931921E+01 
    1.3615989330244915E+01 
    1.3889631109262261E+01 
    1.4417228266330838E+01 
    1.4157800412076718E+01 
    1.7022612713465193E+01 
    1.0632446163422607E+01 
    8.8819103242154345E+00 
    1.0628497921544822E+01 
    1.4844220852342024E+01 
    1.0366797659180421E+01 
    6.0316805176716866E+00 
    1.0019807648930470E+01 
    1.5265190774241153E+01 
    1.0511926202917383E+01 
    8.8928961601630512E+00 
    9.9628893140596446E+00 
    1.5375983633354569E+01 
    1.3905375906993434E+01 
    8.4382690028807801E+00 
    1.5512663579615579E+01 
    1.0289893920705548E+01 
    1.4410614972416019E+01 
    1.5388851248831129E+01 
    1.0801925252518156E+01 
    5.3869636622533479E+00 
    1.1247469606723671E+01 
    5.5757377437804099E+00 
    1.0423675617269934E+01 
    1.0203558048507857E+01 
    1.1848211541906615E+01 
    5.8963770882519144E+00 
    1.2577392448657502E+01 
    1.0223558284649377E+01 
    1.4147951777517401E+01 
    1.0796744036532210E+01 
    8.2516113767632788E+00 
    9.8382810283770823E+00 
    1.0672476780848314E+01 
    1.0736737146782676E+01 
    1.4978357164896375E+01 
    8.4801692783978044E+00 
    8.3331880493890296E+00 
    6.2040904049751786E+00 
    1.4443910448989140E+01 
    9.8791470077761137E+00 
    1.3696608623035035E+01 
    1.0174191539122177E+01 
    6.7906501827742245E+00 
    1.3934046962140993E+01 
    1.0149745761690419E+01 
    7.4081119425400823E+00 
    7.8515392695034816E+00 
    8.1323996435859875E+00 
    1.4178370164969197E+01 
    1.0154935629638585E+01 
    1.4813670155939088E+01 
    1.0108688484573207E+01 
    1.0047200542940026E+01 
    9.5648929763787010E+00 
    1.4017361706121761E+01 
    9.9648253086425864E+00 
    8.1740276398985294E+00 
    1.5766529986043844E+01 
    1.4098196154315474E+01 
    7.0899291107938787E+00 
    2.7426341422559557E+00 
    1.0144406656860426E+01 
    9.5647913714765824E+00 
    8.5937457082635405E+00 
    9.3670723169973957E+00 
    1.4056738986263635E+01 
    9.8513326993261963E+00 
    8.9376688710080696E+00 
    1.3911558364319822E+01 
    7.0267344365172884E+00 
    1.3575780178841855E+01 
    9.2383790384790885E+00 
    8.1188790712966608E+00 
    8.6781049756722695E+00 
    1.4495853054501771E+01 
    1.0191400289527175E+01 
    1.0199440776860303E+01 
    5.9780841343758349E+00 
    6.4667672237576284E+00 
    1.2911260051743103E+01 
    1.0209191624082409E+01 
    1.0184410400112958E+01 
    1.5498499844326920E+01 
    8.3354468652612059E+00 
    1.0221495727093229E+01 
    7.2678258074106807E+00 
    7.4971879172408329E+00 
    1.4011214260420388E+01 
    9.8527099383129304E+00 
    7.1364862231904800E+00 
    1.0776364669231809E+01 
    1.0095660990125713E+01 
    1.4013880499457596E+01 
    1.5591704978719575E+01 
    1.0491893590438670E+00 
    1.0149314681523537E+01 
    1.0469486392755302E+01 
    1.4078124510393215E+01 
    9.6634451605719658E+00 
    1.0165319860817140E+01 
    1.5031851529545305E+01 
    8.7144917973868559E+00 
    7.2010516607017880E+00 
    1.2340874915201017E+01 
    1.3865130353026030E+01 
    1.4900604129909077E+01 
    1.5171851652970000E+01 
    9.9912846349800937E+00 
    1.0140808875711881E+01 
    1.1486002745348747E+01 
    6.7355252438870572E+00 
    1.3994354089453632E+01 
    7.7637512310275634E+00 
    7.0157933964574886E+00 
    1.2807948715507356E+01 
    1.2052295490314469E+01 
    6.8798730786721247E+00 
    1.3901096486599355E+01 
    1.4886633771717642E+01 
    1.0648209864411804E+01 
    1.5693978127479385E+01 
    1.3934504604456531E+01 
    9.7270235754100280E+00 
    1.4623957147253329E+01 
    7.5011277014963724E+00 
    1.3884012504529233E+01 
    1.0148242097640797E+01 
    1.0109819920389777E+01 
    1.5669357755374349E+01 
    9.9132638238705653E+00 
    1.2528688568006926E+01 
    8.6624123604066519E+00 
    1.5005364399087277E+01 
    1.3790207330487528E+01 
    9.0417316898694757E+00 
    1.3840583393909979E+01 
    9.2590200904341842E+00 
    1.0174416678597353E+01 
    1.4846004881946612E+01 
    1.4152795961599788E+01 
    1.4889804155422427E+01 
    1.4081341279712133E+01 
    9.2641820256749181E+00 
    9.4823826351129004E+00 
    1.4896851335566486E+01 
    9.6087574585396460E+00 
    1.3721277540902600E+01 
    9.9023238833828380E+00 
    4.0294368739335225E+00 
    7.0894695786297293E+00 
    6.5649038670957589E+00 
    1.4849621110131356E+01 
    1.5598193921128905E+01 
    1.3858720032055269E+01 
    1.1776914029118705E+01 
    1.4149336347943500E+01 
    1.3909097376002730E+01 
    1.4497702943855039E+01 
    5.7740001957729445E+00 
    3.7564193142071862E+00 
    1.1568731242947521E+01 
    9.8239940307343900E+00 
    1.4058243841151187E+01 
    1.4055709882335176E+01 
    1.0493616898710956E+01 
    1.4093179945819912E+01 
    1.0135133807781186E+01 
    1.0065176791413071E+01 
    5.2112826244968442E+00 
    3.7428167756143957E+00 
    1.5372413414956318E+01 
    7.9635076015072706E+00 
    8.9828065977268832E+00 
    1.0377597566177910E+01 
    1.7003432868941829E+01 
    1.0479172705894008E+01 
    1.0482013132765349E+01 
    4.2591687710150872E+00 
    1.0480744050429317E+01 
    1.0495338961094905E+01 
    1.4378899164777534E+01 
    8.6841385693806377E+00 
    9.7540064222758218E+00 
    1.5541758337137535E+01 
    1.0157633401916064E+01 
    1.3874608925019130E+01 
    1.4135048416839830E+01 
    1.2558277430200393E+01 
    8.6527548782100041E+00 
    1.4080878279774794E+01 
    9.9544036626344923E+00 
    1.4064241395051482E+01 
    1.3813022794326692E+01 
    1.4868880533923502E+01 
    1.4079341758516087E+01 
    1.3213940000009160E+01 
    1.0146322898582914E+01 
    6.8274525541722344E+00 
    1.6875485791078532E+01 
    7.9228887504751668E+00 
    1.4798745887379917E+01 
    1.0143751768725700E+01 
    8.3800352309144319E+00 
    5.0226869156150649E+00 
    1.0532655846520397E+01 
    1.4067701769769911E+01 
    1.4064031943612022E+01 
    1.0155304526448742E+01 
    1.0137968273495026E+01 
    1.5750004034562194E+01 
    1.5114591705705831E+01 
    1.0497706052954703E+01 
    3.4952763990024032E+00 
    1.3163818744019503E+01 
    1.7132421332476657E+01 
    1.0149611008867145E+01 
    1.2159393361355148E+01 
    9.6617872389683104E+00 
    1.6731034758814257E+01 
    1.5194495147287062E+01 
    1.4929236095385821E+01 
    1.0519317956977716E+01 
    4.6858761943840461E+00 
    9.6187849817699860E+00 
    9.6867725660339250E+00 
    9.7276909353265708E+00 
    3.8058903575274705E+00 