# vtk DataFile Version 2.0
Pressure Field Data 
ASCII 
DATASET UNSTRUCTURED_GRID 

POINTS 2860 double 

    0.0000000000000000E+00     0.0000000000000000E+00     0.0000000000000000E+00 
    1.0000000000000000E+00     0.0000000000000000E+00     0.0000000000000000E+00 
    1.0000000000000000E+00     1.0000000000000000E+00     0.0000000000000000E+00 
    0.0000000000000000E+00     1.0000000000000000E+00     0.0000000000000000E+00 
    2.5000000000000000E-01     2.5000000000000000E-01     0.0000000000000000E+00 
    7.5000000000000000E-01     2.5000000000000000E-01     0.0000000000000000E+00 
    7.5000000000000000E-01     7.5000000000000000E-01     0.0000000000000000E+00 
    2.5000000000000000E-01     7.5000000000000000E-01     0.0000000000000000E+00 
    3.1249999999942091E-02     0.0000000000000000E+00     0.0000000000000000E+00 
    6.2499999999873469E-02     0.0000000000000000E+00     0.0000000000000000E+00 
    9.3749999999826514E-02     0.0000000000000000E+00     0.0000000000000000E+00 
    1.2499999999977961E-01     0.0000000000000000E+00     0.0000000000000000E+00 
    1.5624999999968961E-01     0.0000000000000000E+00     0.0000000000000000E+00 
    1.8749999999959971E-01     0.0000000000000000E+00     0.0000000000000000E+00 
    2.1874999999950970E-01     0.0000000000000000E+00     0.0000000000000000E+00 
    2.4999999999941969E-01     0.0000000000000000E+00     0.0000000000000000E+00 
    2.8124999999932920E-01     0.0000000000000000E+00     0.0000000000000000E+00 
    3.1249999999923850E-01     0.0000000000000000E+00     0.0000000000000000E+00 
    3.4374999999914790E-01     0.0000000000000000E+00     0.0000000000000000E+00 
    3.7499999999905720E-01     0.0000000000000000E+00     0.0000000000000000E+00 
    4.0624999999896660E-01     0.0000000000000000E+00     0.0000000000000000E+00 
    4.3749999999887590E-01     0.0000000000000000E+00     0.0000000000000000E+00 
    4.6874999999878530E-01     0.0000000000000000E+00     0.0000000000000000E+00 
    4.9999999999869471E-01     0.0000000000000000E+00     0.0000000000000000E+00 
    5.3124999999877620E-01     0.0000000000000000E+00     0.0000000000000000E+00 
    5.6249999999885780E-01     0.0000000000000000E+00     0.0000000000000000E+00 
    5.9374999999893940E-01     0.0000000000000000E+00     0.0000000000000000E+00 
    6.2499999999902101E-01     0.0000000000000000E+00     0.0000000000000000E+00 
    6.5624999999910261E-01     0.0000000000000000E+00     0.0000000000000000E+00 
    6.8749999999918421E-01     0.0000000000000000E+00     0.0000000000000000E+00 
    7.1874999999926570E-01     0.0000000000000000E+00     0.0000000000000000E+00 
    7.4999999999934730E-01     0.0000000000000000E+00     0.0000000000000000E+00 
    7.8124999999942890E-01     0.0000000000000000E+00     0.0000000000000000E+00 
    8.1249999999951039E-01     0.0000000000000000E+00     0.0000000000000000E+00 
    8.4374999999959199E-01     0.0000000000000000E+00     0.0000000000000000E+00 
    8.7499999999967359E-01     0.0000000000000000E+00     0.0000000000000000E+00 
    9.0624999999975520E-01     0.0000000000000000E+00     0.0000000000000000E+00 
    9.3749999999983680E-01     0.0000000000000000E+00     0.0000000000000000E+00 
    9.6874999999991840E-01     0.0000000000000000E+00     0.0000000000000000E+00 
    1.0000000000000000E+00     3.1249999999942091E-02     0.0000000000000000E+00 
    1.0000000000000000E+00     6.2499999999873469E-02     0.0000000000000000E+00 
    1.0000000000000000E+00     9.3749999999826514E-02     0.0000000000000000E+00 
    1.0000000000000000E+00     1.2499999999977961E-01     0.0000000000000000E+00 
    1.0000000000000000E+00     1.5624999999968961E-01     0.0000000000000000E+00 
    1.0000000000000000E+00     1.8749999999959971E-01     0.0000000000000000E+00 
    1.0000000000000000E+00     2.1874999999950970E-01     0.0000000000000000E+00 
    1.0000000000000000E+00     2.4999999999941969E-01     0.0000000000000000E+00 
    1.0000000000000000E+00     2.8124999999932920E-01     0.0000000000000000E+00 
    1.0000000000000000E+00     3.1249999999923850E-01     0.0000000000000000E+00 
    1.0000000000000000E+00     3.4374999999914790E-01     0.0000000000000000E+00 
    1.0000000000000000E+00     3.7499999999905720E-01     0.0000000000000000E+00 
    1.0000000000000000E+00     4.0624999999896660E-01     0.0000000000000000E+00 
    1.0000000000000000E+00     4.3749999999887590E-01     0.0000000000000000E+00 
    1.0000000000000000E+00     4.6874999999878530E-01     0.0000000000000000E+00 
    1.0000000000000000E+00     4.9999999999869471E-01     0.0000000000000000E+00 
    1.0000000000000000E+00     5.3124999999877620E-01     0.0000000000000000E+00 
    1.0000000000000000E+00     5.6249999999885780E-01     0.0000000000000000E+00 
    1.0000000000000000E+00     5.9374999999893940E-01     0.0000000000000000E+00 
    1.0000000000000000E+00     6.2499999999902101E-01     0.0000000000000000E+00 
    1.0000000000000000E+00     6.5624999999910261E-01     0.0000000000000000E+00 
    1.0000000000000000E+00     6.8749999999918421E-01     0.0000000000000000E+00 
    1.0000000000000000E+00     7.1874999999926570E-01     0.0000000000000000E+00 
    1.0000000000000000E+00     7.4999999999934730E-01     0.0000000000000000E+00 
    1.0000000000000000E+00     7.8124999999942890E-01     0.0000000000000000E+00 
    1.0000000000000000E+00     8.1249999999951039E-01     0.0000000000000000E+00 
    1.0000000000000000E+00     8.4374999999959199E-01     0.0000000000000000E+00 
    1.0000000000000000E+00     8.7499999999967359E-01     0.0000000000000000E+00 
    1.0000000000000000E+00     9.0624999999975520E-01     0.0000000000000000E+00 
    1.0000000000000000E+00     9.3749999999983680E-01     0.0000000000000000E+00 
    1.0000000000000000E+00     9.6874999999991840E-01     0.0000000000000000E+00 
    9.6875000000003686E-01     1.0000000000000000E+00     0.0000000000000000E+00 
    9.3750000000011691E-01     1.0000000000000000E+00     0.0000000000000000E+00 
    9.0625000000015765E-01     1.0000000000000000E+00     0.0000000000000000E+00 
    8.7500000000017863E-01     1.0000000000000000E+00     0.0000000000000000E+00 
    8.4375000000028044E-01     1.0000000000000000E+00     0.0000000000000000E+00 
    8.1250000000040856E-01     1.0000000000000000E+00     0.0000000000000000E+00 
    7.8125000000054956E-01     1.0000000000000000E+00     0.0000000000000000E+00 
    7.5000000000066480E-01     1.0000000000000000E+00     0.0000000000000000E+00 
    7.1875000000086831E-01     1.0000000000000000E+00     0.0000000000000000E+00 
    6.8750000000102829E-01     1.0000000000000000E+00     0.0000000000000000E+00 
    6.5625000000114431E-01     1.0000000000000000E+00     0.0000000000000000E+00 
    6.2500000000129829E-01     1.0000000000000000E+00     0.0000000000000000E+00 
    5.9375000000147926E-01     1.0000000000000000E+00     0.0000000000000000E+00 
    5.6250000000168354E-01     1.0000000000000000E+00     0.0000000000000000E+00 
    5.3125000000188671E-01     1.0000000000000000E+00     0.0000000000000000E+00 
    5.0000000000205835E-01     1.0000000000000000E+00     0.0000000000000000E+00 
    4.6875000000192979E-01     1.0000000000000000E+00     0.0000000000000000E+00 
    4.3750000000180111E-01     1.0000000000000000E+00     0.0000000000000000E+00 
    4.0625000000167238E-01     1.0000000000000000E+00     0.0000000000000000E+00 
    3.7500000000154382E-01     1.0000000000000000E+00     0.0000000000000000E+00 
    3.4375000000141509E-01     1.0000000000000000E+00     0.0000000000000000E+00 
    3.1250000000128642E-01     1.0000000000000000E+00     0.0000000000000000E+00 
    2.8125000000115769E-01     1.0000000000000000E+00     0.0000000000000000E+00 
    2.5000000000102918E-01     1.0000000000000000E+00     0.0000000000000000E+00 
    2.1875000000090050E-01     1.0000000000000000E+00     0.0000000000000000E+00 
    1.8750000000077180E-01     1.0000000000000000E+00     0.0000000000000000E+00 
    1.5625000000064329E-01     1.0000000000000000E+00     0.0000000000000000E+00 
    1.2500000000051459E-01     1.0000000000000000E+00     0.0000000000000000E+00 
    9.3750000000385914E-02     1.0000000000000000E+00     0.0000000000000000E+00 
    6.2500000000257239E-02     1.0000000000000000E+00     0.0000000000000000E+00 
    3.1250000000128557E-02     1.0000000000000000E+00     0.0000000000000000E+00 
    0.0000000000000000E+00     9.6875000000003686E-01     0.0000000000000000E+00 
    0.0000000000000000E+00     9.3750000000011691E-01     0.0000000000000000E+00 
    0.0000000000000000E+00     9.0625000000015765E-01     0.0000000000000000E+00 
    0.0000000000000000E+00     8.7500000000017863E-01     0.0000000000000000E+00 
    0.0000000000000000E+00     8.4375000000028044E-01     0.0000000000000000E+00 
    0.0000000000000000E+00     8.1250000000040856E-01     0.0000000000000000E+00 
    0.0000000000000000E+00     7.8125000000054956E-01     0.0000000000000000E+00 
    0.0000000000000000E+00     7.5000000000066480E-01     0.0000000000000000E+00 
    0.0000000000000000E+00     7.1875000000086831E-01     0.0000000000000000E+00 
    0.0000000000000000E+00     6.8750000000102829E-01     0.0000000000000000E+00 
    0.0000000000000000E+00     6.5625000000114431E-01     0.0000000000000000E+00 
    0.0000000000000000E+00     6.2500000000129829E-01     0.0000000000000000E+00 
    0.0000000000000000E+00     5.9375000000147926E-01     0.0000000000000000E+00 
    0.0000000000000000E+00     5.6250000000168354E-01     0.0000000000000000E+00 
    0.0000000000000000E+00     5.3125000000188671E-01     0.0000000000000000E+00 
    0.0000000000000000E+00     5.0000000000205835E-01     0.0000000000000000E+00 
    0.0000000000000000E+00     4.6875000000192979E-01     0.0000000000000000E+00 
    0.0000000000000000E+00     4.3750000000180111E-01     0.0000000000000000E+00 
    0.0000000000000000E+00     4.0625000000167238E-01     0.0000000000000000E+00 
[...]
CELL_DATA 2795 
SCALARS Pressure double 1 
LOOKUP_TABLE default 

    7.4224856302928064E+00 
    1.6796179906692142E+01 
    1.1754746863917969E+01 
    1.1419768501829690E+01 
    9.1063930887858184E+00 
    1.6637516554403682E+01 
    1.7462221718940224E+01 
    6.6361333460825582E+00 
    1.2309193738141571E+01 
    9.4711197649188072E+00 
    8.0794159009941779E+00 
    1.6342382991364442E+01 
    1.6698933240491019E+01 
    1.6601773528631650E+01 
    1.0839130145696291E+01 
    6.5255995230659973E+00 
    1.0518498548957965E+01 
    8.6023993585227725E+00 
    1.5919836482449211E+01 
    1.1736074065074320E+01 
    1.1632427446219962E+01 
    1.6526022518587542E+01 
    1.1111648427193812E+01 
    4.3322302379037136E-01 
    1.6328627354014209E+01 
    1.6658363777654635E+01 
    1.7496767858259417E+01 
    7.7900574144520744E+00 
    1.6250535838159049E+01 
    1.7487124588057601E+01 
    1.1896772389191744E+01 
    1.1939892704709283E+01 
    8.4731065695580998E+00 
    1.1717828312524073E+01 
    3.8153876751110158E+00 
    1.0523484013528478E+01 
    1.1703389788042175E+01 
    1.7530456939573192E+01 
    1.7436284128517133E+01 
    1.6356939471497437E+01 
    9.0841906303977495E+00 
    1.6325009020090473E+01 
    9.0007458075514302E-01 
    1.1692287501856695E+01 
    1.7240654364586607E+01 
    1.6994127709597681E+01 
    1.6330176361942677E+01 
    1.2742279320583023E+01 
    1.6394563296838680E+01 
    1.0759639739879239E+01 
    1.0253817323297980E+01 
    1.1903853872010924E+01 
    1.1580681327087463E+01 
    1.0585104557766600E+01 
    1.1970951612143937E+01 
    1.5675038597715247E+01 
    1.3793072012995722E+01 
    9.1549451668965656E+00 
    1.6532156493376121E+01 
    1.6440639541859984E+01 
    1.1388615982238923E+01 
    1.1310062720645874E+01 
    1.1307738396847995E+01 
    1.7378492679310781E+01 
    1.7670991096050795E+01 
    1.0533385410448156E+01 
    1.1902320777640771E+01 
    1.6138990738844676E+01 
    1.3789672977852875E+01 
    1.1363967269656678E+01 
    1.7670579042838988E+01 
    1.6480302299362659E+01 
    1.0382809032694619E+01 
    1.7121314091069998E+01 
    1.2224552362404451E+01 
    1.6163127702816393E+01 
    1.7543259455796886E+01 
    1.2320842993451297E+01 
    7.5566392905364586E+00 
    1.1920505623622262E+01 
    1.7446610258785874E+01 
    1.7700760222284448E+01 
    1.0545197388267352E+01 
    1.1846812320338255E+01 
    1.7752853912638145E+01 
    1.1702298362600549E+01 
    1.1211211819501454E+01 
    1.4296332468732798E+01 
    7.2322849689553124E+00 
    1.0280348946145912E+01 
    1.1843991537606644E+01 
    1.2467434638017856E+01 
    1.9324474814390150E+01 
    8.8528154188204269E+00 
    1.1910179086530119E+01 
    1.6304827704274601E+01 
    1.6641712191825409E+01 
    7.8130600125079486E+00 
    1.1562314036334643E+01 
    1.1877850888064380E+01 
    1.6666477125064148E+01 
    1.1868535309470372E+01 
    1.6584812188381935E+01 
    4.7383813751680073E+00 
    7.8562310882758384E+00 
    1.2128020493030792E+01 
    1.6804559102696160E+01 
    1.0482823258982153E+01 
    1.1134922000249821E+01 
    1.1847083735318840E+01 
    1.1171727012910628E+01 
    1.3382137404716019E+01 
    1.0839731372500125E+01 
    1.0393661255645560E+01 
    8.2877211193542877E+00 
    1.4102866424031882E+01 
    1.1945348763913188E+01 
    1.7280191515724848E+01 
    1.0272855936906128E+01 
    1.1396972807017724E+01 
    1.6469651317874217E+01 
    9.5554554413433124E+00 
    1.6977979782528731E+01 
    1.1775152913708091E+01 
    1.1317765792547078E+01 
    1.6644966257738844E+01 
    1.1932861541613583E+01 
    1.7557871392818566E+01 
    1.4331431102021950E+01 
    1.5487490591944427E+01 
    1.7515305726687846E+01 
    8.8702254634629227E+00 
    1.2150558345420075E+01 
    1.6643418746435071E+01 
    3.5364369037188363E+00 
    1.1947734832168114E+01 
    1.7477888935617589E+01 
    1.1349404308901816E+01 
    1.3101763128381888E+01 
    7.7691726909073919E+00 
    1.6301725534852885E+01 
    1.9839993873933270E+01 
    1.4886854964698207E+01 
    1.1350115134810865E+01 
    1.0164423523024256E+01 
    1.2663763990026597E+01 
    1.1792116152937714E+01 
    8.1680302683626387E+00 
    1.7511019844420435E+01 
    1.6667386903062571E+01 
    1.6306722454585167E+01 
    1.2464346823683767E+01 
    1.0356007874791262E+01 
    1.1628933950280876E+01 
    1.7159256820393626E+01 
    1.0644369709625316E+01 
    1.1883245592325697E+01 
    1.0834702190922698E+01 
    1.3799213827989579E+01 
    1.9827550823798177E+01 
    1.6297075303805187E+01 
    1.0373036687553011E+01 
    1.6863598345445528E+01 
    1.6759340733701944E+01 
    1.6848625265044937E+01 
    1.7969931167192772E+01 
    1.8556344122338810E+01 
    1.6986080564432342E+01 
    1.1894042400942810E+01 
    1.2912376536314987E+01 
    1.6799683198963834E+01 
    1.7293430275058999E+01 
    8.5295046252663962E+00 
    1.6329628614138318E+01 
    1.7118329551569254E+01 
    8.2983388644914182E+00 
    1.7883672270531864E+01 
    1.7858559886075550E+01 
    1.5999115305645539E+01 
    1.2225407882666367E+01 
    3.1071658809439984E+00 
    1.7479272360141863E+01 
    1.2067759509110443E+01 
    1.7612323962414322E+01 
    1.1269043657796606E+01 
    1.7284783099349500E+01 
    1.1134578089729086E+00 
    1.5490519933385100E+01 
    1.1359112930708532E+01 
    1.0301275820967371E+01 
    1.0042629693568085E+01 
    1.1743360730326085E+01 
    1.2961671481587635E+01 
    1.2370503776642444E+01 
    8.3581349502406113E+00 
    1.7287341897212706E+01 
    1.6669185043056814E+01 
    1.3892833295847385E+01 
    1.2120061992133357E+01 
    1.7959430681155697E+00 
    9.2747346991953883E+00 
    6.4576589065389527E+00 
    1.7498082542533425E+01 
    1.3174063922706649E+01 
    1.6694167076074287E+01 
    1.6744730651238037E+01 
    1.0732329520627875E+01 
    1.3758163138395931E+01 
    1.6300896824483313E+01 
    1.7840275090394304E+01 
    7.7634277966010945E+00 
    1.4752360293640438E+01 
    1.2348740790053393E+01 
    6.8806554195536735E+00 
    1.0724427854932134E+01 
    1.4406341595914398E+01 
    1.6701156950643341E+01 
    1.1794670532389580E+01 
    1.6824523723726909E+01 
    1.6561689111750514E+01 
    1.6503282749163439E+01 
    1.1633664832351942E+01 
    1.0221046107261332E+01 
    1.6315601006799998E+01 
    1.0379569966962096E+01 
    1.1876685451374293E+01 
    1.0174517598888860E+01 
    1.1833827204382418E+01 
    1.6755550576352178E+01 
    7.3927395792363626E+00 
    1.0617743822669466E+01 
    1.7405115931996249E+01 
    1.1642582439471097E+01 
    1.3067154995668512E+01 
    7.5838975894053275E+00 
    1.0450054236085414E+01 
    1.6536837234561325E+01 
    1.6886829843646186E+01 
    6.1935620188199403E+00 
    1.1654211606039000E+01 
    1.0244825856707573E+01 
    1.8304338213447590E+01 
    1.7710550004676680E+01 
    1.8587137145324306E+01 
    1.1674238798071386E+01 
    1.6724437307526628E+01 
    1.6247724255198875E+01 
    1.1530140131904410E+01 
    1.6307219575732052E+01 
    1.2121441366367820E+01 
    6.9588994378174753E+00 
    1.2021709212020497E+01 
    1.7387404468252491E+01 
    1.6303549399641408E+01 
    8.0456265690104924E+00 
    1.6337816047685084E+01 
    1.2989623402429338E+01 
    1.1925210838444116E+01 
    1.1431136963349180E+01 
    1.6148132449148811E+01 
    1.2492651299211369E+01 
    1.6321857277027320E+01 
    1.1618181706112251E+01 
    7.1772753786669092E+00 
    1.1955474329670901E+01 
    1.0056520546655625E+01 
    1.4912163462244166E+01 
    1.7611826160068357E+01 
    1.6313424835276109E+01 
    1.7470980556883656E+01 
    1.1584134166062096E+01 
    7.8302409966908266E+00 
    7.9397158166316277E+00 
    1.2129039184235909E+01 
    1.1848957217537608E+01 
    1.7302377603414016E+00 
    1.5722655158554812E+01 
    1.8007087882639027E+01 
    1.1286053404532025E+01 
    7.2693637725428957E+00 
    1.3726090533503859E+01 
    1.6335730655376683E+01 
    8.5893411269724673E+00 
    5.8434101322672136E+00 
    1.1832459173912186E+01 
    1.6417989153484360E+01 
    1.7180681699672217E+01 
    1.7039293818779967E+01 
    1.6889830963412969E+01 
    8.4545421426272611E+00 
    1.1919941734909111E+01 
    1.5792897519756924E+01 
    9.2962016230220286E+00 
    1.6683942353478862E+01 
    1.4009942361061849E+01 
    8.0579156388915951E+00 
    1.6446907167515302E+01 
    1.7506423791189423E+01 
    1.6480733824234687E+01 
    8.2691844132494889E+00 
    1.1898415820828093E+01 
    9.0771779092398646E+00 
    1.1238374620731383E+01 
    1.6326214894233857E+01 
    1.6312529987544419E+01 
    8.3166658484132068E+00 
    1.7332955806650752E+01 
    1.2482752377026605E+01 
    1.6346637238581113E+01 
    1.7304714883130604E+01 
    1.6333821257934879E+01 
    1.5160282285575807E+01 
    1.8367093463268660E+01 
    1.1229513658252747E+01 
    1.7436212786045392E+01 
    1.6376714331481057E+01 
    1.7518032928399688E+01 
    1.7326048287750648E+01 
    1.1344989180252982E+01 
    1.1743737380398695E+01 
    1.1275422498103863E+01 
    1.4542630158526732E+01 
    4.7594023653347541E+00 
    1.2058010368488446E+01 
    1.8501115090091169E+01 
    1.2124566671477400E+01 
    1.2339090199663964E+01 
    1.7488051912736349E+01 
    1.7741795752654625E+01 
    1.1133296384127977E+01 
    1.6342798143552759E+01 
    1.6307953696687623E+01 
    1.2324639222687740E+01 
    1.7276041901958518E+01 
    8.4623020953390657E+00 
    5.4092446429142598E+00 
    1.2650579881612867E+01 
    1.2138159616653930E+01 
    1.6313907282724553E+01 
    7.7860536618479061E+00 
    1.6948503026694784E+01 
    5.5012904891009642E+00 
    1.2072735995974332E+01 
    1.1365530475758728E+01 
    1.1875336942026285E+01 
    1.9880269295743275E+01 
    4.6121661739913389E+00 
    1.1966777494299400E+01 
    1.4344781052012616E+01 
    1.1472930167267055E+01 
    9.2658304667184872E+00 
    1.7086657757338976E+01 
    1.9417172234007740E+01 
    1.7249656389013257E+01 
    1.1899242929624629E+01 
    6.8423932361956972E+00 
    1.9259933460732736E+01 
    1.6658507806812736E+01 
    8.7543271600125436E+00 
    1.1521882290142383E+01 
    1.7951321215737330E+01 
    3.9268942768219497E+00 
    1.2197500960994560E+01 
    1.7228516571349267E+01 
    1.1890510882940513E+01 
    1.0369491185969361E+01 
    1.2010831517848787E+01 
    1.5970496203168823E+01 
    1.1872673006581834E+01 
    6.0949366336749673E+00 
    1.0886766121573894E+00 
    8.8748750961514702E+00 
    1.8197069639155426E+01 
    1.1274804434158074E+01 
    1.3375916655701783E+01 
    1.2824647222994518E+01 
    1.4742448785978416E+01 
    1.1904140400458122E+01 
    1.6554388296166234E+01 
    1.9895138541211306E+01 
    1.4214389765634817E+01 
    1.7405145238630141E+01 
    6.4552595203414465E-01 
    1.6314819098919660E+01 
    6.7177732276396487E+00 
    1.8681250517744505E+01 
    1.1981853920196931E+01 
    1.0573737717187550E+01 
    9.2556028401793657E+00 
    6.3954908728929478E+00 
    1.3307271854054747E+01 
    9.4156015456629429E+00 
    1.4792581929044882E+01 
    2.6177290673602753E+00 
    1.3032143769682850E+01 
    1.6234349571498218E+01 
    7.2161509098941012E+00 
    1.6827441335734118E+01 
    1.8462417233302236E+01 
    1.6661088224788550E+01 
    1.1829692912714179E+01 
    1.1869328119228147E+01 
    1.1973839539918949E+01 
    6.9296860965597000E+00 
    1.0963665865679602E+01 
    1.0781156215601518E+01 
    1.1961635419601382E+01 
    1.1194478518396489E+01 
    8.2133679023185224E-01 
    7.6883314818959647E+00 
    1.1654118534956034E+01 
    1.1933346030802724E+01 
    1.5197525206846237E+01 
    2.5764405607100165E+00 
    1.2278206878203582E+01 
    1.2145915997005094E+01 
    4.4442178407898112E+00 
    1.6508715504022607E+01 
    1.0399898225030249E+01 
    1.2003058788857272E+01 
    1.6655874209335813E+01 
    6.4217576479702965E+00 
    1.6630314375566158E+01 
    1.0536182910493514E+01 
    1.1716580208076415E+00 
    1.1347091419840122E+01 
    1.7351575295422602E+01 
    1.6314633935096875E+01 
    1.6335363444484223E+01 
    1.2353198198464916E+01 
    1.2075744866581626E+01 
    1.0374543262690903E+01 
    8.3692656965817491E+00 
    1.6783012316551044E+01 
    1.1516060075069790E+01 
    8.1284027440205424E+00 
    1.6330645569477849E+01 
    1.7110168235259451E+01 
    1.2156047786425153E+01 
    1.1690934310279173E+01 
    1.9767834932124948E+01 
    1.2325740499435383E+01 
    1.6800179800291460E+01 
    9.8724541868430364E+00 
    1.9924083394379512E+01 
    7.8937257505774019E+00 
    1.0841513709140347E+01 
    8.8412882496778664E+00 
    1.2593445584144133E+01 
    1.0130532294383370E+01 
    1.9907045947624916E+01 
    1.2381306664440858E+01 
    1.5923713560864940E+01 
    8.1177428427059368E+00 
    1.1898688317468586E+01 
    1.6619491321008027E+01 
    1.0174334451309509E+01 
    8.7879272369482404E+00 
    1.3346240224145626E+01 
    1.6866702675202784E+01 
    8.7036552768307160E+00 
    1.1389856362439051E+01 
    1.1727422061130806E+01 
    1.6286329713670700E+01 
    1.1500489305933558E+01 
    1.6845800349632402E+01 
    1.7550179632155569E+01 
    1.0408666104307990E+01 
    1.0205819622639268E+01 
    9.4334250642602129E+00 
    1.6446822877305920E+01 
    1.2176866639992861E+01 
    1.9458039763869404E+01 
    1.5208449169330704E+01 
    1.6573329949817985E+01 
    1.9125494728107832E+01 
    1.8469052228326916E+01 
    1.1945618782587957E+01 
    1.1944599060047350E+01 
    1.6027311902075056E+01 
    1.6358824304996883E+01 
    1.6980101199176474E+01 
    1.6682412516644888E+01 
    1.9791726932787626E+01 
    1.2325183447673053E+01 
    1.0525293738466100E+01 
    1.2317501832333592E+01 
    1.7453033867800180E+01 
    1.2040661030997665E+01 
    7.0537058345500823E+00 
    1.1811487540404459E+01 
    1.7917630407878217E+01 
    1.2186263543992041E+01 
    1.0538444513039838E+01 
    1.1667955098315373E+01 
    1.8038671212517663E+01 
    1.6391632916878450E+01 
    1.0056251758867546E+01 
    1.8187350797945044E+01 
    1.1973986744025117E+01 
    1.6964186332774901E+01 
    1.8052680536424624E+01 
    1.2666545690987229E+01 
    6.4286252039563614E+00 
    1.3204092527120439E+01 
    6.6482146433996343E+00 
    1.2090476737112290E+01 
    1.1894990414443052E+01 
    1.3937112729238388E+01 
    7.0334111003510857E+00 
    1.4812904246731604E+01 
    1.1911461753992418E+01 
    1.6670849705120574E+01 
    1.2765542461361614E+01 
    9.8821909981157798E+00 
    1.1523488999312605E+01 
    1.2526387767584771E+01 
    1.2445170619179004E+01 
    1.7603636590153251E+01 
    1.0058708146108387E+01 
    9.8876942186461250E+00 
    7.4107520423335185E+00 
    1.7008952621455979E+01 
    1.1572196757540780E+01 
    1.6145095200276330E+01 
    1.1863690139215802E+01 
    8.1157203283334258E+00 
    1.6423791465444552E+01 
    1.1840373834141728E+01 
    8.8318781023510358E+00 
    9.3375335353809419E+00 
    9.6584815606684700E+00 
    1.6706502378173074E+01 
    1.1963860686242741E+01 
    1.7418692835846162E+01 
    1.1800963394655048E+01 
    1.1740412832000969E+01 
    1.1298361171690152E+01 
    1.6521142890330900E+01 
    1.1654819304014675E+01 
    9.7027088018223449E+00 
    1.8457327495793304E+01 
    1.6614996992690426E+01 
    8.2674155847164688E+00 
    3.2496638323721871E+00 
    1.1952287672200441E+01 
    1.1191756266513723E+01 
    1.0190519868735089E+01 
    1.1073291726009218E+01 
    1.6551151325541980E+01 
    1.1622376091898087E+01 
    1.0586847504727160E+01 
    1.6384035208736528E+01 
    8.1960204550416087E+00 
    1.5984652985321230E+01 
    1.0799263358088290E+01 
    9.7151262373636147E+00 
    1.0288715095286767E+01 
    1.7059786172412981E+01 
    1.1877900663312028E+01 
    1.1886314842556779E+01 
    7.1284444183648432E+00 
    7.7035268331941724E+00 
    1.5074963824688691E+01 
    1.1896174820326518E+01 
    1.1996709623696512E+01 
    1.8173276650012472E+01 
    9.8918088307907688E+00 
    1.1908431743149029E+01 
    8.4781457202538615E+00 
    8.7521565135075079E+00 
    1.6509045391158772E+01 
    1.1528423792644741E+01 
    8.4895829670040577E+00 
    1.2467977297650355E+01 
    1.1798441302446781E+01 
    1.6514427617012515E+01 
    1.8273957801617108E+01 
    1.2282228035047098E+00 
    1.1957765463219705E+01 
    1.2136844492419938E+01 
    1.6591524911168730E+01 
    1.1428993942972239E+01 
    1.1850415803136961E+01 
    1.7665877986352374E+01 
    1.0332095842710364E+01 
    8.5665089144910898E+00 
    1.4260850940045128E+01 
    1.6330528391415502E+01 
    1.7515598115825114E+01 
    1.7811928924934119E+01 
    1.1781315355439698E+01 
    1.1948103786114936E+01 
    1.3305153346050659E+01 
    7.8628132127123704E+00 
    1.6480353907782323E+01 
    9.2234109413422125E+00 
    8.1817979588065022E+00 
    1.4874071553672257E+01 
    1.4008640896584772E+01 
    8.0266355571094525E+00 
    1.6371384889603018E+01 
    1.7500402170269627E+01 
    1.2343442411542396E+01 
    1.8384877536569842E+01 
    1.6409800354036999E+01 
    1.1492011918691365E+01 
    1.7201345661171459E+01 
    8.7454197019010724E+00 
    1.6352164847202527E+01 
    1.1956485949258289E+01 
    1.1914489058656308E+01 
    1.8360422687945672E+01 
    1.1613760959063519E+01 
    1.4621436888279174E+01 
    1.0272864376431423E+01 
    1.7632235656967520E+01 
    1.6242749916143786E+01 
    1.0712630504816060E+01 
    1.6301780636354561E+01 
    1.0825731466160116E+01 
    1.1857726576408758E+01 
    1.7454841441038916E+01 
    1.6679253411021143E+01 
    1.7503804543250126E+01 
    1.6595308617402356E+01 
    1.0969013241490245E+01 
    1.1214017102635037E+01 
    1.7511927298298989E+01 
    1.1358031893547395E+01 
    1.6150667981385531E+01 
    1.1597608859595971E+01 
    4.7857333632291752E+00 
    8.2673489264280828E+00 
    7.6597602245926151E+00 
    1.7459046489893865E+01 
    1.8281883886669885E+01 
    1.6322850541974528E+01 
    1.3631950818139980E+01 
    1.6653927739285127E+01 
    1.6381400519781845E+01 
    1.7058270415768582E+01 
    6.8882243555085765E+00 
    4.4559430320869353E+00 
    1.3377109441675344E+01 
    1.1606449029895938E+01 
    1.6554298675534401E+01 
    1.6551425951243196E+01 
    1.2158652776597069E+01 
    1.6594585665808015E+01 
    1.1941743632771903E+01 
    1.1858429516587915E+01 
    6.2175169683880895E+00 
    4.4439719538583828E+00 
    1.8034155306745195E+01 
    9.2901045058197234E+00 
    1.0643300359103161E+01 
    1.2052205376265910E+01 
    1.9770709233403650E+01 
    1.2146909427900297E+01 
    1.2301446389356871E+01 
    5.0622282799489939E+00 
    1.2146968972734054E+01 
    1.2161670116442135E+01 
    1.6880483770281678E+01 
    1.0296907227476105E+01 
    1.1400879722993679E+01 
    1.8219500822702599E+01 
    1.1967070398089430E+01 
    1.6341068780037350E+01 
    1.6599208934160611E+01 
    1.4555808870681167E+01 
    1.0110461853014801E+01 
    1.6594906408029232E+01 
    1.1744727910788717E+01 
    1.6523799253102720E+01 
    1.6270383660664240E+01 
    1.7480643057155788E+01 
    1.6592625859164293E+01 
    1.5515468191472138E+01 
    1.1954315047020366E+01 
    7.9640272107317953E+00 
    1.9637256821153041E+01 
    9.4099301674912308E+00 
    1.7397351034052296E+01 
    1.1951482821906698E+01 
    9.9456379583825409E+00 
    5.9402559906160688E+00 
    1.2200130678904644E+01 
    1.6579509589022244E+01 
    1.6575121490557958E+01 
    1.1837808252241377E+01 
    1.1945114515438426E+01 
    1.8443596110121437E+01 
    1.7749157071066868E+01 
    1.2167649132895184E+01 
    4.1427317530526482E+00 
    1.5364073122000955E+01 
    1.9903672643461793E+01 
    1.1957927436176840E+01 
    1.4077638994348698E+01 
    1.1428424602338861E+01 
    1.9484752139523387E+01 
    1.7838651445638519E+01 
    1.7551789521948656E+01 
    1.2191072702416896E+01 
    5.5151200508122464E+00 
    1.1380505768832043E+01 
    1.1454878854517641E+01 
    1.1497656900945801E+01 
    4.5184971129954556E+00 