# vtk DataFile Version 2.0
Pressure Field Data 
ASCII 
DATASET UNSTRUCTURED_GRID 

POINTS 2860 double 

    0.0000000000000000E+00     0.0000000000000000E+00     0.0000000000000000E+00 
    1.0000000000000000E+00     0.0000000000000000E+00     0.0000000000000000E+00 
    1.0000000000000000E+00     1.0000000000000000E+00     0.0000000000000000E+00 
    0.0000000000000000E+00     1.0000000000000000E+00     0.0000000000000000E+00 
    2.5000000000000000E-01     2.5000000000000000E-01     0.0000000000000000E+00 
    7.5000000000000000E-01     2.5000000000000000E-01     0.0000000000000000E+00 
    7.5000000000000000E-01     7.5000000000000000E-01     0.0000000000000000E+00 
    2.5000000000000000E-01     7.5000000000000000E-01     0.0000000000000000E+00 
    3.1249999999942091E-02     0.0000000000000000E+00     0.0000000000000000E+00 
    6.2499999999873469E-02     0.0000000000000000E+00     0.0000000000000000E+00 
    9.3749999999826514E-02     0.0000000000000000E+00     0.0000000000000000E+00 
    1.2499999999977961E-01     0.0000000000000000E+00     0.0000000000000000E+00 
    1.5624999999968961E-01     0.0000000000000000E+00     0.0000000000000000E+00 
    1.8749999999959971E-01     0.0000000000000000E+00     0.0000000000000000E+00 
    2.1874999999950970E-01     0.0000000000000000E+00     0.0000000000000000E+00 
    2.4999999999941969E-01     0.0000000000000000E+00     0.0000000000000000E+00 
    2.8124999999932920E-01     0.0000000000000000E+00     0.0000000000000000E+00 
    3.1249999999923850E-01     0.0000000000000000E+00     0.0000000000000000E+00 
    3.4374999999914790E-01     0.0000000000000000E+00     0.0000000000000000E+00 
    3.7499999999905720E-01     0.0000000000000000E+00     0.0000000000000000E+00 
    4.0624999999896660E-01     0.0000000000000000E+00     0.0000000000000000E+00 
    4.3749999999887590E-01     0.0000000000000000E+00     0.0000000000000000E+00 
    4.6874999999878530E-01     0.0000000000000000E+00     0.0000000000000000E+00 
    4.9999999999869471E-01     0.0000000000000000E+00     0.0000000000000000E+00 
    5.3124999999877620E-01     0.0000000000000000E+00     0.0000000000000000E+00 
    5.6249999999885780E-01     0.0000000000000000E+00     0.0000000000000000E+00 
    5.9374999999893940E-01     0.0000000000000000E+00     0.0000000000000000E+00 
    6.2499999999902101E-01     0.0000000000000000E+00     0.0000000000000000E+00 
    6.5624999999910261E-01     0.0000000000000000E+00     0.0000000000000000E+00 
    6.8749999999918421E-01     0.0000000000000000E+00     0.0000000000000000E+00 
    7.1874999999926570E-01     0.0000000000000000E+00     0.0000000000000000E+00 
    7.4999999999934730E-01     0.0000000000000000E+00     0.0000000000000000E+00 
    7.8124999999942890E-01     0.0000000000000000E+00     0.0000000000000000E+00 
    8.1249999999951039E-01     0.0000000000000000E+00     0.0000000000000000E+00 
    8.4374999999959199E-01     0.0000000000000000E+00     0.0000000000000000E+00 
    8.7499999999967359E-01     0.0000000000000000E+00     0.0000000000000000E+00 
    9.0624999999975520E-01     0.0000000000000000E+00     0.0000000000000000E+00 
    9.3749999999983680E-01     0.0000000000000000E+00     0.0000000000000000E+00 
    9.6874999999991840E-01     0.0000000000000000E+00     0.0000000000000000E+00 
    1.0000000000000000E+00     3.1249999999942091E-02     0.0000000000000000E+00 
    1.0000000000000000E+00     6.2499999999873469E-02     0.0000000000000000E+00 
    1.0000000000000000E+00     9.3749999999826514E-02     0.0000000000000000E+00 
    1.0000000000000000E+00     1.2499999999977961E-01     0.0000000000000000E+00 
    1.0000000000000000E+00     1.5624999999968961E-01     0.0000000000000000E+00 
    1.0000000000000000E+00     1.8749999999959971E-01     0.0000000000000000E+00 
    1.0000000000000000E+00     2.1874999999950970E-01     0.0000000000000000E+00 
    1.0000000000000000E+00     2.4999999999941969E-01     0.0000000000000000E+00 
    1.0000000000000000E+00     2.8124999999932920E-01     0.0000000000000000E+00 
    1.0000000000000000E+00     3.1249999999923850E-01     0.0000000000000000E+00 
    1.0000000000000000E+00     3.4374999999914790E-01     0.0000000000000000E+00 
    1.0000000000000000E+00     3.7499999999905720E-01     0.0000000000000000E+00 
    1.0000000000000000E+00     4.0624999999896660E-01     0.0000000000000000E+00 
    1.0000000000000000E+00     4.3749999999887590E-01     0.0000000000000000E+00 
    1.0000000000000000E+00     4.6874999999878530E-01     0.0000000000000000E+00 
    1.0000000000000000E+00     4.9999999999869471E-01     0.0000000000000000E+00 
    1.0000000000000000E+00     5.3124999999877620E-01     0.0000000000000000E+00 
    1.0000000000000000E+00     5.6249999999885780E-01     0.0000000000000000E+00 
    1.0000000000000000E+00     5.9374999999893940E-01     0.0000000000000000E+00 
    1.0000000000000000E+00     6.2499999999902101E-01     0.0000000000000000E+00 
    1.0000000000000000E+00     6.5624999999910261E-01     0.0000000000000000E+00 
    1.0000000000000000E+00     6.8749999999918421E-01     0.0000000000000000E+00 
    1.0000000000000000E+00     7.1874999999926570E-01     0.0000000000000000E+00 
    1.0000000000000000E+00     7.4999999999934730E-01     0.0000000000000000E+00 
    1.0000000000000000E+00     7.8124999999942890E-01     0.0000000000000000E+00 
    1.0000000000000000E+00     8.1249999999951039E-01     0.0000000000000000E+00 
    1.0000000000000000E+00     8.4374999999959199E-01     0.0000000000000000E+00 
    1.0000000000000000E+00     8.7499999999967359E-01     0.0000000000000000E+00 
    1.0000000000000000E+00     9.0624999999975520E-01     0.0000000000000000E+00 
    1.0000000000000000E+00     9.3749999999983680E-01     0.0000000000000000E+00 
    1.0000000000000000E+00     9.6874999999991840E-01     0.0000000000000000E+00 
    9.6875000000003686E-01     1.0000000000000000E+00     0.0000000000000000E+00 
    9.3750000000011691E-01     1.0000000000000000E+00     0.0000000000000000E+00 
    9.0625000000015765E-01     1.0000000000000000E+00     0.0000000000000000E+00 
    8.7500000000017863E-01     1.0000000000000000E+00     0.0000000000000000E+00 
    8.4375000000028044E-01     1.0000000000000000E+00     0.0000000000000000E+00 
    8.1250000000040856E-01     1.0000000000000000E+00     0.0000000000000000E+00 
    7.8125000000054956E-01     1.0000000000000000E+00     0.0000000000000000E+00 
    7.5000000000066480E-01     1.0000000000000000E+00     0.0000000000000000E+00 
    7.1875000000086831E-01     1.0000000000000000E+00     0.0000000000000000E+00 
    6.8750000000102829E-01     1.0000000000000000E+00     0.0000000000000000E+00 
    6.5625000000114431E-01     1.0000000000000000E+00     0.0000000000000000E+00 
    6.2500000000129829E-01     1.0000000000000000E+00     0.0000000000000000E+00 
    5.9375000000147926E-01     1.0000000000000000E+00     0.0000000000000000E+00 
    5.6250000000168354E-01     1.0000000000000000E+00     0.0000000000000000E+00 
    5.3125000000188671E-01     1.0000000000000000E+00     0.0000000000000000E+00 
    5.0000000000205835E-01     1.0000000000000000E+00     0.0000000000000000E+00 
    4.6875000000192979E-01     1.0000000000000000E+00     0.0000000000000000E+00 
    4.3750000000180111E-01     1.0000000000000000E+00     0.0000000000000000E+00 
    4.0625000000167238E-01     1.0000000000000000E+00     0.0000000000000000E+00 
    3.7500000000154382E-01     1.0000000000000000E+00     0.0000000000000000E+00 
    3.4375000000141509E-01     1.0000000000000000E+00     0.0000000000000000E+00 
    3.1250000000128642E-01     1.0000000000000000E+00     0.0000000000000000E+00 
    2.8125000000115769E-01     1.0000000000000000E+00     0.0000000000000000E+00 
    2.5000000000102918E-01     1.0000000000000000E+00     0.0000000000000000E+00 
    2.1875000000090050E-01     1.0000000000000000E+00     0.0000000000000000E+00 
    1.8750000000077180E-01     1.0000000000000000E+00     0.0000000000000000E+00 
    1.5625000000064329E-01     1.0000000000000000E+00     0.0000000000000000E+00 
    1.2500000000051459E-01     1.0000000000000000E+00     0.0000000000000000E+00 
    9.3750000000385914E-02     1.0000000000000000E+00     0.0000000000000000E+00 
    6.2500000000257239E-02     1.0000000000000000E+00     0.0000000000000000E+00 
    3.1250000000128557E-02     1.0000000000000000E+00     0.0000000000000000E+00 
    0.0000000000000000E+00     9.6875000000003686E-01     0.0000000000000000E+00 
    0.0000000000000000E+00     9.3750000000011691E-01     0.0000000000000000E+00 
    0.0000000000000000E+00     9.0625000000015765E-01     0.0000000000000000E+00 
    0.0000000000000000E+00     8.7500000000017863E-01     0.0000000000000000E+00 
    0.0000000000000000E+00     8.4375000000028044E-01     0.0000000000000000E+00 
    0.0000000000000000E+00     8.1250000000040856E-01     0.0000000000000000E+00 
    0.0000000000000000E+00     7.8125000000054956E-01     0.0000000000000000E+00 
    0.0000000000000000E+00     7.5000000000066480E-01     0.0000000000000000E+00 
    0.0000000000000000E+00     7.1875000000086831E-01     0.0000000000000000E+00 
    0.0000000000000000E+00     6.8750000000102829E-01     0.0000000000000000E+00 
    0.0000000000000000E+00     6.5625000000114431E-01     0.0000000000000000E+00 
    0.0000000000000000E+00     6.2500000000129829E-01     0.0000000000000000E+00 
    0.0000000000000000E+00     5.9375000000147926E-01     0.0000000000000000E+00 
    0.0000000000000000E+00     5.6250000000168354E-01     0.0000000000000000E+00 
    0.0000000000000000E+00     5.3125000000188671E-01     0.0000000000000000E+00 
    0.0000000000000000E+00     5.0000000000205835E-01     0.0000000000000000E+00 
    0.0000000000000000E+00     4.6875000000192979E-01     0.0000000000000000E+00 
    0.0000000000000000E+00     4.3750000000180111E-01     0.0000000000000000E+00 
    0.0000000000000000E+00     4.0625000000167238E-01     0.0000000000000000E+00 
[...]
CELL_DATA 2795 
SCALARS Pressure double 1 
LOOKUP_TABLE default 

    6.9448822926882139E+00 
    1.5726892750789844E+01 
    1.1062469289871203E+01 
    1.0691627412814972E+01 
    8.5184491672742553E+00 
    1.5579390733699405E+01 
    1.6359630183164786E+01 
    6.2126468552116254E+00 
    1.1610321287503723E+01 
    8.9334253041817195E+00 
    7.6270143693351367E+00 
    1.5301486261469538E+01 
    1.5632604307378895E+01 
    1.5545835506147391E+01 
    1.0216140147381818E+01 
    6.1113961483294545E+00 
    9.8419960623747560E+00 
    8.1185635962334679E+00 
    1.4905304445606909E+01 
    1.1047178392951519E+01 
    1.0943569816802771E+01 
    1.5475144521151707E+01 
    1.0401223371599533E+01 
    4.0669561003108473E-01 
    1.5303303707945572E+01 
    1.5596345599709402E+01 
    1.6392535316736101E+01 
    7.3430917769398842E+00 
    1.5215185262931335E+01 
    1.6385276621281658E+01 
    1.1148498903029566E+01 
    1.1255649161994478E+01 
    7.9659101394731211E+00 
    1.1025532057053139E+01 
    3.5825003619404239E+00 
    9.8474034989530708E+00 
    1.1012666809909188E+01 
    1.6426937572529692E+01 
    1.6334944037362064E+01 
    1.5315222405257414E+01 
    8.4826733868790303E+00 
    1.5281772390700263E+01 
    8.4538025254987925E-01 
    1.0954258794795130E+01 
    1.6146320878964058E+01 
    1.5937896224736336E+01 
    1.5289978062867863E+01 
    1.2036081836761296E+01 
    1.5360499040424015E+01 
    1.0066630333480111E+01 
    9.5943759078359125E+00 
    1.1220678990932210E+01 
    1.0842227608536733E+01 
    9.9015136659374026E+00 
    1.1219479099934148E+01 
    1.4675943580575183E+01 
    1.3055338382726216E+01 
    8.5640787437815469E+00 
    1.5480072312148890E+01 
    1.5395426911027197E+01 
    1.0666706200124338E+01 
    1.0646254491783578E+01 
    1.0585787394332899E+01 
    1.6281756522182331E+01 
    1.6557720617324065E+01 
    9.8545563813924542E+00 
    1.1219369915443041E+01 
    1.5152212379484521E+01 
    1.2955955179694195E+01 
    1.0698710489815436E+01 
    1.6559367576912042E+01 
    1.5429455941942752E+01 
    9.7153431690990324E+00 
    1.6053989777653975E+01 
    1.1461344589063250E+01 
    1.5142290814191952E+01 
    1.6438815503857651E+01 
    1.1541865907004523E+01 
    7.1396214553577666E+00 
    1.1237514134789857E+01 
    1.6344755704200129E+01 
    1.6589943719282608E+01 
    9.8676847413268334E+00 
    1.1160346078779655E+01 
    1.6638293617255709E+01 
    1.1013097136236834E+01 
    1.0494955388295383E+01 
    1.3423438088142657E+01 
    6.7931896993232117E+00 
    9.6189080591431040E+00 
    1.1158516646442665E+01 
    1.1772502007117229E+01 
    1.8161491828040045E+01 
    8.2810426025319810E+00 
    1.1227231474282766E+01 
    1.5266073616549205E+01 
    1.5579934663266810E+01 
    7.3079914632442815E+00 
    1.0879160183667778E+01 
    1.1190592597273600E+01 
    1.5602224773962533E+01 
    1.1185443213629899E+01 
    1.5527893287059348E+01 
    4.4463386004583851E+00 
    7.4173211028532746E+00 
    1.1444793489293890E+01 
    1.5735141638781084E+01 
    9.8090645230964615E+00 
    1.0427981247531250E+01 
    1.1166172595284509E+01 
    1.0457944583558092E+01 
    1.2625779912406955E+01 
    1.0149244647908342E+01 
    9.7253686686451264E+00 
    7.7668252962304676E+00 
    1.3199805271831721E+01 
    1.1259541199034620E+01 
    1.6188208700740141E+01 
    9.6866541174639522E+00 
    1.0670444487151331E+01 
    1.5417460975075237E+01 
    8.9321942691774954E+00 
    1.5897982429581226E+01 
    1.1087089682843391E+01 
    1.0595159507507566E+01 
    1.5582332380708142E+01 
    1.1249827652472641E+01 
    1.6451327651599726E+01 
    1.3442009579021111E+01 
    1.4504416611690218E+01 
    1.6410257936165124E+01 
    8.2975741434685730E+00 
    1.1469737370847444E+01 
    1.5581289998921747E+01 
    3.3249657762353029E+00 
    1.1197297098508894E+01 
    1.6374562855680374E+01 
    1.0625451844002200E+01 
    1.2267278820072894E+01 
    7.3191943617764608E+00 
    1.5263639095638087E+01 
    1.8666344030920136E+01 
    1.3964149822468169E+01 
    1.0625614147339776E+01 
    9.5106017766867073E+00 
    1.1880321766718239E+01 
    1.1103916314011895E+01 
    7.7076282028401915E+00 
    1.6406235188713829E+01 
    1.5622889938863420E+01 
    1.5267874291717876E+01 
    1.1797561155627257E+01 
    9.6878324343078841E+00 
    1.0940873191404863E+01 
    1.6085805432643504E+01 
    9.9606837461417275E+00 
    1.1134466438982805E+01 
    1.0140786593888391E+01 
    1.2915726853879320E+01 
    1.8654161918603624E+01 
    1.5258790519452830E+01 
    9.6897961118358999E+00 
    1.5788275422723595E+01 
    1.5692093401329167E+01 
    1.5776950408750224E+01 
    1.6847260215923988E+01 
    1.7413757699709318E+01 
    1.5933548850401158E+01 
    1.1211144096397934E+01 
    1.2106575726895054E+01 
    1.5752171993218816E+01 
    1.6201092877026245E+01 
    8.0446588543192128E+00 
    1.5289583844604058E+01 
    1.6046137223093474E+01 
    7.8320669514369543E+00 
    1.6761294345892246E+01 
    1.6740730732430283E+01 
    1.4980954011828050E+01 
    1.1554873350451818E+01 
    2.9222230216083114E+00 
    1.6375907059378857E+01 
    1.1384399001762521E+01 
    1.6504119865576609E+01 
    1.0549570398423260E+01 
    1.6198304423539444E+01 
    1.0423705557245155E+00 
    1.4519317999140860E+01 
    1.0692886696378000E+01 
    9.6387314035994489E+00 
    9.3963424096384465E+00 
    1.1056154735596339E+01 
    1.2234436032323050E+01 
    1.1580229735881659E+01 
    7.9010889451713613E+00 
    1.6195174356593817E+01 
    1.5606171087224897E+01 
    1.3086603238297226E+01 
    1.1437323773260907E+01 
    1.6938363340831999E+00 
    8.6761367861102006E+00 
    6.0572553543316223E+00 
    1.6396156148923090E+01 
    1.2369054832162938E+01 
    1.5644691267795878E+01 
    1.5677439654221141E+01 
    1.0044566283187601E+01 
    1.2950899199188106E+01 
    1.5262812250404989E+01 
    1.6722866603885237E+01 
    7.2674070250480396E+00 
    1.3811527838784176E+01 
    1.1584673148968799E+01 
    6.4534203200083331E+00 
    1.0037259153934976E+01 
    1.3618238221780768E+01 
    1.5636367262538268E+01 
    1.1108387060708765E+01 
    1.5753720657027150E+01 
    1.5504020951593306E+01 
    1.5448983487938390E+01 
    1.0946146747455050E+01 
    9.5662159398479663E+00 
    1.5276324143984818E+01 
    9.7115161642023420E+00 
    1.1192164869384484E+01 
    9.5197982527305900E+00 
    1.1081098894073232E+01 
    1.5687460865581539E+01 
    6.9773740126700643E+00 
    9.9369113026250435E+00 
    1.6306178659097217E+01 
    1.0956346174180910E+01 
    1.2267911905244164E+01 
    7.1578460060178939E+00 
    9.7788653921139517E+00 
    1.5480510936078570E+01 
    1.5813029507328256E+01 
    5.8451888549058086E+00 
    1.0965327431143965E+01 
    9.5785729377986328E+00 
    1.7169348792031421E+01 
    1.6599013543279266E+01 
    1.7442909946559574E+01 
    1.0985271779994966E+01 
    1.5658338601180803E+01 
    1.5214634952080106E+01 
    1.0849482278226334E+01 
    1.5268328170396176E+01 
    1.1438527483136600E+01 
    6.5453241675334608E+00 
    1.1275252068849325E+01 
    1.6290322469768384E+01 
    1.5264871967739765E+01 
    7.5898800685868357E+00 
    1.5297196266632902E+01 
    1.2256630613127028E+01 
    1.1176066916450235E+01 
    1.0703769726222731E+01 
    1.5118991146007188E+01 
    1.1717544088110454E+01 
    1.5282182912798973E+01 
    1.0882551956765246E+01 
    6.7925076794408401E+00 
    1.1266490233947513E+01 
    9.4088543238814211E+00 
    1.3972162145374639E+01 
    1.6502702348182293E+01 
    1.5274379728788594E+01 
    1.6367926918821752E+01 
    1.0901006753919560E+01 
    7.3905659090544411E+00 
    7.4946706689257070E+00 
    1.1369962492490369E+01 
    1.1166172195377838E+01 
    1.6210575144077715E+00 
    1.4726682167653019E+01 
    1.6881337935841987E+01 
    1.0565354459269415E+01 
    6.8196288795256397E+00 
    1.2858448457375756E+01 
    1.5295510174911524E+01 
    8.0340022915816984E+00 
    5.4731199998206721E+00 
    1.1147097567519074E+01 
    1.5375749149820656E+01 
    1.6093250774480815E+01 
    1.5969081229715108E+01 
    1.5816269917417710E+01 
    7.8942142452208843E+00 
    1.1170735164198145E+01 
    1.4782747565285824E+01 
    8.7697486020517932E+00 
    1.5618566093487589E+01 
    1.3214051681619706E+01 
    7.6074134076718360E+00 
    1.5408473388501536E+01 
    1.6400219407270303E+01 
    1.5437966320165572E+01 
    7.7355650557485722E+00 
    1.1215521799179060E+01 
    8.4907235861069879E+00 
    1.0593951653616589E+01 
    1.5286277499258020E+01 
    1.5273349408141316E+01 
    7.7802035095107946E+00 
    1.6241288552587186E+01 
    1.1779640852071159E+01 
    1.5306883905426025E+01 
    1.6210018001639288E+01 
    1.5293941610440267E+01 
    1.4231771390709600E+01 
    1.7228517769113182E+01 
    1.0513223554555282E+01 
    1.6334887310653830E+01 
    1.5335202490333824E+01 
    1.6412804486996183E+01 
    1.6234021805133647E+01 
    1.0622259863468887E+01 
    1.1052780335682138E+01 
    1.0555267131659770E+01 
    1.3675260208892283E+01 
    4.4637214239896510E+00 
    1.1302504526402393E+01 
    1.7359025415873358E+01 
    1.1441059516286858E+01 
    1.1644277970832560E+01 
    1.6384173004739893E+01 
    1.6628020226733501E+01 
    1.0426662157749199E+01 
    1.5301951356034639E+01 
    1.5269061076442453E+01 
    1.1630688780837378E+01 
    1.6186013998024450E+01 
    7.9892010598443051E+00 
    5.0993753619631255E+00 
    1.1937913986879218E+01 
    1.1455141883792807E+01 
    1.5275349988258505E+01 
    7.2842488073137988E+00 
    1.5879757906930440E+01 
    5.1865249929948201E+00 
    1.1389568604046321E+01 
    1.0646252503059618E+01 
    1.1192457588319870E+01 
    1.8706307599842244E+01 
    4.3292211374293688E+00 
    1.1215513810990918E+01 
    1.3423404841165214E+01 
    1.0797048484696349E+01 
    8.6532216084032072E+00 
    1.6003778034674557E+01 
    1.8252039868616468E+01 
    1.6164416728587835E+01 
    1.1151475249759191E+01 
    6.4149451352364686E+00 
    1.8099016229833499E+01 
    1.5595482661093349E+01 
    8.3215587411631073E+00 
    1.0787813330247488E+01 
    1.6829598351308643E+01 
    3.6864410893123560E+00 
    1.1510564597585544E+01 
    1.6136010904162241E+01 
    1.1206782314399517E+01 
    9.7776595084402942E+00 
    1.1257505476503455E+01 
    1.4999607054183430E+01 
    1.1188636113898689E+01 
    5.7103883766363204E+00 
    1.0163744401841450E+00 
    8.3764885817174779E+00 
    1.7063636202001689E+01 
    1.0554748080164178E+01 
    1.2565438595109734E+01 
    1.2033621240262873E+01 
    1.3946484959918683E+01 
    1.1220196632615192E+01 
    1.5497089859207634E+01 
    1.8720946658429018E+01 
    1.3326422221874573E+01 
    1.6305385179441348E+01 
    6.0524571850823738E-01 
    1.5275553193940228E+01 
    6.3483113441347747E+00 
    1.7534392519674988E+01 
    1.1229884261333671E+01 
    9.9584127520908279E+00 
    8.6577137238135418E+00 
    5.9874642330314858E+00 
    1.2549405053994738E+01 
    8.8758599188312637E+00 
    1.3855965134637330E+01 
    2.4554290551612596E+00 
    1.2295535629448338E+01 
    1.5201065051596133E+01 
    6.8110691028715227E+00 
    1.5784760874674191E+01 
    1.7324112060635212E+01 
    1.5612426117774580E+01 
    1.1085597606602839E+01 
    1.1186775775950352E+01 
    1.1222239267403223E+01 
    6.4862233371503404E+00 
    1.0261787116534340E+01 
    1.0089715976574896E+01 
    1.1210617284660751E+01 
    1.0478763542802156E+01 
    7.6828425795398714E-01 
    7.2913086355232242E+00 
    1.0914299685158188E+01 
    1.1183785792317332E+01 
    1.4239876783621289E+01 
    2.4225212587861162E+00 
    1.1586836559378774E+01 
    1.1461617993660239E+01 
    4.1701236742062093E+00 
    1.5464863043351139E+01 
    9.7320502939285642E+00 
    1.1319982159838167E+01 
    1.5592429151461884E+01 
    6.0132761710280986E+00 
    1.5589748081377502E+01 
    9.8592030639854009E+00 
    1.1062907579645274E+00 
    1.0622885171869349E+01 
    1.6255874055570015E+01 
    1.5275339978723746E+01 
    1.5294938507854623E+01 
    1.1584018786708794E+01 
    1.1392607705305668E+01 
    9.7078590337516513E+00 
    7.9502655117581202E+00 
    1.5711893097649584E+01 
    1.0783396271367510E+01 
    7.7290808750822473E+00 
    1.5290505012482400E+01 
    1.6040021284149731E+01 
    1.1395154749084490E+01 
    1.1003527096061839E+01 
    1.8596297466450707E+01 
    1.1631690576172877E+01 
    1.5729504305450758E+01 
    9.2343317905048483E+00 
    1.8749750533244541E+01 
    7.4513664112777400E+00 
    1.0151143813258054E+01 
    8.3439092170606486E+00 
    1.1883493264401125E+01 
    9.5578843105539857E+00 
    1.8732923746100088E+01 
    1.1684003871573493E+01 
    1.4940724092626725E+01 
    7.6625073431234902E+00 
    1.1215615471791439E+01 
    1.5558754508602638E+01 
    9.5963200998869684E+00 
    8.2454537426366912E+00 
    1.2489880003090967E+01 
    1.5796017780015680E+01 
    8.2136773693125011E+00 
    1.0669039419298766E+01 
    1.1036747064746415E+01 
    1.5248631686285181E+01 
    1.0822910234458996E+01 
    1.5774454856170172E+01 
    1.6443578016320242E+01 
    9.7393954018588449E+00 
    9.5477099420811342E+00 
    8.8987090419393944E+00 
    1.5401365462614329E+01 
    1.1483894939482241E+01 
    1.8292203267981588E+01 
    1.4344242926922645E+01 
    1.5514885792904385E+01 
    1.7968007738548433E+01 
    1.7330897109339933E+01 
    1.1262022167881359E+01 
    1.1194445132780361E+01 
    1.5013005414640386E+01 
    1.5317052957101779E+01 
    1.5898570840640948E+01 
    1.5617871527290022E+01 
    1.8618948283931068E+01 
    1.1631173535373076E+01 
    9.8497034122679725E+00 
    1.1624388173428036E+01 
    1.6350839005859761E+01 
    1.1357382441090362E+01 
    6.6527922608796093E+00 
    1.1068338118537365E+01 
    1.6796487194234089E+01 
    1.1500085706387242E+01 
    9.8618781125481600E+00 
    1.0978081873246113E+01 
    1.6913004527037518E+01 
    1.5344021159066410E+01 
    9.3942714382470225E+00 
    1.7056389032112769E+01 
    1.1290599362721387E+01 
    1.5886660019324276E+01 
    1.6926514565612333E+01 
    1.1897368872213233E+01 
    6.0221848782820437E+00 
    1.2397799094633347E+01 
    6.2304785564175571E+00 
    1.1407309405688979E+01 
    1.1210018909414359E+01 
    1.3071863331920037E+01 
    6.5901536744749905E+00 
    1.3880634657910264E+01 
    1.1227975582656768E+01 
    1.5607072168426972E+01 
    1.1947035181941422E+01 
    9.2347734464893065E+00 
    1.0843806844552280E+01 
    1.1749657989638553E+01 
    1.1744515157590715E+01 
    1.6494451838930015E+01 
    9.4110647306633712E+00 
    9.2508674504704285E+00 
    6.9342130697982327E+00 
    1.5926358207948065E+01 
    1.0888258864194230E+01 
    1.5115132701243708E+01 
    1.1179732197916458E+01 
    7.5824522364182165E+00 
    1.5375027733558975E+01 
    1.1156005950728451E+01 
    8.2539958570115708E+00 
    8.7321752130623835E+00 
    9.0353601273958724E+00 
    1.5640383208169803E+01 
    1.1212732390134684E+01 
    1.6318182096066796E+01 
    1.1116026715826971E+01 
    1.1055296152717135E+01 
    1.0582097114485089E+01 
    1.5465996979733728E+01 
    1.0971383805521093E+01 
    9.0776024928799099E+00 
    1.7319139125385821E+01 
    1.5554043082534069E+01 
    7.8046499556698308E+00 
    3.0550207380449876E+00 
    1.1201689640812898E+01 
    1.0539870859878569E+01 
    9.5347988984446985E+00 
    1.0369334712665335E+01 
    1.5498784169317148E+01 
    1.0888893370833701E+01 
    9.9088268096626866E+00 
    1.5340774721265531E+01 
    7.7367505884601355E+00 
    1.4970428132140068E+01 
    1.0171217713265847E+01 
    9.0675054698766289E+00 
    9.6270701883073944E+00 
    1.5977681103105448E+01 
    1.1195164349302672E+01 
    1.1203404616311756E+01 
    6.6712164899052082E+00 
    7.2076710882907813E+00 
    1.4203808438939589E+01 
    1.1213199786641052E+01 
    1.1243973731507474E+01 
    1.7042268683683748E+01 
    9.2549193792367035E+00 
    1.1225424386544260E+01 
    8.0024757534473689E+00 
    8.2574560075219043E+00 
    1.5458259985440844E+01 
    1.0851449456185902E+01 
    7.9418448751077291E+00 
    1.1788734618437070E+01 
    1.1108847164637881E+01 
    1.5461672983739792E+01 
    1.7139643959922580E+01 
    1.1593451552531302E+00 
    1.1206894170954936E+01 
    1.1453555718702953E+01 
    1.5532044047699179E+01 
    1.0700920558460611E+01 
    1.1168331663857780E+01 
    1.6552852823169108E+01 
    9.6675809844803648E+00 
    8.0135066813399440E+00 
    1.3470731836317666E+01 
    1.5290322805143740E+01 
    1.6410672935561131E+01 
    1.6696254389865310E+01 
    1.1039226232998688E+01 
    1.1197757154021300E+01 
    1.2593080102297744E+01 
    7.4189982435131521E+00 
    1.5431332125568066E+01 
    8.6279162982004394E+00 
    7.7236805329501861E+00 
    1.4041876648495917E+01 
    1.3238476078205782E+01 
    7.5755607221441164E+00 
    1.5328903472884395E+01 
    1.6396029300583262E+01 
    1.1648369984347793E+01 
    1.7246736927504916E+01 
    1.5365295637194233E+01 
    1.0762804450295988E+01 
    1.6113913722058999E+01 
    8.2577814423977163E+00 
    1.5310875610289768E+01 
    1.1205700614349874E+01 
    1.1165576316432064E+01 
    1.7222214306006791E+01 
    1.0926309915359472E+01 
    1.3777972413076840E+01 
    9.6118784506140624E+00 
    1.6522192841261212E+01 
    1.5208228887986731E+01 
    1.0023763241229430E+01 
    1.5263497603977745E+01 
    1.0200865226793802E+01 
    1.1176353933545503E+01 
    1.6352604701833776E+01 
    1.5614090021517464E+01 
    1.6399322188158735E+01 
    1.5535604230889549E+01 
    1.0267274415377146E+01 
    1.0499773091419335E+01 
    1.6407004376963794E+01 
    1.0635929880840591E+01 
    1.5128270799900282E+01 
    1.0912371344179506E+01 
    4.4902463256582532E+00 
    7.8041260258535168E+00 
    7.2312596753915992E+00 
    1.6356570901961273E+01 
    1.7146934329842015E+01 
    1.5283190591458943E+01 
    1.2863888541603385E+01 
    1.5598211485685338E+01 
    1.5338289797795927E+01 
    1.5976952404905953E+01 
    6.4490057791299318E+00 
    4.1839433477115291E+00 
    1.2629795310074840E+01 
    1.0870334057284110E+01 
    1.5500950144559821E+01 
    1.5498206012167737E+01 
    1.1480903481711724E+01 
    1.5538955288320345E+01 
    1.1191719993633976E+01 
    1.1114472217269302E+01 
    5.8222058609803975E+00 
    4.1722768404902038E+00 
    1.6908907372963018E+01 
    8.7693672183829303E+00 
    9.9602921234516835E+00 
    1.1369086362013881E+01 
    1.8598729882285078E+01 
    1.1463432891202183E+01 
    1.1544592357766437E+01 
    4.7501896611779646E+00 
    1.1464270437200421E+01 
    1.1479909443516176E+01 
    1.5831122424253582E+01 
    9.6345774240859505E+00 
    1.0735933933734765E+01 
    1.7087182732258974E+01 
    1.1215727089867656E+01 
    1.5300299215759019E+01 
    1.5560943523631140E+01 
    1.3718636563920935E+01 
    9.5342831795130643E+00 
    1.5535226096947111E+01 
    1.1003347412945349E+01 
    1.5481783152334582E+01 
    1.5233642562814932E+01 
    1.6377148607732369E+01 
    1.5533141399957186E+01 
    1.4557487429767161E+01 
    1.1203644983342416E+01 
    7.5183041699726934E+00 
    1.8467729951931901E+01 
    8.8021687441575889E+00 
    1.6300018063345782E+01 
    1.1200944030889568E+01 
    9.3036716682868974E+00 
    5.5845281906847859E+00 
    1.1521488535153340E+01 
    1.5520767992039897E+01 
    1.5516972140819291E+01 
    1.1156826440010574E+01 
    1.1194870253528196E+01 
    1.7304281500178561E+01 
    1.6635929651961277E+01 
    1.1483395381193830E+01 
    3.8908746965063821E+00 
    1.4462764681341046E+01 
    1.8729918411715627E+01 
    1.1207091909321676E+01 
    1.3278234155868301E+01 
    1.0700086862786966E+01 
    1.8318784579352943E+01 
    1.6721174915745951E+01 
    1.6443876835990743E+01 
    1.1506401487059804E+01 
    5.1896564184471083E+00 
    1.0654307936061969E+01 
    1.0725710173567498E+01 
    1.0766993818313617E+01 
    4.2398513247982574E+00 