# vtk DataFile Version 2.0
Pressure Field Data 
ASCII 
DATASET UNSTRUCTURED_GRID 

POINTS 2860 double 

    0.0000000000000000E+00     0.0000000000000000E+00     0.0000000000000000E+00 
    1.0000000000000000E+00     0.0000000000000000E+00     0.0000000000000000E+00 
    1.0000000000000000E+00     1.0000000000000000E+00     0.0000000000000000E+00 
    0.0000000000000000E+00     1.0000000000000000E+00     0.0000000000000000E+00 
    2.5000000000000000E-01     2.5000000000000000E-01     0.0000000000000000E+00 
    7.5000000000000000E-01     2.5000000000000000E-01     0.0000000000000000E+00 
    7.5000000000000000E-01     7.5000000000000000E-01     0.0000000000000000E+00 
    2.5000000000000000E-01     7.5000000000000000E-01     0.0000000000000000E+00 
    3.1249999999942091E-02     0.0000000000000000E+00     0.0000000000000000E+00 
    6.2499999999873469E-02     0.0000000000000000E+00     0.0000000000000000E+00 
    9.3749999999826514E-02     0.0000000000000000E+00     0.0000000000000000E+00 
    1.2499999999977961E-01     0.0000000000000000E+00     0.0000000000000000E+00 
    1.5624999999968961E-01     0.0000000000000000E+00     0.0000000000000000E+00 
    1.8749999999959971E-01     0.0000000000000000E+00     0.0000000000000000E+00 
    2.1874999999950970E-01     0.0000000000000000E+00     0.0000000000000000E+00 
    2.4999999999941969E-01     0.0000000000000000E+00     0.0000000000000000E+00 
    2.8124999999932920E-01     0.0000000000000000E+00     0.0000000000000000E+00 
    3.1249999999923850E-01     0.0000000000000000E+00     0.0000000000000000E+00 
    3.4374999999914790E-01     0.0000000000000000E+00     0.0000000000000000E+00 
    3.7499999999905720E-01     0.0000000000000000E+00     0.0000000000000000E+00 
    4.0624999999896660E-01     0.0000000000000000E+00     0.0000000000000000E+00 
    4.3749999999887590E-01     0.0000000000000000E+00     0.0000000000000000E+00 
    4.6874999999878530E-01     0.0000000000000000E+00     0.0000000000000000E+00 
    4.9999999999869471E-01     0.0000000000000000E+00     0.0000000000000000E+00 
    5.3124999999877620E-01     0.0000000000000000E+00     0.0000000000000000E+00 
    5.6249999999885780E-01     0.0000000000000000E+00     0.0000000000000000E+00 
    5.9374999999893940E-01     0.0000000000000000E+00     0.0000000000000000E+00 
    6.2499999999902101E-01     0.0000000000000000E+00     0.0000000000000000E+00 
    6.5624999999910261E-01     0.0000000000000000E+00     0.0000000000000000E+00 
    6.8749999999918421E-01     0.0000000000000000E+00     0.0000000000000000E+00 
    7.1874999999926570E-01     0.0000000000000000E+00     0.0000000000000000E+00 
    7.4999999999934730E-01     0.0000000000000000E+00     0.0000000000000000E+00 
    7.8124999999942890E-01     0.0000000000000000E+00     0.0000000000000000E+00 
    8.1249999999951039E-01     0.0000000000000000E+00     0.0000000000000000E+00 
    8.4374999999959199E-01     0.0000000000000000E+00     0.0000000000000000E+00 
    8.7499999999967359E-01     0.0000000000000000E+00     0.0000000000000000E+00 
    9.0624999999975520E-01     0.0000000000000000E+00     0.0000000000000000E+00 
    9.3749999999983680E-01     0.0000000000000000E+00     0.0000000000000000E+00 
    9.6874999999991840E-01     0.0000000000000000E+00     0.0000000000000000E+00 
    1.0000000000000000E+00     3.1249999999942091E-02     0.0000000000000000E+00 
    1.0000000000000000E+00     6.2499999999873469E-02     0.0000000000000000E+00 
    1.0000000000000000E+00     9.3749999999826514E-02     0.0000000000000000E+00 
    1.0000000000000000E+00     1.2499999999977961E-01     0.0000000000000000E+00 
    1.0000000000000000E+00     1.5624999999968961E-01     0.0000000000000000E+00 
    1.0000000000000000E+00     1.8749999999959971E-01     0.0000000000000000E+00 
    1.0000000000000000E+00     2.1874999999950970E-01     0.0000000000000000E+00 
    1.0000000000000000E+00     2.4999999999941969E-01     0.0000000000000000E+00 
    1.0000000000000000E+00     2.8124999999932920E-01     0.0000000000000000E+00 
    1.0000000000000000E+00     3.1249999999923850E-01     0.0000000000000000E+00 
    1.0000000000000000E+00     3.4374999999914790E-01     0.0000000000000000E+00 
    1.0000000000000000E+00     3.7499999999905720E-01     0.0000000000000000E+00 
    1.0000000000000000E+00     4.0624999999896660E-01     0.0000000000000000E+00 
    1.0000000000000000E+00     4.3749999999887590E-01     0.0000000000000000E+00 
    1.0000000000000000E+00     4.6874999999878530E-01     0.0000000000000000E+00 
    1.0000000000000000E+00     4.9999999999869471E-01     0.0000000000000000E+00 
    1.0000000000000000E+00     5.3124999999877620E-01     0.0000000000000000E+00 
    1.0000000000000000E+00     5.6249999999885780E-01     0.0000000000000000E+00 
    1.0000000000000000E+00     5.9374999999893940E-01     0.0000000000000000E+00 
    1.0000000000000000E+00     6.2499999999902101E-01     0.0000000000000000E+00 
    1.0000000000000000E+00     6.5624999999910261E-01     0.0000000000000000E+00 
    1.0000000000000000E+00     6.8749999999918421E-01     0.0000000000000000E+00 
    1.0000000000000000E+00     7.1874999999926570E-01     0.0000000000000000E+00 
    1.0000000000000000E+00     7.4999999999934730E-01     0.0000000000000000E+00 
    1.0000000000000000E+00     7.8124999999942890E-01     0.0000000000000000E+00 
    1.0000000000000000E+00     8.1249999999951039E-01     0.0000000000000000E+00 
    1.0000000000000000E+00     8.4374999999959199E-01     0.0000000000000000E+00 
    1.0000000000000000E+00     8.7499999999967359E-01     0.0000000000000000E+00 
    1.0000000000000000E+00     9.0624999999975520E-01     0.0000000000000000E+00 
    1.0000000000000000E+00     9.3749999999983680E-01     0.0000000000000000E+00 
    1.0000000000000000E+00     9.6874999999991840E-01     0.0000000000000000E+00 
    9.6875000000003686E-01     1.0000000000000000E+00     0.0000000000000000E+00 
    9.3750000000011691E-01     1.0000000000000000E+00     0.0000000000000000E+00 
    9.0625000000015765E-01     1.0000000000000000E+00     0.0000000000000000E+00 
    8.7500000000017863E-01     1.0000000000000000E+00     0.0000000000000000E+00 
    8.4375000000028044E-01     1.0000000000000000E+00     0.0000000000000000E+00 
    8.1250000000040856E-01     1.0000000000000000E+00     0.0000000000000000E+00 
    7.8125000000054956E-01     1.0000000000000000E+00     0.0000000000000000E+00 
    7.5000000000066480E-01     1.0000000000000000E+00     0.0000000000000000E+00 
    7.1875000000086831E-01     1.0000000000000000E+00     0.0000000000000000E+00 
    6.8750000000102829E-01     1.0000000000000000E+00     0.0000000000000000E+00 
    6.5625000000114431E-01     1.0000000000000000E+00     0.0000000000000000E+00 
    6.2500000000129829E-01     1.0000000000000000E+00     0.0000000000000000E+00 
    5.9375000000147926E-01     1.0000000000000000E+00     0.0000000000000000E+00 
    5.6250000000168354E-01     1.0000000000000000E+00     0.0000000000000000E+00 
    5.3125000000188671E-01     1.0000000000000000E+00     0.0000000000000000E+00 
    5.0000000000205835E-01     1.0000000000000000E+00     0.0000000000000000E+00 
    4.6875000000192979E-01     1.0000000000000000E+00     0.0000000000000000E+00 
    4.3750000000180111E-01     1.0000000000000000E+00     0.0000000000000000E+00 
    4.0625000000167238E-01     1.0000000000000000E+00     0.0000000000000000E+00 
    3.7500000000154382E-01     1.0000000000000000E+00     0.0000000000000000E+00 
    3.4375000000141509E-01     1.0000000000000000E+00     0.0000000000000000E+00 
    3.1250000000128642E-01     1.0000000000000000E+00     0.0000000000000000E+00 
    2.8125000000115769E-01     1.0000000000000000E+00     0.0000000000000000E+00 
    2.5000000000102918E-01     1.0000000000000000E+00     0.0000000000000000E+00 
    2.1875000000090050E-01     1.0000000000000000E+00     0.0000000000000000E+00 
    1.8750000000077180E-01     1.0000000000000000E+00     0.0000000000000000E+00 
    1.5625000000064329E-01     1.0000000000000000E+00     0.0000000000000000E+00 
    1.2500000000051459E-01     1.0000000000000000E+00     0.0000000000000000E+00 
    9.3750000000385914E-02     1.0000000000000000E+00     0.0000000000000000E+00 
    6.2500000000257239E-02     1.0000000000000000E+00     0.0000000000000000E+00 
    3.1250000000128557E-02     1.0000000000000000E+00     0.0000000000000000E+00 
    0.0000000000000000E+00     9.6875000000003686E-01     0.0000000000000000E+00 
    0.0000000000000000E+00     9.3750000000011691E-01     0.0000000000000000E+00 
    0.0000000000000000E+00     9.0625000000015765E-01     0.0000000000000000E+00 
    0.0000000000000000E+00     8.7500000000017863E-01     0.0000000000000000E+00 
    0.0000000000000000E+00     8.4375000000028044E-01     0.0000000000000000E+00 
    0.0000000000000000E+00     8.1250000000040856E-01     0.0000000000000000E+00 
    0.0000000000000000E+00     7.8125000000054956E-01     0.0000000000000000E+00 
    0.0000000000000000E+00     7.5000000000066480E-01     0.0000000000000000E+00 
    0.0000000000000000E+00     7.1875000000086831E-01     0.0000000000000000E+00 
    0.0000000000000000E+00     6.8750000000102829E-01     0.0000000000000000E+00 
    0.0000000000000000E+00     6.5625000000114431E-01     0.0000000000000000E+00 
    0.0000000000000000E+00     6.2500000000129829E-01     0.0000000000000000E+00 
    0.0000000000000000E+00     5.9375000000147926E-01     0.0000000000000000E+00 
    0.0000000000000000E+00     5.6250000000168354E-01     0.0000000000000000E+00 
    0.0000000000000000E+00     5.3125000000188671E-01     0.0000000000000000E+00 
    0.0000000000000000E+00     5.0000000000205835E-01     0.0000000000000000E+00 
    0.0000000000000000E+00     4.6875000000192979E-01     0.0000000000000000E+00 
    0.0000000000000000E+00     4.3750000000180111E-01     0.0000000000000000E+00 
    0.0000000000000000E+00     4.0625000000167238E-01     0.0000000000000000E+00 
[...]
CELL_DATA 2795 
SCALARS Pressure double 1 
LOOKUP_TABLE default 

    8.8519902718913368E+00 
    1.9863908610872826E+01 
    1.3937666485978266E+01 
    1.3634854307214340E+01 
    1.0896816884232948E+01 
    1.9604235814266207E+01 
    2.0618175704998471E+01 
    7.8955791336848282E+00 
    1.4514424695319057E+01 
    1.1055246296832973E+01 
    9.3286158525672533E+00 
    1.9232741478504767E+01 
    1.9750449934525250E+01 
    1.9558269566560831E+01 
    1.2843235310589373E+01 
    7.7600679262787082E+00 
    1.2584605790840914E+01 
    9.9731012767584790E+00 
    1.8602403281996953E+01 
    1.3913659469862827E+01 
    1.3806735743782813E+01 
    1.9460641414781772E+01 
    1.3283268859819545E+01 
    5.3491847868993136E-01 
    1.9191316481038847E+01 
    1.9701975698075849E+01 
    2.0660426410323506E+01 
    8.9761010499365081E+00 
    1.9101784362402885E+01 
    2.0664671693012480E+01 
    1.4166395172975745E+01 
    1.4121330355560710E+01 
    9.7753055980998091E+00 
    1.3899702979045486E+01 
    4.5738760875761137E+00 
    1.2590643502023417E+01 
    1.3882520988402133E+01 
    2.0715768381690893E+01 
    2.0587331072350302E+01 
    1.9251221434858323E+01 
    1.0745270333963791E+01 
    1.9285853015200900E+01 
    1.1092329797781801E+00 
    1.3925917959430560E+01 
    2.0401630112839861E+01 
    2.0019196503266340E+01 
    1.9217136332900683E+01 
    1.4942757392393986E+01 
    1.9247838355880784E+01 
    1.2870912328347242E+01 
    1.2272677206316290E+01 
    1.4081740870325136E+01 
    1.3810283937742835E+01 
    1.2661975869703181E+01 
    1.4250292262268333E+01 
    1.8272245838223430E+01 
    1.6193967939813213E+01 
    1.0954272637889781E+01 
    1.9472022479203911E+01 
    1.9348175283668283E+01 
    1.3585209906452427E+01 
    1.3401439757659567E+01 
    1.3510234915325327E+01 
    2.0536707936495873E+01 
    2.0899101325471332E+01 
    1.2602490744538965E+01 
    1.4079627874264467E+01 
    1.8867317144301580E+01 
    1.6004279698277870E+01 
    1.3486285796720964E+01 
    2.0863006985999707E+01 
    1.9456044400826691E+01 
    1.2429998737299119E+01 
    2.0147978846480019E+01 
    1.4539524005945546E+01 
    1.9033154837020021E+01 
    2.0735521004993274E+01 
    1.4603102412189140E+01 
    8.9233168997668475E+00 
    1.4099665876747675E+01 
    2.0599159313310338E+01 
    2.0915156051776179E+01 
    1.2622301798567333E+01 
    1.4025764690280923E+01 
    2.0971828258226253E+01 
    1.3878768101328216E+01 
    1.3398718968109236E+01 
    1.6572954090406977E+01 
    8.5715032293892044E+00 
    1.2308179089655797E+01 
    1.4021514422030473E+01 
    1.4678839738949844E+01 
    2.2729871631820931E+01 
    1.0589989651935332E+01 
    1.4088242262341248E+01 
    1.9185488588249854E+01 
    1.9671171460608932E+01 
    9.3058351171450759E+00 
    1.3724931362065522E+01 
    1.4058767479907219E+01 
    1.9708678918407383E+01 
    1.4043109344700925E+01 
    1.9579382329222902E+01 
    5.6314661046135202E+00 
    9.0621581575283106E+00 
    1.4328182866826047E+01 
    1.9874079709361418E+01 
    1.2545333249398967E+01 
    1.3287306708013167E+01 
    1.4014161339006241E+01 
    1.3354217276053788E+01 
    1.5748360430981375E+01 
    1.2944340405730127E+01 
    1.2439250571640155E+01 
    9.7092294913686494E+00 
    1.6639605821516163E+01 
    1.4127722424549445E+01 
    2.0426280185847514E+01 
    1.2055152509532764E+01 
    1.3608628401627277E+01 
    1.9465560640892072E+01 
    1.1377370405216364E+01 
    2.0084639218670606E+01 
    1.3953237164581830E+01 
    1.3522062099728940E+01 
    1.9677834976261380E+01 
    1.4113303287717647E+01 
    2.0741545185464553E+01 
    1.6603903536659828E+01 
    1.8004373928450260E+01 
    2.0682675088030582E+01 
    1.0609446566176629E+01 
    1.4350278333680400E+01 
    1.9680964505949735E+01 
    4.2071445738368407E+00 
    1.4223980237991389E+01 
    2.0637359725891688E+01 
    1.3555242004811344E+01 
    1.5478059577689050E+01 
    9.1598389591903722E+00 
    1.9190072306438768E+01 
    2.3289518354662803E+01 
    1.7256804737860687E+01 
    1.3558616285113482E+01 
    1.2163204592223668E+01 
    1.5040754159012169E+01 
    1.3971166352146014E+01 
    9.4423298107091966E+00 
    2.0683135314294777E+01 
    1.9632793848919821E+01 
    1.9188549100408292E+01 
    1.4674661754122853E+01 
    1.2387984225700624E+01 
    1.3800639016509653E+01 
    2.0181535948773334E+01 
    1.2737387517945548E+01 
    1.4126757248662560E+01 
    1.2960696549159012E+01 
    1.6362860406771901E+01 
    2.3276115320231014E+01 
    1.9172604370867155E+01 
    1.2198740591494920E+01 
    1.9949940705040625E+01 
    1.9820714654435232E+01 
    1.9925576842862974E+01 
    2.1228556953536419E+01 
    2.1889246909036732E+01 
    1.9985621074022358E+01 
    1.4070436592151129E+01 
    1.5240773028881696E+01 
    1.9750244560701049E+01 
    2.0420376941999141E+01 
    9.8996561388724320E+00 
    1.9214175016700736E+01 
    2.0121892654284991E+01 
    9.6142271686046072E+00 
    2.1144358140065489E+01 
    2.1099137131050043E+01 
    1.8710468008237058E+01 
    1.4429640510859597E+01 
    3.7239958406815035E+00 
    2.0644749204264944E+01 
    1.4260232907927344E+01 
    2.0819174803746982E+01 
    1.3463759045937906E+01 
    2.0359184047400600E+01 
    1.3894844376637945E+00 
    1.8003552944535535E+01 
    1.3457591017601366E+01 
    1.2334285178676344E+01 
    1.2020716170101233E+01 
    1.3918147994404071E+01 
    1.5269117170957998E+01 
    1.4676077298590807E+01 
    9.8073970032817321E+00 
    2.0425736780410180E+01 
    1.9713205128472495E+01 
    1.6154638040650688E+01 
    1.4318123858535646E+01 
    2.1371023036748578E+00 
    1.1100659423755200E+01 
    7.6651548307935329E+00 
    2.0680085462851370E+01 
    1.5624069294842396E+01 
    1.9642762689312303E+01 
    1.9803191683226057E+01 
    1.2837584817799138E+01 
    1.6292334574368503E+01 
    1.9171867832858986E+01 
    2.1079818944903728E+01 
    9.1625471160967482E+00 
    1.7370721882949240E+01 
    1.4627186742398194E+01 
    8.1580977293451102E+00 
    1.2832586641759182E+01 
    1.7016141722038505E+01 
    1.9750937561659907E+01 
    1.3970783775636754E+01 
    1.9897473375110831E+01 
    1.9582849956491071E+01 
    1.9513900738321354E+01 
    1.3803253336397990E+01 
    1.2219009201631820E+01 
    1.9201003693909449E+01 
    1.2419074932791576E+01 
    1.4054525751456017E+01 
    1.2180750149362551E+01 
    1.4079401061168511E+01 
    1.9816734769161538E+01 
    8.5325431704182382E+00 
    1.2708740273587141E+01 
    2.0563160285129129E+01 
    1.3808825703552380E+01 
    1.5495457477576004E+01 
    8.7429938371345823E+00 
    1.2510095575377866E+01 
    1.9551876306041308E+01 
    1.9970724681397758E+01 
    7.1868955879210175E+00 
    1.3827906878145185E+01 
    1.2220168449829659E+01 
    2.1608453443681746E+01 
    2.0928209429353966E+01 
    2.1926641634990954E+01 
    1.3848888074356493E+01 
    1.9778631290959733E+01 
    1.9078543081101799E+01 
    1.3683219506915345E+01 
    1.9187644445963720E+01 
    1.4318648017644469E+01 
    8.2271909795445861E+00 
    1.4285990131867383E+01 
    2.0552240950074054E+01 
    1.9182146601726632E+01 
    9.2851951912300983E+00 
    1.9226225346251784E+01 
    1.5303738062483495E+01 
    1.4197912998599868E+01 
    1.3644746753733520E+01 
    1.8943379676699113E+01 
    1.4840992349913655E+01 
    1.9207936060225780E+01 
    1.3849962866123667E+01 
    8.4565205165873270E+00 
    1.4140735015567973E+01 
    1.2030454470447827E+01 
    1.7285805106904967E+01 
    2.0802159291516730E+01 
    1.9200196124758182E+01 
    2.0629393141468061E+01 
    1.3739289055429021E+01 
    9.0226166509337755E+00 
    9.1562504400783524E+00 
    1.4429471150122820E+01 
    1.4021121966319814E+01 
    2.1374527202005273E+00 
    1.8305389012137077E+01 
    2.1278299825976013E+01 
    1.3485490656432891E+01 
    8.6239627545404520E+00 
    1.6158926852464379E+01 
    1.9220431949256479E+01 
    1.0253284682495396E+01 
    6.9438518153024908E+00 
    1.4009139725098445E+01 
    1.9331117256054185E+01 
    2.0311230150858549E+01 
    2.0025321821591088E+01 
    1.9973639653052384E+01 
    9.9580116521635134E+00 
    1.4192651415072762E+01 
    1.8634142389918640E+01 
    1.0837646100715180E+01 
    1.9731321530473164E+01 
    1.6584259374340526E+01 
    9.3026364580873739E+00 
    1.9320133908964504E+01 
    2.0707670097111823E+01 
    1.9417596324087889E+01 
    9.8802066137333462E+00 
    1.4075218659994956E+01 
    1.0863858697406190E+01 
    1.3257111570388274E+01 
    1.9211025543608212E+01 
    1.9193835895878074E+01 
    9.9368806693518419E+00 
    2.0423217669171986E+01 
    1.4729606818421003E+01 
    1.9248173948362766E+01 
    2.0463535715751281E+01 
    1.9226789189187482E+01 
    1.7591050518057365E+01 
    2.1685480660312713E+01 
    1.3413848869744347E+01 
    2.0587186659649657E+01 
    1.9277388183668325E+01 
    2.0687647775006340E+01 
    2.0417374124022405E+01 
    1.3546598458956607E+01 
    1.3924651867278861E+01 
    1.3474018952658557E+01 
    1.6871597656864711E+01 
    5.6583363719892121E+00 
    1.4349698400055427E+01 
    2.1832600653176122E+01 
    1.4324512627735709E+01 
    1.4566958710922934E+01 
    2.0651734224294504E+01 
    2.0943776688260360E+01 
    1.3284464715326177E+01 
    1.9231711072820374E+01 
    1.9190730813472292E+01 
    1.4550583686066181E+01 
    2.0354382051392943E+01 
    9.8327869071644542E+00 
    6.2830629289759266E+00 
    1.4919496064090289E+01 
    1.4339360548696925E+01 
    1.9187191656871978E+01 
    9.2844061458464395E+00 
    1.9929673891165482E+01 
    6.4215810158540672E+00 
    1.4267210845128265E+01 
    1.3553051402485814E+01 
    1.4049971572211035E+01 
    2.3331537876255528E+01 
    5.4894126178319445E+00 
    1.4245551306756672E+01 
    1.6960771705297613E+01 
    1.3614417081623643E+01 
    1.0817897244379408E+01 
    2.0158906048999263E+01 
    2.2829922067345102E+01 
    2.0332922545338025E+01 
    1.4168031746470934E+01 
    8.1306954038065662E+00 
    2.2662465255008510E+01 
    1.9699136328841590E+01 
    1.0223946858462789E+01 
    1.3745506447748594E+01 
    2.1206163758292242E+01 
    4.6749879009303443E+00 
    1.4406758917006156E+01 
    2.0381032864476307E+01 
    1.4068133481381595E+01 
    1.2175252689198576E+01 
    1.4295756420518510E+01 
    1.8703016750815674E+01 
    1.4049571779449128E+01 
    7.2402523208215968E+00 
    1.3771521004808445E+00 
    1.0348079596965750E+01 
    2.1497057538229704E+01 
    1.3472984435613487E+01 
    1.5859290145015745E+01 
    1.5226416954810221E+01 
    1.7370078347569603E+01 
    1.4082921321285719E+01 
    1.9570131686132793E+01 
    2.3347275224100425E+01 
    1.6465561177656003E+01 
    2.0549467470157161E+01 
    8.0214590689843834E-01 
    1.9195690886561319E+01 
    7.9366890678297821E+00 
    2.2030738883766070E+01 
    1.4262750678699597E+01 
    1.2476796199770071E+01 
    1.1080089213135253E+01 
    7.6094410759838640E+00 
    1.5523378511011570E+01 
    1.1016158368487087E+01 
    1.7140796148820023E+01 
    3.1477994394705595E+00 
    1.5352735243197964E+01 
    1.9064794315689557E+01 
    8.3238036055814586E+00 
    1.9800888000238594E+01 
    2.1764170166414175E+01 
    1.9634358835762555E+01 
    1.4088041587795251E+01 
    1.4042612418406662E+01 
    1.4253595414216157E+01 
    8.2485931941250499E+00 
    1.3110914172924911E+01 
    1.2897705151865971E+01 
    1.4239684978050342E+01 
    1.3381389538625054E+01 
    1.0328896234300031E+00 
    9.0551573149017042E+00 
    1.3884284807718423E+01 
    1.4207231248495280E+01 
    1.7629153240953837E+01 
    3.0688203299294878E+00 
    1.4498050719218156E+01 
    1.4348488942427515E+01 
    5.2843908626232281E+00 
    1.9443812109516021E+01 
    1.2443844763286302E+01 
    1.4190497284220211E+01 
    1.9697192164715986E+01 
    7.6355693408416068E+00 
    1.9581545845409934E+01 
    1.2610122229852204E+01 
    1.3947662284350828E+00 
    1.3554310338027264E+01 
    2.0476628239603489E+01 
    1.9198573712675120E+01 
    1.9226691417610269E+01 
    1.4686974875880905E+01 
    1.4270400149073279E+01 
    1.2421951510810697E+01 
    9.8270490599554474E+00 
    1.9856457248243636E+01 
    1.3738286344272803E+01 
    9.5073722245758017E+00 
    1.9219198492098670E+01 
    2.0172295743559868E+01 
    1.4459115546816179E+01 
    1.3862864759106593E+01 
    2.3210320681812217E+01 
    1.4551846448685229E+01 
    1.9871375454036606E+01 
    1.1797265266692289E+01 
    2.3376927168820249E+01 
    9.1048214819912570E+00 
    1.2945327201034628E+01 
    1.0321055072726892E+01 
    1.4855212649084136E+01 
    1.1952475019897884E+01 
    2.3359098130467771E+01 
    1.4614788301781374E+01 
    1.8707608570682524E+01 
    9.3816323481284769E+00 
    1.4075905712183873E+01 
    1.9652723788416711E+01 
    1.2018811697304750E+01 
    1.0259739754994676E+01 
    1.5790864499470306E+01 
    1.9881037080281239E+01 
    1.0100661632697623E+01 
    1.3582065252170173E+01 
    1.3907339625287621E+01 
    1.9158538174252445E+01 
    1.3637120666948595E+01 
    1.9922392652496747E+01 
    2.0726046247373194E+01 
    1.2455392548204655E+01 
    1.2207747425955546E+01 
    1.1009099265853228E+01 
    1.9361104677577817E+01 
    1.4373674685667066E+01 
    2.2874113020692338E+01 
    1.7820382918974659E+01 
    1.9594595900304217E+01 
    2.2514914290313548E+01 
    2.1770907080271833E+01 
    1.4127515898790111E+01 
    1.4220171657105890E+01 
    1.8723060333345153E+01 
    1.9252118063135807E+01 
    2.0093195662153466E+01 
    1.9728756623935247E+01 
    2.3237876949277094E+01 
    1.4551212310461763E+01 
    1.2602081171947836E+01 
    1.4520871083983808E+01 
    2.0607632848725704E+01 
    1.4231370180182525E+01 
    8.1584385783042794E+00 
    1.4067159388760029E+01 
    2.1171216085057097E+01 
    1.4393990558216190E+01 
    1.2613421118912093E+01 
    1.3844242014447264E+01 
    2.1308496680203380E+01 
    1.9380828122196025E+01 
    1.1914424767243297E+01 
    2.1475547804308913E+01 
    1.4158451005840222E+01 
    2.0061246951009096E+01 
    2.1321723463607899E+01 
    1.4995131112950114E+01 
    7.6505729425258187E+00 
    1.5572989185435729E+01 
    7.9055262379185596E+00 
    1.4286125366970879E+01 
    1.4074224466295306E+01 
    1.6377049525013863E+01 
    8.3606621350790942E+00 
    1.7403185637863093E+01 
    1.4090387315799566E+01 
    1.9714254442140646E+01 
    1.5160860427992779E+01 
    1.1524657527565338E+01 
    1.3678795419989923E+01 
    1.4881664928064136E+01 
    1.4686909531982259E+01 
    2.0815476679885901E+01 
    1.2044455889721489E+01 
    1.1837697437861436E+01 
    8.7853857246443692E+00 
    2.0126120870310640E+01 
    1.3733492418274446E+01 
    1.9047676341644312E+01 
    1.4039808633466917E+01 
    9.6065224267505673E+00 
    1.9400585368905308E+01 
    1.4015669799863568E+01 
    1.0495818536180160E+01 
    1.1141977717298719E+01 
    1.1546665324056111E+01 
    1.9759382045545404E+01 
    1.4242224405538082E+01 
    2.0565299477877474E+01 
    1.3974679095521580E+01 
    1.3910192625134105E+01 
    1.3478045085070049E+01 
    1.9526047945472531E+01 
    1.3814420294315864E+01 
    1.1612613353844674E+01 
    2.1760238104036549E+01 
    1.9644337327149216E+01 
    9.5763090697736537E+00 
    3.8643526295016195E+00 
    1.4229083519795557E+01 
    1.3270661411184928E+01 
    1.2203052924786517E+01 
    1.3217717322107148E+01 
    1.9492486682347042E+01 
    1.3850918128860787E+01 
    1.2659697976823248E+01 
    1.9285008392162396E+01 
    9.4756338572645031E+00 
    1.8669271579399052E+01 
    1.2749680471315155E+01 
    1.1413675084258754E+01 
    1.2320884770023856E+01 
    2.0172786713602612E+01 
    1.4052409636637531E+01 
    1.4062015225212710E+01 
    8.4914785593927302E+00 
    9.1894549535342449E+00 
    1.7711139235155358E+01 
    1.4072945681803812E+01 
    1.4279494938057285E+01 
    2.1462998252878396E+01 
    1.1836373177763448E+01 
    1.4086447294240022E+01 
    9.8388252816947119E+00 
    1.0181655094424595E+01 
    1.9470787227352442E+01 
    1.3663371735536154E+01 
    1.0144386455846496E+01 
    1.4678146430174564E+01 
    1.3979461812314533E+01 
    1.9493242467992893E+01 
    2.1575888532958874E+01 
    1.4763531812846309E+00 
    1.4235308559434509E+01 
    1.4338012529377302E+01 
    1.9615807697684986E+01 
    1.3644082630099495E+01 
    1.4020874969792711E+01 
    2.0893057910962444E+01 
    1.2367726760618446E+01 
    1.0233891127421009E+01 
    1.6733970261086093E+01 
    1.9218235973461319E+01 
    2.0681604971351742E+01 
    2.1044149930256712E+01 
    1.4034360540074848E+01 
    1.4224220864750167E+01 
    1.5588482757675143E+01 
    9.0611334459777613E+00 
    1.9406951217587793E+01 
    1.1039174245821709E+01 
    9.4643277376460642E+00 
    1.7380247499787536E+01 
    1.6336672573383655E+01 
    9.2644019348034874E+00 
    1.9269382107476495E+01 
    2.0664471427248039E+01 
    1.4571891304692814E+01 
    2.1701327570480938E+01 
    1.9316762317464740E+01 
    1.3710196517374662E+01 
    2.0268312741910680E+01 
    1.0196821932005664E+01 
    1.9242777522823133E+01 
    1.4233833681782793E+01 
    1.4186493294756541E+01 
    2.1677365217022032E+01 
    1.3785171206332876E+01 
    1.7000329649224192E+01 
    1.2291733067237818E+01 
    2.0823977227041489E+01 
    1.9084984264852846E+01 
    1.2814572663504881E+01 
    1.9187362155586591E+01 
    1.2836058025521808E+01 
    1.4026939385490378E+01 
    2.0609682507911639E+01 
    1.9726325116914204E+01 
    2.0668158586623864E+01 
    1.9619660566509932E+01 
    1.3120986060349273E+01 
    1.3391140013465900E+01 
    2.0679070252860651E+01 
    1.3556811129347302E+01 
    1.8912813872019829E+01 
    1.3760365931169515E+01 
    5.7053105753674922E+00 
    9.5592472195350577E+00 
    8.8408227000389292E+00 
    2.0614961389101452E+01 
    2.1586390846832856E+01 
    1.9210624904329102E+01 
    1.6029343761946798E+01 
    1.9610171359138832E+01 
    1.9280949774245808E+01 
    2.0124049811255247E+01 
    8.1913252287643221E+00 
    5.3127074377732564E+00 
    1.5738202189698839E+01 
    1.3838312322959254E+01 
    1.9500481250726082E+01 
    1.9496773982287714E+01 
    1.4359958815473687E+01 
    1.9551116479826788E+01 
    1.4216943801559363E+01 
    1.4117385482321568E+01 
    7.3925608743930953E+00 
    5.2856359810590510E+00 
    2.1302195323072180E+01 
    1.0884335076190661E+01 
    1.2736217235421805E+01 
    1.4244542611909029E+01 
    2.3214567314733443E+01 
    1.4349268285355139E+01 
    1.4605924335292121E+01 
    6.0080846537360211E+00 
    1.4349082614985496E+01 
    1.4365340614719846E+01 
    1.9844708204124004E+01 
    1.2329573968053397E+01 
    1.3491667909353264E+01 
    2.1513827254567083E+01 
    1.4245854723167650E+01 
    1.9232810137512203E+01 
    1.9537161097630953E+01 
    1.7092485816343569E+01 
    1.1914782296995643E+01 
    1.9617681132821826E+01 
    1.3995905883775384E+01 
    1.9455105850892718E+01 
    1.9134748846563948E+01 
    2.0641001523695788E+01 
    1.9618954713329899E+01 
    1.8038572167895289E+01 
    1.4231346180676956E+01 
    9.1916084685674999E+00 
    2.3071562745493420E+01 
    1.1267982058362627E+01 
    2.0559859480338808E+01 
    1.4228133958432249E+01 
    1.1912746484308210E+01 
    6.9438077723405449E+00 
    1.4407799991329762E+01 
    1.9599867212378111E+01 
    1.9584503915614935E+01 
    1.4004283894951364E+01 
    1.4220924609395473E+01 
    2.1761601740511452E+01 
    2.0970691095372395E+01 
    1.4372606331917476E+01 
    4.9493936352276489E+00 
    1.7918027563864701E+01 
    2.3354486774838115E+01 
    1.4235447620926323E+01 
    1.6537983110901806E+01 
    1.3643696153752641E+01 
    2.2905948819884483E+01 
    2.1074159913662079E+01 
    2.0760129761860117E+01 
    1.4398815830974661E+01 
    6.4791943890618038E+00 
    1.3591898672030936E+01 
    1.3672342139064869E+01 
    1.3719669802956034E+01 
    5.3990516352134863E+00 