# vtk DataFile Version 2.0
Pressure Field Data 
ASCII 
DATASET UNSTRUCTURED_GRID 

POINTS 2860 double 

    0.0000000000000000E+00     0.0000000000000000E+00     0.0000000000000000E+00 
    1.0000000000000000E+00     0.0000000000000000E+00     0.0000000000000000E+00 
    1.0000000000000000E+00     1.0000000000000000E+00     0.0000000000000000E+00 
    0.0000000000000000E+00     1.0000000000000000E+00     0.0000000000000000E+00 
    2.5000000000000000E-01     2.5000000000000000E-01     0.0000000000000000E+00 
    7.5000000000000000E-01     2.5000000000000000E-01     0.0000000000000000E+00 
    7.5000000000000000E-01     7.5000000000000000E-01     0.0000000000000000E+00 
    2.5000000000000000E-01     7.5000000000000000E-01     0.0000000000000000E+00 
    3.1249999999942091E-02     0.0000000000000000E+00     0.0000000000000000E+00 
    6.2499999999873469E-02     0.0000000000000000E+00     0.0000000000000000E+00 
    9.3749999999826514E-02     0.0000000000000000E+00     0.0000000000000000E+00 
    1.2499999999977961E-01     0.0000000000000000E+00     0.0000000000000000E+00 
    1.5624999999968961E-01     0.0000000000000000E+00     0.0000000000000000E+00 
    1.8749999999959971E-01     0.0000000000000000E+00     0.0000000000000000E+00 
    2.1874999999950970E-01     0.0000000000000000E+00     0.0000000000000000E+00 
    2.4999999999941969E-01     0.0000000000000000E+00     0.0000000000000000E+00 
    2.8124999999932920E-01     0.0000000000000000E+00     0.0000000000000000E+00 
    3.1249999999923850E-01     0.0000000000000000E+00     0.0000000000000000E+00 
    3.4374999999914790E-01     0.0000000000000000E+00     0.0000000000000000E+00 
    3.7499999999905720E-01     0.0000000000000000E+00     0.0000000000000000E+00 
    4.0624999999896660E-01     0.0000000000000000E+00     0.0000000000000000E+00 
    4.3749999999887590E-01     0.0000000000000000E+00     0.0000000000000000E+00 
    4.6874999999878530E-01     0.0000000000000000E+00     0.0000000000000000E+00 
    4.9999999999869471E-01     0.0000000000000000E+00     0.0000000000000000E+00 
    5.3124999999877620E-01     0.0000000000000000E+00     0.0000000000000000E+00 
    5.6249999999885780E-01     0.0000000000000000E+00     0.0000000000000000E+00 
    5.9374999999893940E-01     0.0000000000000000E+00     0.0000000000000000E+00 
    6.2499999999902101E-01     0.0000000000000000E+00     0.0000000000000000E+00 
    6.5624999999910261E-01     0.0000000000000000E+00     0.0000000000000000E+00 
    6.8749999999918421E-01     0.0000000000000000E+00     0.0000000000000000E+00 
    7.1874999999926570E-01     0.0000000000000000E+00     0.0000000000000000E+00 
    7.4999999999934730E-01     0.0000000000000000E+00     0.0000000000000000E+00 
    7.8124999999942890E-01     0.0000000000000000E+00     0.0000000000000000E+00 
    8.1249999999951039E-01     0.0000000000000000E+00     0.0000000000000000E+00 
    8.4374999999959199E-01     0.0000000000000000E+00     0.0000000000000000E+00 
    8.7499999999967359E-01     0.0000000000000000E+00     0.0000000000000000E+00 
    9.0624999999975520E-01     0.0000000000000000E+00     0.0000000000000000E+00 
    9.3749999999983680E-01     0.0000000000000000E+00     0.0000000000000000E+00 
    9.6874999999991840E-01     0.0000000000000000E+00     0.0000000000000000E+00 
    1.0000000000000000E+00     3.1249999999942091E-02     0.0000000000000000E+00 
    1.0000000000000000E+00     6.2499999999873469E-02     0.0000000000000000E+00 
    1.0000000000000000E+00     9.3749999999826514E-02     0.0000000000000000E+00 
    1.0000000000000000E+00     1.2499999999977961E-01     0.0000000000000000E+00 
    1.0000000000000000E+00     1.5624999999968961E-01     0.0000000000000000E+00 
    1.0000000000000000E+00     1.8749999999959971E-01     0.0000000000000000E+00 
    1.0000000000000000E+00     2.1874999999950970E-01     0.0000000000000000E+00 
    1.0000000000000000E+00     2.4999999999941969E-01     0.0000000000000000E+00 
    1.0000000000000000E+00     2.8124999999932920E-01     0.0000000000000000E+00 
    1.0000000000000000E+00     3.1249999999923850E-01     0.0000000000000000E+00 
    1.0000000000000000E+00     3.4374999999914790E-01     0.0000000000000000E+00 
    1.0000000000000000E+00     3.7499999999905720E-01     0.0000000000000000E+00 
    1.0000000000000000E+00     4.0624999999896660E-01     0.0000000000000000E+00 
    1.0000000000000000E+00     4.3749999999887590E-01     0.0000000000000000E+00 
    1.0000000000000000E+00     4.6874999999878530E-01     0.0000000000000000E+00 
    1.0000000000000000E+00     4.9999999999869471E-01     0.0000000000000000E+00 
    1.0000000000000000E+00     5.3124999999877620E-01     0.0000000000000000E+00 
    1.0000000000000000E+00     5.6249999999885780E-01     0.0000000000000000E+00 
    1.0000000000000000E+00     5.9374999999893940E-01     0.0000000000000000E+00 
    1.0000000000000000E+00     6.2499999999902101E-01     0.0000000000000000E+00 
    1.0000000000000000E+00     6.5624999999910261E-01     0.0000000000000000E+00 
    1.0000000000000000E+00     6.8749999999918421E-01     0.0000000000000000E+00 
    1.0000000000000000E+00     7.1874999999926570E-01     0.0000000000000000E+00 
    1.0000000000000000E+00     7.4999999999934730E-01     0.0000000000000000E+00 
    1.0000000000000000E+00     7.8124999999942890E-01     0.0000000000000000E+00 
    1.0000000000000000E+00     8.1249999999951039E-01     0.0000000000000000E+00 
    1.0000000000000000E+00     8.4374999999959199E-01     0.0000000000000000E+00 
    1.0000000000000000E+00     8.7499999999967359E-01     0.0000000000000000E+00 
    1.0000000000000000E+00     9.0624999999975520E-01     0.0000000000000000E+00 
    1.0000000000000000E+00     9.3749999999983680E-01     0.0000000000000000E+00 
    1.0000000000000000E+00     9.6874999999991840E-01     0.0000000000000000E+00 
    9.6875000000003686E-01     1.0000000000000000E+00     0.0000000000000000E+00 
    9.3750000000011691E-01     1.0000000000000000E+00     0.0000000000000000E+00 
    9.0625000000015765E-01     1.0000000000000000E+00     0.0000000000000000E+00 
    8.7500000000017863E-01     1.0000000000000000E+00     0.0000000000000000E+00 
    8.4375000000028044E-01     1.0000000000000000E+00     0.0000000000000000E+00 
    8.1250000000040856E-01     1.0000000000000000E+00     0.0000000000000000E+00 
    7.8125000000054956E-01     1.0000000000000000E+00     0.0000000000000000E+00 
    7.5000000000066480E-01     1.0000000000000000E+00     0.0000000000000000E+00 
    7.1875000000086831E-01     1.0000000000000000E+00     0.0000000000000000E+00 
    6.8750000000102829E-01     1.0000000000000000E+00     0.0000000000000000E+00 
    6.5625000000114431E-01     1.0000000000000000E+00     0.0000000000000000E+00 
    6.2500000000129829E-01     1.0000000000000000E+00     0.0000000000000000E+00 
    5.9375000000147926E-01     1.0000000000000000E+00     0.0000000000000000E+00 
    5.6250000000168354E-01     1.0000000000000000E+00     0.0000000000000000E+00 
    5.3125000000188671E-01     1.0000000000000000E+00     0.0000000000000000E+00 
    5.0000000000205835E-01     1.0000000000000000E+00     0.0000000000000000E+00 
    4.6875000000192979E-01     1.0000000000000000E+00     0.0000000000000000E+00 
    4.3750000000180111E-01     1.0000000000000000E+00     0.0000000000000000E+00 
    4.0625000000167238E-01     1.0000000000000000E+00     0.0000000000000000E+00 
    3.7500000000154382E-01     1.0000000000000000E+00     0.0000000000000000E+00 
    3.4375000000141509E-01     1.0000000000000000E+00     0.0000000000000000E+00 
    3.1250000000128642E-01     1.0000000000000000E+00     0.0000000000000000E+00 
    2.8125000000115769E-01     1.0000000000000000E+00     0.0000000000000000E+00 
    2.5000000000102918E-01     1.0000000000000000E+00     0.0000000000000000E+00 
    2.1875000000090050E-01     1.0000000000000000E+00     0.0000000000000000E+00 
    1.8750000000077180E-01     1.0000000000000000E+00     0.0000000000000000E+00 
    1.5625000000064329E-01     1.0000000000000000E+00     0.0000000000000000E+00 
    1.2500000000051459E-01     1.0000000000000000E+00     0.0000000000000000E+00 
    9.3750000000385914E-02     1.0000000000000000E+00     0.0000000000000000E+00 
    6.2500000000257239E-02     1.0000000000000000E+00     0.0000000000000000E+00 
    3.1250000000128557E-02     1.0000000000000000E+00     0.0000000000000000E+00 
    0.0000000000000000E+00     9.6875000000003686E-01     0.0000000000000000E+00 
    0.0000000000000000E+00     9.3750000000011691E-01     0.0000000000000000E+00 
    0.0000000000000000E+00     9.0625000000015765E-01     0.0000000000000000E+00 
    0.0000000000000000E+00     8.7500000000017863E-01     0.0000000000000000E+00 
    0.0000000000000000E+00     8.4375000000028044E-01     0.0000000000000000E+00 
    0.0000000000000000E+00     8.1250000000040856E-01     0.0000000000000000E+00 
    0.0000000000000000E+00     7.8125000000054956E-01     0.0000000000000000E+00 
    0.0000000000000000E+00     7.5000000000066480E-01     0.0000000000000000E+00 
    0.0000000000000000E+00     7.1875000000086831E-01     0.0000000000000000E+00 
    0.0000000000000000E+00     6.8750000000102829E-01     0.0000000000000000E+00 
    0.0000000000000000E+00     6.5625000000114431E-01     0.0000000000000000E+00 
    0.0000000000000000E+00     6.2500000000129829E-01     0.0000000000000000E+00 
    0.0000000000000000E+00     5.9375000000147926E-01     0.0000000000000000E+00 
    0.0000000000000000E+00     5.6250000000168354E-01     0.0000000000000000E+00 
    0.0000000000000000E+00     5.3125000000188671E-01     0.0000000000000000E+00 
    0.0000000000000000E+00     5.0000000000205835E-01     0.0000000000000000E+00 
    0.0000000000000000E+00     4.6875000000192979E-01     0.0000000000000000E+00 
    0.0000000000000000E+00     4.3750000000180111E-01     0.0000000000000000E+00 
    0.0000000000000000E+00     4.0625000000167238E-01     0.0000000000000000E+00 
[...]
CELL_DATA 2795 
SCALARS Pressure double 1 
LOOKUP_TABLE default 

    5.3061832273908971E+00 
    1.2162858679824518E+01 
    8.6498266539010906E+00 
    8.2486468877962622E+00 
    6.5405437641273139E+00 
    1.2060412774997504E+01 
    1.2686143343728942E+01 
    4.7351167750675360E+00 
    9.1365158847642611E+00 
    6.9982306603316449E+00 
    5.9808614418825838E+00 
    1.1844133383673260E+01 
    1.2074774556714553E+01 
    1.2033959308854984E+01 
    7.9803835590400043E+00 
    4.6554718164669087E+00 
    7.5822494236876539E+00 
    6.3667774706770768E+00 
    1.1540700109157767E+01 
    8.6469766931705951E+00 
    8.5332954144019713E+00 
    1.1978898742826084E+01 
    8.0188029879665557E+00 
    3.1238241871655809E-01 
    1.1817624307146934E+01 
    1.2055730498165335E+01 
    1.2714311317957153E+01 
    5.7466408753250819E+00 
    1.1777234806980816E+01 
    1.2713462585080844E+01 
    8.7105463201809563E+00 
    8.8790013124686240E+00 
    6.1975177815263320E+00 
    8.6105389597086344E+00 
    2.7529079846097635E+00 
    7.5866773475851366E+00 
    8.6029341597382025E+00 
    1.2749655994295420E+01 
    1.2666765252548167E+01 
    1.1854932525665008E+01 
    6.4787718627676645E+00 
    1.1800569556975729E+01 
    6.5115432373474891E-01 
    8.4621687627526789E+00 
    1.2500101689163140E+01 
    1.2353378012502555E+01 
    1.1835169324385179E+01 
    9.4514322361471965E+00 
    1.1896082933620226E+01 
    7.7614781580787708E+00 
    7.3859892802538205E+00 
    8.8464385292970071E+00 
    8.3617800867994738E+00 
    7.6274121800753809E+00 
    8.7860669222419645E+00 
    1.1365049940852471E+01 
    1.0297559780416728E+01 
    6.5763899161858230E+00 
    1.1982196519384143E+01 
    1.1917431970281726E+01 
    8.2862461787194306E+00 
    8.3070353775562680E+00 
    8.1639194301720686E+00 
    1.2626741406835428E+01 
    1.2849120580546623E+01 
    7.5912348046549942E+00 
    8.8450486265295094E+00 
    1.1760914737628219E+01 
    1.0104554824974032E+01 
    8.3455013805861764E+00 
    1.2857838923553722E+01 
    1.1915638779791283E+01 
    7.4819650044923440E+00 
    1.2439169695131305E+01 
    9.0318298914765407E+00 
    1.1691946230490863E+01 
    1.2759030848361297E+01 
    8.9033063242456691E+00 
    5.4080118706731435E+00 
    8.8620428072597903E+00 
    1.2673924084671651E+01 
    1.2888991354815358E+01 
    7.5974633493127470E+00 
    8.7755332313218215E+00 
    1.2924839455484532E+01 
    8.6090906889616043E+00 
    8.0923981626594585E+00 
    1.0446979491159146E+01 
    5.1551426539199685E+00 
    7.4059942219945603E+00 
    8.7769390396804745E+00 
    9.2555209288452769E+00 
    1.4289632085874006E+01 
    6.3534095501403955E+00 
    8.8523724336416141E+00 
    1.1816772437025136E+01 
    1.2032383691907134E+01 
    5.5849027399100777E+00 
    8.4819230768755727E+00 
    8.8057487464898934E+00 
    1.2050449957602130E+01 
    8.8115242250966119E+00 
    1.1991011066101002E+01 
    3.3985094155308260E+00 
    5.8132683298577774E+00 
    9.0485790967063480E+00 
    1.2170976763034563E+01 
    7.5551762288270750E+00 
    8.0946834613649852E+00 
    8.7965093657638018E+00 
    8.0641877836290732E+00 
    1.0035217381511060E+01 
    7.8596652325693004E+00 
    7.4892713681516412E+00 
    5.8745142443439482E+00 
    1.0178110460722721E+01 
    8.8803846084992966E+00 
    1.2549421452650185E+01 
    7.5975544091924663E+00 
    8.2373856865922388E+00 
    1.1907199927595391E+01 
    6.8498305683525587E+00 
    1.2298975823126712E+01 
    8.6925402742177997E+00 
    8.1715106017922636E+00 
    1.2034513794108525E+01 
    8.8737402702942045E+00 
    1.2764658511853741E+01 
    1.0455795173388326E+01 
    1.1240471525445329E+01 
    1.2729255228203991E+01 
    6.3666736070762013E+00 
    9.0630772315344252E+00 
    1.2039320361325526E+01 
    2.5529357549803509E+00 
    8.7626378826189768E+00 
    1.2699576525400452E+01 
    8.2010001289192651E+00 
    9.4580057574395404E+00 
    5.5335791431359524E+00 
    1.1816596901949486E+01 
    1.4760571533829633E+01 
    1.0844176822940526E+01 
    8.1956243226827254E+00 
    7.3194329835971139E+00 
    9.4040047638500113E+00 
    8.7099021555890577E+00 
    6.0449554827579757E+00 
    1.2725731061243934E+01 
    1.2124240942799171E+01 
    1.1818278437773747E+01 
    9.2739180580779603E+00 
    7.4574086891793288E+00 
    8.5330582048058385E+00 
    1.2463093595998297E+01 
    7.6737514466578096E+00 
    8.5953306415544546E+00 
    7.8152256580628690E+00 
    9.9644019166261106E+00 
    1.4749254688121367E+01 
    1.1810902731423910E+01 
    7.4241115676435152E+00 
    1.2201828122338107E+01 
    1.2134738145204841E+01 
    1.2205433726227794E+01 
    1.3107385634120803E+01 
    1.3608768232731936E+01 
    1.2349524091968570E+01 
    8.8374009863894241E+00 
    9.3467447794205363E+00 
    1.2200538011627451E+01 
    1.2557316926943431E+01 
    6.3079831744054546E+00 
    1.1834746493256457E+01 
    1.2429837371327960E+01 
    6.1447178993613978E+00 
    1.3022264178106269E+01 
    1.3016760390374504E+01 
    1.1599439094473107E+01 
    9.1170020768765259E+00 
    2.2364472497099555E+00 
    1.2700043329045315E+01 
    8.9942996401565516E+00 
    1.2812009580890491E+01 
    8.1413307164894793E+00 
    1.2551310578684431E+01 
    7.9396779937685258E-01 
    1.1257104818968257E+01 
    8.3433108939052705E+00 
    7.4222225876527075E+00 
    7.2300742555528403E+00 
    8.6626345815122647E+00 
    9.7154969276287986E+00 
    8.9275395274485074E+00 
    5.9639921943959795E+00 
    1.2554407995643494E+01 
    1.2061921401501492E+01 
    1.0210516921648013E+01 
    9.0405978025415390E+00 
    1.3088130760101391E+00 
    6.6649563997416363E+00 
    4.6015087300500346E+00 
    1.2724508526835097E+01 
    9.7962616171848200E+00 
    1.2113524507260653E+01 
    1.2119310799119255E+01 
    7.7437326110760161E+00 
    1.0216753480426622E+01 
    1.1814140419817656E+01 
    1.3000307206437638E+01 
    5.5142513474678445E+00 
    1.0653517358893714E+01 
    8.9586791373402512E+00 
    4.9051525240208509E+00 
    7.7345952188630998E+00 
    1.0649044357313338E+01 
    1.2086332558663788E+01 
    8.7213174094166810E+00 
    1.2184762957286319E+01 
    1.1976618238048605E+01 
    1.1932930784818224E+01 
    8.5412498817921811E+00 
    7.3800354160565460E+00 
    1.1825300420032962E+01 
    7.4779418561334330E+00 
    8.8148070898619828E+00 
    7.3277924286208211E+00 
    8.5459132541472709E+00 
    1.2126667166267254E+01 
    5.4638838440168414E+00 
    7.6560239072672305E+00 
    1.2644232425071635E+01 
    8.5576834009461820E+00 
    9.6940077331788128E+00 
    5.6075058499807353E+00 
    7.5320643901154352E+00 
    1.1957348814852171E+01 
    1.2234439515411266E+01 
    4.5614490129418401E+00 
    8.5575503568408884E+00 
    7.3634194270968356E+00 
    1.3389051094067300E+01 
    1.2895773900300856E+01 
    1.3632689461918181E+01 
    8.5795188559705071E+00 
    1.2104066362040131E+01 
    1.1778233758155400E+01 
    8.4601283005991661E+00 
    1.1818406681122090E+01 
    9.0397802867973258E+00 
    4.9709078402686764E+00 
    8.7375869752596689E+00 
    1.2634732997526175E+01 
    1.1815664655836777E+01 
    5.9493822570115222E+00 
    1.1840664720256067E+01 
    9.7151107117980438E+00 
    8.7458051696488219E+00 
    8.2781073048733145E+00 
    1.1703244582781196E+01 
    9.2360698512637853E+00 
    1.1829543570727402E+01 
    8.4138081798290880E+00 
    5.1593786198991678E+00 
    8.8775983039369653E+00 
    7.2378349831820685E+00 
    1.0844501934623608E+01 
    1.2807626890443313E+01 
    1.1824538242305040E+01 
    1.2693473761129100E+01 
    8.5075152636101965E+00 
    5.7921944400987080E+00 
    5.8756938029859382E+00 
    8.9366805480437517E+00 
    8.7929128792142031E+00 
    1.2338398414437712E+00 
    1.1408963906104475E+01 
    1.3131399736543175E+01 
    8.1495661155617256E+00 
    5.1782444647904242E+00 
    9.9176871613038493E+00 
    1.1839394464567443E+01 
    6.1558907895597912E+00 
    4.1727296339747859E+00 
    8.7652355063692138E+00 
    1.1922228361628143E+01 
    1.2469640083922377E+01 
    1.2366717452237330E+01 
    1.2238725201377711E+01 
    6.0034347371720154E+00 
    8.7351427127868799E+00 
    1.1409360319877630E+01 
    6.8766300527754316E+00 
    1.2063480734966074E+01 
    1.0407659745126159E+01 
    5.9659942163321258E+00 
    1.1932072488316765E+01 
    1.2713653271639945E+01 
    1.1921340150481836E+01 
    5.9253520718897423E+00 
    8.8413192889145051E+00 
    6.5180059838745628E+00 
    8.3281292320432332E+00 
    1.1832204182925562E+01 
    1.1822231524278525E+01 
    5.9604086273902688E+00 
    1.2586530022633045E+01 
    9.3165216319356432E+00 
    1.1858739535402012E+01 
    1.2562617661330689E+01 
    1.1843196898119569E+01 
    1.1050947223868068E+01 
    1.3436536079916511E+01 
    8.1222147548456594E+00 
    1.2666778642571273E+01 
    1.1881215583741003E+01 
    1.2731030320569900E+01 
    1.2580678752080514E+01 
    8.2103969490445490E+00 
    8.6446808880947099E+00 
    8.1403065535790198E+00 
    1.0639796297185816E+01 
    3.4080608005197637E+00 
    8.8704658859455723E+00 
    1.3555722994624904E+01 
    9.0450949565254497E+00 
    9.2091537143325244E+00 
    1.2706721947551769E+01 
    1.2918112588574648E+01 
    8.0958750963901398E+00 
    1.1844306138539356E+01 
    1.1819346845685422E+01 
    9.1984319686883698E+00 
    1.2541164929025268E+01 
    6.2685118871561656E+00 
    3.9631928836123760E+00 
    9.4465874351215096E+00 
    9.0572292751683197E+00 
    1.1823998595548399E+01 
    5.5694950312753031E+00 
    1.2294460241629064E+01 
    4.0359351402539358E+00 
    8.9997765926000444E+00 
    8.2842961499514622E+00 
    8.8190961195158266E+00 
    1.4799737755584614E+01 
    3.3141405393807544E+00 
    8.7816712648042419E+00 
    1.0351705516699258E+01 
    8.4199399008679681E+00 
    6.5697130623187903E+00 
    1.2399449093865213E+01 
    1.4373215883312938E+01 
    1.2525105474225512E+01 
    8.7242801550819102E+00 
    4.8794211060212955E+00 
    1.4234827686346367E+01 
    1.2050571210191707E+01 
    6.3065118791448995E+00 
    8.3210177353617407E+00 
    1.3092813933823765E+01 
    2.8181282701791068E+00 
    9.1018056001700458E+00 
    1.2496003922795831E+01 
    8.8319393885318522E+00 
    7.6745878403263088E+00 
    8.8259229967513448E+00 
    1.1592284345698008E+01 
    8.8125911339375431E+00 
    4.3483980968433844E+00 
    7.6407899032518567E-01 
    6.5707807794431909E+00 
    1.3288324558668785E+01 
    8.1396723180619599E+00 
    9.9586284949846320E+00 
    9.5426040441062732E+00 
    1.0870208297168666E+01 
    8.8448634629188696E+00 
    1.1970021962685857E+01 
    1.4813628833075571E+01 
    1.0367018433571017E+01 
    1.2642688754266059E+01 
    4.6327431706794697E-01 
    1.1823883065941020E+01 
    4.8190798154453258E+00 
    1.3715669094629488E+01 
    8.7958447120657670E+00 
    7.7799237910451700E+00 
    6.6498910918028713E+00 
    4.5642771944052480E+00 
    9.8183127636288763E+00 
    6.9478008792730845E+00 
    1.0754481327942983E+01 
    1.8656038096408134E+00 
    9.7407421465354140E+00 
    1.1767073883373351E+01 
    5.3256213034841897E+00 
    1.2239306831995824E+01 
    1.3532917413697950E+01 
    1.2110128449897172E+01 
    8.6664194085375783E+00 
    8.8142567290139464E+00 
    8.7885378953145672E+00 
    4.9467390548479182E+00 
    7.9093490642807964E+00 
    7.7745092942325416E+00 
    8.7769365760091844E+00 
    8.0817449775371415E+00 
    5.8342803262831988E-01 
    5.5253494398842298E+00 
    8.4205321021832500E+00 
    8.7527829017533421E+00 
    1.1044746281377130E+01 
    1.8567201720008399E+00 
    9.1631644899705122E+00 
    9.0621331318674532E+00 
    3.1862166877591034E+00 
    1.1999073193179054E+01 
    7.4950346302631781E+00 
    8.9374027576845130E+00 
    1.2045677811613633E+01 
    4.5811263170148866E+00 
    1.2095918862737397E+01 
    7.5942065661063909E+00 
    8.5547497273749928E-01 
    8.1945730774085064E+00 
    1.2599689205264736E+01 
    1.1824079578692622E+01 
    1.1841273769028344E+01 
    9.1515217621051175E+00 
    9.0029397873964854E+00 
    7.4766012437048346E+00 
    5.9989451466622361E+00 
    1.2140596851102403E+01 
    8.3200693964654171E+00 
    5.8641423899423790E+00 
    1.1836302951577181E+01 
    1.2429924893624078E+01 
    8.9527299681886490E+00 
    8.6054428479634169E+00 
    1.4697741873519265E+01 
    9.1990996406119301E+00 
    1.2160431514846749E+01 
    7.0964785376144937E+00 
    1.4842071755192041E+01 
    5.8409769259114865E+00 
    7.8634846491176553E+00 
    6.5453241319882487E+00 
    9.3983143955109920E+00 
    7.4811152035689430E+00 
    1.4825927430066036E+01 
    9.2406128723881551E+00 
    1.1539880337490805E+01 
    6.0103816510868224E+00 
    8.8416216915222510E+00 
    1.2021447806513240E+01 
    7.5065967470608479E+00 
    6.2358091319397833E+00 
    9.6283542804730580E+00 
    1.2232077464678788E+01 
    6.4422490838906947E+00 
    8.3014540075018868E+00 
    8.6288395022526103E+00 
    1.1803017852653971E+01 
    8.4432075086434981E+00 
    1.2204203411852504E+01 
    1.2757195259504979E+01 
    7.5005212693081784E+00 
    7.3466206552878859E+00 
    6.9800462071277041E+00 
    1.1922824546448696E+01 
    9.0557524995794179E+00 
    1.4411224081460231E+01 
    1.1253761530310518E+01 
    1.1984369640086671E+01 
    1.4114834295711601E+01 
    1.3540280062808014E+01 
    8.8856343073259900E+00 
    8.7621514204594959E+00 
    1.1627115335251327E+01 
    1.1855979766391886E+01 
    1.2293502483976255E+01 
    1.2068024150794081E+01 
    1.4715980494617778E+01 
    9.1987133286184939E+00 
    7.5874020182943953E+00 
    9.1631553344756682E+00 
    1.2679423370799295E+01 
    8.9722368175326128E+00 
    5.1945331384163884E+00 
    8.6510684167284051E+00 
    1.3061646944517502E+01 
    9.0936067651019226E+00 
    7.5968054553313689E+00 
    8.5681631946770391E+00 
    1.3163293105806508E+01 
    1.1850329161540600E+01 
    7.2025396508450967E+00 
    1.3289161457803139E+01 
    8.9120774004821346E+00 
    1.2295925831083718E+01 
    1.3174925484264877E+01 
    9.2394750099323257E+00 
    4.5830509664405792E+00 
    9.5973728578090629E+00 
    4.7421232707981131E+00 
    9.0162759349936898E+00 
    8.8323233640263492E+00 
    1.0095928572171941E+01 
    5.0146502103516148E+00 
    1.0713790107101055E+01 
    8.8531480983659172E+00 
    1.2059704654822578E+01 
    9.2114558723839064E+00 
    7.0321004679979549E+00 
    8.4548395026652319E+00 
    9.2780560548325361E+00 
    9.2908296717367804E+00 
    1.2799265084601812E+01 
    7.2430535971970347E+00 
    7.1163975784835847E+00 
    5.2777994858431301E+00 
    1.2318831475912607E+01 
    8.4903246956051017E+00 
    1.1669697879586613E+01 
    8.8035157335371874E+00 
    5.7814150036538221E+00 
    1.1873545659996024E+01 
    8.7775384266775056E+00 
    6.3152469939030791E+00 
    6.6993840339483084E+00 
    6.9421873638183902E+00 
    1.2085527138336609E+01 
    8.7789412211883810E+00 
    1.2652167258689852E+01 
    8.7340106024911499E+00 
    8.6699652649034942E+00 
    8.2221688717060388E+00 
    1.1945256080265189E+01 
    8.5851246974607207E+00 
    6.9791939097425733E+00 
    1.3528286508679248E+01 
    1.2014715251250877E+01 
    6.1239416139121561E+00 
    2.3430415847232058E+00 
    8.7678178974426810E+00 
    8.2257621940443997E+00 
    7.3408474928433778E+00 
    8.0405167256636449E+00 
    1.1997229692852997E+01 
    8.4898311925724421E+00 
    7.6428106771162918E+00 
    1.1874477502563989E+01 
    6.0676281698839318E+00 
    1.1592902492720929E+01 
    7.9392562408475147E+00 
    6.9199064957803635E+00 
    7.4129151047576682E+00 
    1.2371853659468936E+01 
    8.8220286816174838E+00 
    8.8298419124675416E+00 
    5.0913128956667704E+00 
    5.5109809619249432E+00 
    1.0996488081692034E+01 
    8.8393386230539779E+00 
    8.8129766979978683E+00 
    1.3275044723779935E+01 
    7.1176247686031600E+00 
    8.8508668226326837E+00 
    6.2770514849572816E+00 
    6.4703048617943280E+00 
    1.1937059381548373E+01 
    8.4746253539222955E+00 
    6.0867476378533238E+00 
    9.2743234880555931E+00 
    8.7099145966068523E+00 
    1.1940569348756974E+01 
    1.3361624701635044E+01 
    9.0329449298998155E-01 
    8.7728657809895658E+00 
    9.0559077183351846E+00 
    1.1997846144621104E+01 
    8.2632904141096777E+00 
    8.7969375936190382E+00 
    1.2844820246497644E+01 
    7.4438480051047708E+00 
    6.1419782914089645E+00 
    1.0638145708551365E+01 
    1.1835640828611796E+01 
    1.2730327867886521E+01 
    1.2979306772511025E+01 
    8.6188552462038537E+00 
    8.7649337842670754E+00 
    9.8782079395153186E+00 
    5.8141506006424972E+00 
    1.1944377996405027E+01 
    6.6270299159236652E+00 
    6.0595738293654549E+00 
    1.0987201680781752E+01 
    1.0341549787409496E+01 
    5.9407407508643528E+00 
    1.1866030855051974E+01 
    1.2717399669486010E+01 
    9.2123823125931477E+00 
    1.3456265813221266E+01 
    1.1893722247135493E+01 
    8.3470779765656662E+00 
    1.2482728925706319E+01 
    6.4769691239731175E+00 
    1.1851228943568854E+01 
    8.7719285030013801E+00 
    8.7311133697745582E+00 
    1.3431449510814142E+01 
    8.5191278101995156E+00 
    1.0734347794657859E+01 
    7.3991125485734690E+00 
    1.2824199190816527E+01 
    1.1772124271687074E+01 
    7.7279161387874478E+00 
    1.1815936599601665E+01 
    7.9627763978504094E+00 
    8.8059163053553835E+00 
    1.2681359840729368E+01 
    1.2060375784555418E+01 
    1.2720396134961389E+01 
    1.2000415881496966E+01 
    7.9145373800521197E+00 
    8.1238941393958015E+00 
    1.2726354386842091E+01 
    8.2381317290957750E+00 
    1.1715545063458945E+01 
    8.5122171172788921E+00 
    3.4380316985073360E+00 
    6.1211736396663126E+00 
    5.6649674562037600E+00 
    1.2684340881440169E+01 
    1.3366842985501981E+01 
    1.1831143788110920E+01 
    1.0219351953205605E+01 
    1.2075046507776529E+01 
    1.1872355678337231E+01 
    1.2378016043232043E+01 
    4.9147276083590050E+00 
    3.2069399787615427E+00 
    1.0027594405889955E+01 
    8.4122290593974380E+00 
    1.1998627507407370E+01 
    1.1996464784620246E+01 
    9.0707753634811965E+00 
    1.2028333961928581E+01 
    8.7594412287825989E+00 
    8.6322356754751421E+00 
    4.4367232202090552E+00 
    3.1936332003722709E+00 
    1.3160561548588516E+01 
    6.8722086999904963E+00 
    7.6734956684052271E+00 
    8.9815474511075681E+00 
    1.4698583018113695E+01 
    9.0640944895016879E+00 
    8.9945737155771948E+00 
    3.6337169802292006E+00 
    9.0645916064107297E+00 
    9.0764308223051930E+00 
    1.2266778812156863E+01 
    7.4165772081455490E+00 
    8.3928428944181608E+00 
    1.3315661744710344E+01 
    8.7823535286121590E+00 
    1.1844404535311147E+01 
    1.2060899145540327E+01 
    1.0866460843548392E+01 
    7.4577168694455445E+00 
    1.1999651187354832E+01 
    8.5690714843156037E+00 
    1.2010224848862476E+01 
    1.1791349122902501E+01 
    1.2701461778251659E+01 
    1.1999495197515587E+01 
    1.1296333798485744E+01 
    8.7701567137755134E+00 
    5.8941023416790959E+00 
    1.4575352794565489E+01 
    6.7636008169165631E+00 
    1.2643065218620455E+01 
    8.7674810089356026E+00 
    7.1538027899004284E+00 
    4.3056385343868744E+00 
    9.1063173555532586E+00 
    1.1988667194177504E+01 
    1.1984385298508959E+01 
    8.7877907178924222E+00 
    8.7614914622013114E+00 
    1.3509548561959964E+01 
    1.2926785192717089E+01 
    9.0808427404323151E+00 
    2.9856989076911944E+00 
    1.1270691642045319E+01 
    1.4824193210672732E+01 
    8.7736190566483856E+00 
    1.0534924434332178E+01 
    8.2582986101125719E+00 
    1.4438068136589841E+01 
    1.2998032773504068E+01 
    1.2752260394233581E+01 
    9.1005407050983660E+00 
    4.0141450422512417E+00 
    8.2188503657276453E+00 
    8.2844298811310964E+00 
    8.3332647817486869E+00 
    3.2470794386046720E+00 