# vtk DataFile Version 2.0
Pressure Field Data 
ASCII 
DATASET UNSTRUCTURED_GRID 

POINTS 2860 double 

    0.0000000000000000E+00     0.0000000000000000E+00     0.0000000000000000E+00 
    1.0000000000000000E+00     0.0000000000000000E+00     0.0000000000000000E+00 
    1.0000000000000000E+00     1.0000000000000000E+00     0.0000000000000000E+00 
    0.0000000000000000E+00     1.0000000000000000E+00     0.0000000000000000E+00 
    2.5000000000000000E-01     2.5000000000000000E-01     0.0000000000000000E+00 
    7.5000000000000000E-01     2.5000000000000000E-01     0.0000000000000000E+00 
    7.5000000000000000E-01     7.5000000000000000E-01     0.0000000000000000E+00 
    2.5000000000000000E-01     7.5000000000000000E-01     0.0000000000000000E+00 
    3.1249999999942091E-02     0.0000000000000000E+00     0.0000000000000000E+00 
    6.2499999999873469E-02     0.0000000000000000E+00     0.0000000000000000E+00 
    9.3749999999826514E-02     0.0000000000000000E+00     0.0000000000000000E+00 
    1.2499999999977961E-01     0.0000000000000000E+00     0.0000000000000000E+00 
    1.5624999999968961E-01     0.0000000000000000E+00     0.0000000000000000E+00 
    1.8749999999959971E-01     0.0000000000000000E+00     0.0000000000000000E+00 
    2.1874999999950970E-01     0.0000000000000000E+00     0.0000000000000000E+00 
    2.4999999999941969E-01     0.0000000000000000E+00     0.0000000000000000E+00 
    2.8124999999932920E-01     0.0000000000000000E+00     0.0000000000000000E+00 
    3.1249999999923850E-01     0.0000000000000000E+00     0.0000000000000000E+00 
    3.4374999999914790E-01     0.0000000000000000E+00     0.0000000000000000E+00 
    3.7499999999905720E-01     0.0000000000000000E+00     0.0000000000000000E+00 
    4.0624999999896660E-01     0.0000000000000000E+00     0.0000000000000000E+00 
    4.3749999999887590E-01     0.0000000000000000E+00     0.0000000000000000E+00 
    4.6874999999878530E-01     0.0000000000000000E+00     0.0000000000000000E+00 
    4.9999999999869471E-01     0.0000000000000000E+00     0.0000000000000000E+00 
    5.3124999999877620E-01     0.0000000000000000E+00     0.0000000000000000E+00 
    5.6249999999885780E-01     0.0000000000000000E+00     0.0000000000000000E+00 
    5.9374999999893940E-01     0.0000000000000000E+00     0.0000000000000000E+00 
    6.2499999999902101E-01     0.0000000000000000E+00     0.0000000000000000E+00 
    6.5624999999910261E-01     0.0000000000000000E+00     0.0000000000000000E+00 
    6.8749999999918421E-01     0.0000000000000000E+00     0.0000000000000000E+00 
    7.1874999999926570E-01     0.0000000000000000E+00     0.0000000000000000E+00 
    7.4999999999934730E-01     0.0000000000000000E+00     0.0000000000000000E+00 
    7.8124999999942890E-01     0.0000000000000000E+00     0.0000000000000000E+00 
    8.1249999999951039E-01     0.0000000000000000E+00     0.0000000000000000E+00 
    8.4374999999959199E-01     0.0000000000000000E+00     0.0000000000000000E+00 
    8.7499999999967359E-01     0.0000000000000000E+00     0.0000000000000000E+00 
    9.0624999999975520E-01     0.0000000000000000E+00     0.0000000000000000E+00 
    9.3749999999983680E-01     0.0000000000000000E+00     0.0000000000000000E+00 
    9.6874999999991840E-01     0.0000000000000000E+00     0.0000000000000000E+00 
    1.0000000000000000E+00     3.1249999999942091E-02     0.0000000000000000E+00 
    1.0000000000000000E+00     6.2499999999873469E-02     0.0000000000000000E+00 
    1.0000000000000000E+00     9.3749999999826514E-02     0.0000000000000000E+00 
    1.0000000000000000E+00     1.2499999999977961E-01     0.0000000000000000E+00 
    1.0000000000000000E+00     1.5624999999968961E-01     0.0000000000000000E+00 
    1.0000000000000000E+00     1.8749999999959971E-01     0.0000000000000000E+00 
    1.0000000000000000E+00     2.1874999999950970E-01     0.0000000000000000E+00 
    1.0000000000000000E+00     2.4999999999941969E-01     0.0000000000000000E+00 
    1.0000000000000000E+00     2.8124999999932920E-01     0.0000000000000000E+00 
    1.0000000000000000E+00     3.1249999999923850E-01     0.0000000000000000E+00 
    1.0000000000000000E+00     3.4374999999914790E-01     0.0000000000000000E+00 
    1.0000000000000000E+00     3.7499999999905720E-01     0.0000000000000000E+00 
    1.0000000000000000E+00     4.0624999999896660E-01     0.0000000000000000E+00 
    1.0000000000000000E+00     4.3749999999887590E-01     0.0000000000000000E+00 
    1.0000000000000000E+00     4.6874999999878530E-01     0.0000000000000000E+00 
    1.0000000000000000E+00     4.9999999999869471E-01     0.0000000000000000E+00 
    1.0000000000000000E+00     5.3124999999877620E-01     0.0000000000000000E+00 
    1.0000000000000000E+00     5.6249999999885780E-01     0.0000000000000000E+00 
    1.0000000000000000E+00     5.9374999999893940E-01     0.0000000000000000E+00 
    1.0000000000000000E+00     6.2499999999902101E-01     0.0000000000000000E+00 
    1.0000000000000000E+00     6.5624999999910261E-01     0.0000000000000000E+00 
    1.0000000000000000E+00     6.8749999999918421E-01     0.0000000000000000E+00 
    1.0000000000000000E+00     7.1874999999926570E-01     0.0000000000000000E+00 
    1.0000000000000000E+00     7.4999999999934730E-01     0.0000000000000000E+00 
    1.0000000000000000E+00     7.8124999999942890E-01     0.0000000000000000E+00 
    1.0000000000000000E+00     8.1249999999951039E-01     0.0000000000000000E+00 
    1.0000000000000000E+00     8.4374999999959199E-01     0.0000000000000000E+00 
    1.0000000000000000E+00     8.7499999999967359E-01     0.0000000000000000E+00 
    1.0000000000000000E+00     9.0624999999975520E-01     0.0000000000000000E+00 
    1.0000000000000000E+00     9.3749999999983680E-01     0.0000000000000000E+00 
    1.0000000000000000E+00     9.6874999999991840E-01     0.0000000000000000E+00 
    9.6875000000003686E-01     1.0000000000000000E+00     0.0000000000000000E+00 
    9.3750000000011691E-01     1.0000000000000000E+00     0.0000000000000000E+00 
    9.0625000000015765E-01     1.0000000000000000E+00     0.0000000000000000E+00 
    8.7500000000017863E-01     1.0000000000000000E+00     0.0000000000000000E+00 
    8.4375000000028044E-01     1.0000000000000000E+00     0.0000000000000000E+00 
    8.1250000000040856E-01     1.0000000000000000E+00     0.0000000000000000E+00 
    7.8125000000054956E-01     1.0000000000000000E+00     0.0000000000000000E+00 
    7.5000000000066480E-01     1.0000000000000000E+00     0.0000000000000000E+00 
    7.1875000000086831E-01     1.0000000000000000E+00     0.0000000000000000E+00 
    6.8750000000102829E-01     1.0000000000000000E+00     0.0000000000000000E+00 
    6.5625000000114431E-01     1.0000000000000000E+00     0.0000000000000000E+00 
    6.2500000000129829E-01     1.0000000000000000E+00     0.0000000000000000E+00 
    5.9375000000147926E-01     1.0000000000000000E+00     0.0000000000000000E+00 
    5.6250000000168354E-01     1.0000000000000000E+00     0.0000000000000000E+00 
    5.3125000000188671E-01     1.0000000000000000E+00     0.0000000000000000E+00 
    5.0000000000205835E-01     1.0000000000000000E+00     0.0000000000000000E+00 
    4.6875000000192979E-01     1.0000000000000000E+00     0.0000000000000000E+00 
    4.3750000000180111E-01     1.0000000000000000E+00     0.0000000000000000E+00 
    4.0625000000167238E-01     1.0000000000000000E+00     0.0000000000000000E+00 
    3.7500000000154382E-01     1.0000000000000000E+00     0.0000000000000000E+00 
    3.4375000000141509E-01     1.0000000000000000E+00     0.0000000000000000E+00 
    3.1250000000128642E-01     1.0000000000000000E+00     0.0000000000000000E+00 
    2.8125000000115769E-01     1.0000000000000000E+00     0.0000000000000000E+00 
    2.5000000000102918E-01     1.0000000000000000E+00     0.0000000000000000E+00 
    2.1875000000090050E-01     1.0000000000000000E+00     0.0000000000000000E+00 
    1.8750000000077180E-01     1.0000000000000000E+00     0.0000000000000000E+00 
    1.5625000000064329E-01     1.0000000000000000E+00     0.0000000000000000E+00 
    1.2500000000051459E-01     1.0000000000000000E+00     0.0000000000000000E+00 
    9.3750000000385914E-02     1.0000000000000000E+00     0.0000000000000000E+00 
    6.2500000000257239E-02     1.0000000000000000E+00     0.0000000000000000E+00 
    3.1250000000128557E-02     1.0000000000000000E+00     0.0000000000000000E+00 
    0.0000000000000000E+00     9.6875000000003686E-01     0.0000000000000000E+00 
    0.0000000000000000E+00     9.3750000000011691E-01     0.0000000000000000E+00 
    0.0000000000000000E+00     9.0625000000015765E-01     0.0000000000000000E+00 
    0.0000000000000000E+00     8.7500000000017863E-01     0.0000000000000000E+00 
    0.0000000000000000E+00     8.4375000000028044E-01     0.0000000000000000E+00 
    0.0000000000000000E+00     8.1250000000040856E-01     0.0000000000000000E+00 
    0.0000000000000000E+00     7.8125000000054956E-01     0.0000000000000000E+00 
    0.0000000000000000E+00     7.5000000000066480E-01     0.0000000000000000E+00 
    0.0000000000000000E+00     7.1875000000086831E-01     0.0000000000000000E+00 
    0.0000000000000000E+00     6.8750000000102829E-01     0.0000000000000000E+00 
    0.0000000000000000E+00     6.5625000000114431E-01     0.0000000000000000E+00 
    0.0000000000000000E+00     6.2500000000129829E-01     0.0000000000000000E+00 
    0.0000000000000000E+00     5.9375000000147926E-01     0.0000000000000000E+00 
    0.0000000000000000E+00     5.6250000000168354E-01     0.0000000000000000E+00 
    0.0000000000000000E+00     5.3125000000188671E-01     0.0000000000000000E+00 
    0.0000000000000000E+00     5.0000000000205835E-01     0.0000000000000000E+00 
    0.0000000000000000E+00     4.6875000000192979E-01     0.0000000000000000E+00 
    0.0000000000000000E+00     4.3750000000180111E-01     0.0000000000000000E+00 
    0.0000000000000000E+00     4.0625000000167238E-01     0.0000000000000000E+00 
[...]
CELL_DATA 2795 
SCALARS Pressure double 1 
LOOKUP_TABLE default 

    5.2693316386460305E+00 
    1.2071063243146616E+01 
    8.5862101596218245E+00 
    8.1881678812282068E+00 
    6.4937575980563942E+00 
    1.1969086616811293E+01 
    1.2591038880041603E+01 
    4.7029611066334525E+00 
    9.0672240888682545E+00 
    6.9568896016636588E+00 
    5.9588837623836675E+00 
    1.1754350241972196E+01 
    1.1983247907763731E+01 
    1.1942806917191989E+01 
    7.9237034932718480E+00 
    4.6239856090021592E+00 
    7.5269912840460682E+00 
    6.3382831725058457E+00 
    1.1453153958738287E+01 
    8.5831075607156730E+00 
    8.4702149158741769E+00 
    1.1888104453602809E+01 
    7.9600630964746584E+00 
    3.1063311037309049E-01 
    1.1727666684432613E+01 
    1.1964606208548251E+01 
    1.2619091514857852E+01 
    5.7248193189901917E+00 
    1.1687946472225276E+01 
    1.2618670320800542E+01 
    8.6519143767458164E+00 
    8.8129759916106174E+00 
    6.1647617401386841E+00 
    8.5469837619216982E+00 
    2.7407764045717649E+00 
    7.5313934863045429E+00 
    8.5393763572924364E+00 
    1.2654742185423205E+01 
    1.2571786671091692E+01 
    1.1765060865139759E+01 
    6.4326715436510620E+00 
    1.1711135612550734E+01 
    6.4758847106668127E-01 
    8.3999063883207654E+00 
    1.2406196468191162E+01 
    1.2259954014446654E+01 
    1.1745459784612015E+01 
    9.3807596062540775E+00 
    1.1805796999308013E+01 
    7.7047359648593465E+00 
    7.3323458041224114E+00 
    8.7810396807457423E+00 
    8.3002215070533101E+00 
    7.5717655231558902E+00 
    8.7282494666864103E+00 
    1.1278814507729575E+01 
    1.0220319724220222E+01 
    6.5293189754121927E+00 
    1.1891392142417384E+01 
    1.1827076257410177E+01 
    8.2286520045187341E+00 
    8.2490556098618981E+00 
    8.1040482856267477E+00 
    1.2532383283521590E+01 
    1.2753519670348936E+01 
    7.5358891311015146E+00 
    8.7797227864283141E+00 
    1.1671555424639518E+01 
    1.0028341735764503E+01 
    8.2840859570033860E+00 
    1.2762042909866169E+01 
    1.1825261607879094E+01 
    7.4275709253154076E+00 
    1.2345175555676960E+01 
    8.9702953116268169E+00 
    1.1603121097239592E+01 
    1.2664099985647219E+01 
    8.8370535775022354E+00 
    5.3716765061414140E+00 
    8.7965811419697229E+00 
    1.2578881025515436E+01 
    1.2793494116126062E+01 
    7.5421086884782058E+00 
    8.7108703670275620E+00 
    1.2828899136168827E+01 
    8.5454732516367375E+00 
    8.0330767817774191E+00 
    1.0367957934203908E+01 
    5.1200585830909233E+00 
    7.3522093726586295E+00 
    8.7121862923138771E+00 
    9.1852973685201995E+00 
    1.4189701015035018E+01 
    6.3081070552045935E+00 
    8.7870036671493814E+00 
    1.1727222124104584E+01 
    1.1941102574740810E+01 
    5.5458722234699636E+00 
    8.4192269998159741E+00 
    8.7406342286019019E+00 
    1.1959080180833460E+01 
    8.7464915828783294E+00 
    1.1899991424702232E+01 
    3.3771229174059458E+00 
    5.7919966739493960E+00 
    8.9814692295562306E+00 
    1.2079167229708604E+01 
    7.5001511959725979E+00 
    8.0384088378173093E+00 
    8.7319301738935629E+00 
    8.0051295147175558E+00 
    9.9649749797152616E+00 
    7.8043863725939326E+00 
    7.4347855382319112E+00 
    5.8339024110561324E+00 
    1.0101439699972907E+01 
    8.8140977264852438E+00 
    1.2455547669217538E+01 
    7.5468873603426472E+00 
    8.1773014097125944E+00 
    1.1816960957728396E+01 
    6.8005504753950845E+00 
    1.2206270478039821E+01 
    8.6284199296878104E+00 
    8.1116013107661527E+00 
    1.1943242661336562E+01 
    8.8081456341625728E+00 
    1.2669347136958875E+01 
    1.0376693020635365E+01 
    1.1155187481150781E+01 
    1.2633970388808685E+01 
    6.3212791858566302E+00 
    8.9956859890896244E+00 
    1.1948185098383934E+01 
    2.5374410907351463E+00 
    8.7045499596769016E+00 
    1.2604431256584199E+01 
    8.1411758690096949E+00 
    9.3871323885857851E+00 
    5.4957269065108862E+00 
    1.1727128096193855E+01 
    1.4659842893555362E+01 
    1.0761969200435681E+01 
    8.1355401124826052E+00 
    7.2663214060200483E+00 
    9.3359060266080789E+00 
    8.6457946928945990E+00 
    6.0218082505509543E+00 
    1.2630526566641157E+01 
    1.2032015711189079E+01 
    1.1728720255191735E+01 
    9.2043827599224013E+00 
    7.4031546146363780E+00 
    8.4700358341311635E+00 
    1.2368915202744089E+01 
    7.6177600788488711E+00 
    8.5317684205486852E+00 
    7.7581423008622981E+00 
    9.8897607492073867E+00 
    1.4648548664149249E+01 
    1.1721380695408143E+01 
    7.3706079735114969E+00 
    1.2109542934775625E+01 
    1.2043129270238563E+01 
    1.2113415993719276E+01 
    1.3010889148761439E+01 
    1.3510603103629764E+01 
    1.2255925500197822E+01 
    8.7721425752362929E+00 
    9.2766185897637428E+00 
    1.2107903534624720E+01 
    1.2463177563388861E+01 
    6.2790540550859344E+00 
    1.1745031636535407E+01 
    1.2335819797392723E+01 
    6.1200918042532955E+00 
    1.2925878002175439E+01 
    1.2920672287188005E+01 
    1.1511444285146204E+01 
    9.0491371114997197E+00 
    2.2270947606468621E+00 
    1.2604953570583787E+01 
    8.9273822727295364E+00 
    1.2716772520435487E+01 
    8.0819956096275689E+00 
    1.2456808211266056E+01 
    7.8962403911134993E-01 
    1.1171682188377234E+01 
    8.2855725323231422E+00 
    7.3683231611644429E+00 
    7.1776987430939743E+00 
    8.5986369045622197E+00 
    9.6450481350041883E+00 
    8.8611658308680319E+00 
    5.9232382162691346E+00 
    1.2460404891369731E+01 
    1.1970704579071057E+01 
    1.0133435858903471E+01 
    8.9734464029994072E+00 
    1.3013040322401488E+00 
    6.6171791700702673E+00 
    4.5713529720540080E+00 
    1.2629774492047250E+01 
    9.7230138183141968E+00 
    1.2021635232942582E+01 
    1.2027707026084007E+01 
    7.6876568782010821E+00 
    1.0139134703813708E+01 
    1.1724570382042296E+01 
    1.2904263120572278E+01 
    5.4761434135847313E+00 
    1.0572916439238439E+01 
    8.8919391852335572E+00 
    4.8720857990469257E+00 
    7.6781794454428525E+00 
    1.0567606405823426E+01 
    1.1994952268347422E+01 
    8.6568991602951222E+00 
    1.2092830208631684E+01 
    1.1885898813530090E+01 
    1.1842532011505622E+01 
    8.4783342597857576E+00 
    7.3274068189323911E+00 
    1.1735688621298774E+01 
    7.4235341101165480E+00 
    8.7496858118893037E+00 
    7.2746354643686368E+00 
    8.4827582922274427E+00 
    1.2034998188609412E+01 
    5.4450848019817428E+00 
    7.6002395478257947E+00 
    1.2549613648012857E+01 
    8.4950586048758296E+00 
    9.6218068874387264E+00 
    5.5884472432717907E+00 
    7.4772733250871442E+00 
    1.1866751620233345E+01 
    1.2142231689849250E+01 
    4.5450560025692806E+00 
    8.4943635562974027E+00 
    7.3099380155694966E+00 
    1.3291510714916818E+01 
    1.2800225815261848E+01 
    1.3534398934398917E+01 
    8.5161492846747606E+00 
    1.2012567682985296E+01 
    1.1688905656350602E+01 
    8.3976935826176735E+00 
    1.1728835540581569E+01 
    8.9725333929583027E+00 
    4.9381355865131749E+00 
    8.6731105039220928E+00 
    1.2540423989549096E+01 
    1.1726110908216617E+01 
    5.9270125903110236E+00 
    1.1750909160326728E+01 
    9.6475025618659096E+00 
    8.6878307291030197E+00 
    8.2184871683548621E+00 
    1.1614500209823884E+01 
    9.1696987448970351E+00 
    1.1739887084196035E+01 
    8.3522585998644452E+00 
    5.1264628816193998E+00 
    8.8112147249057404E+00 
    7.1853746532266332E+00 
    1.0762291684353009E+01 
    1.2712063043664005E+01 
    1.1734952052869495E+01 
    1.2598345648747152E+01 
    8.4461764881687138E+00 
    5.7722940990282208E+00 
    5.8551221323673355E+00 
    8.8757210058237899E+00 
    8.7281152501982007E+00 
    1.2277640401155132E+00 
    1.1322382377211488E+01 
    1.3034666212010139E+01 
    8.0898966014865810E+00 
    5.1427722277922214E+00 
    9.8428786662460279E+00 
    1.1749637676831703E+01 
    6.1122106340984628E+00 
    4.1450231198011842E+00 
    8.7005285443708420E+00 
    1.1831516852281823E+01 
    1.2376177497010131E+01 
    1.2273106297205169E+01 
    1.2146531226277547E+01 
    5.9613607861003786E+00 
    8.6767898119860796E+00 
    1.1322910631613320E+01 
    6.8387189903592773E+00 
    1.1972024887753260E+01 
    1.0328230305654584E+01 
    5.9437439986695013E+00 
    1.1841526135959294E+01 
    1.2618685580813063E+01 
    1.1830685940397414E+01 
    5.8834890948284970E+00 
    8.7760369293399165E+00 
    6.4713801130339350E+00 
    8.2684469748602609E+00 
    1.1742514661261394E+01 
    1.1732624629312310E+01 
    5.9182832225677853E+00 
    1.2491802267497453E+01 
    9.2479325005324551E+00 
    1.1768758022042038E+01 
    1.2468573004443007E+01 
    1.1753393598362033E+01 
    1.0967129292423197E+01 
    1.3338712194667217E+01 
    8.0635673351594477E+00 
    1.2571801435139330E+01 
    1.1790956947858239E+01 
    1.2635743996973710E+01 
    1.2485968361532372E+01 
    8.1511511472614462E+00 
    8.5809945834312575E+00 
    8.0806397756510062E+00 
    1.0559223094385761E+01 
    3.3863915088037468E+00 
    8.8124857136220367E+00 
    1.3457608465924498E+01 
    8.9780332803914078E+00 
    9.1412094871059999E+00 
    1.2611545267937897E+01 
    1.2822096488492134E+01 
    8.0397135384505187E+00 
    1.1754518806796741E+01 
    1.1729785052976050E+01 
    9.1305562398894864E+00 
    1.2446670605026776E+01 
    6.2419265689784149E+00 
    3.9482731929948502E+00 
    9.3782073398238452E+00 
    8.9900602490635286E+00 
    1.1734347549723395E+01 
    5.5305653040379985E+00 
    1.2201393733384553E+01 
    4.0220633851672600E+00 
    8.9330953787077068E+00 
    8.2275040124446583E+00 
    8.7540221511391110E+00 
    1.4698999514136508E+01 
    3.2935528272633525E+00 
    8.7237171143750700E+00 
    1.0273753192486943E+01 
    8.3578377208725403E+00 
    6.5235251201635016E+00 
    1.2306033939812787E+01 
    1.4273097137239340E+01 
    1.2430897894162900E+01 
    8.6663562002805339E+00 
    4.8462680716709032E+00 
    1.4135171325459957E+01 
    1.1959355281940860E+01 
    6.2646073311438748E+00 
    8.2598270951264592E+00 
    1.2996393162226276E+01 
    2.8006100702256642E+00 
    9.0344365938438553E+00 
    1.2402202264071624E+01 
    8.7666343085558633E+00 
    7.6238032934909805E+00 
    8.7679970121268287E+00 
    1.1503714422943339E+01 
    8.7474896131982298E+00 
    4.3194082180784079E+00 
    7.5985987791768261E-01 
    6.5407634935291581E+00 
    1.3190953489048798E+01 
    8.0800016852309842E+00 
    9.8836363143653170E+00 
    9.4728114042533722E+00 
    1.0786884382357966E+01 
    8.7793657972147425E+00 
    1.1879315270191476E+01 
    1.4712871634746159E+01 
    1.0288612748117130E+01 
    1.2547843895569509E+01 
    4.6067176560588763E-01 
    1.1734256740947540E+01 
    4.7889317151068642E+00 
    1.3617164149220502E+01 
    8.7379759109220210E+00 
    7.7258776138585565E+00 
    6.6022204847386288E+00 
    4.5334501347652747E+00 
    9.7445146524071014E+00 
    6.9096936821416746E+00 
    1.0672959082269699E+01 
    1.8573126320607241E+00 
    9.6732239696250968E+00 
    1.1677837574688997E+01 
    5.3061869855325385E+00 
    1.2146303855572187E+01 
    1.3434900358695955E+01 
    1.2018236578391619E+01 
    8.6086161983078391E+00 
    8.7492947724418730E+00 
    8.7306914778739646E+00 
    4.9128694195375395E+00 
    7.8514754933423720E+00 
    7.7177097327992588E+00 
    8.7189607293145936E+00 
    8.0226308104928545E+00 
    5.8013113666052341E-01 
    5.4889317076460804E+00 
    8.3584898670491441E+00 
    8.6948093759828406E+00 
    1.0960962652338713E+01 
    1.8455422138488331E+00 
    9.0954739629361505E+00 
    8.9949681951040521E+00 
    3.1661901257938911E+00 
    1.1907719607403461E+01 
    7.4406732295100584E+00 
    8.8713312525655326E+00 
    1.1954435193999842E+01 
    4.5502294008492461E+00 
    1.2003833198620423E+01 
    7.5388771980796108E+00 
    8.5074134632573895E-01 
    8.1345609610319247E+00 
    1.2505148519511772E+01 
    1.1734470570231629E+01 
    1.1751508120908625E+01 
    9.0887722405069535E+00 
    8.9361899847608957E+00 
    7.4222634565154548E+00 
    5.9583901230518430E+00 
    1.2048711634238774E+01 
    8.2589374965169391E+00 
    5.8263361473221131E+00 
    1.1746586099654412E+01 
    1.2336257243522580E+01 
    8.8908664145878245E+00 
    8.5420026009967831E+00 
    1.4597213377221403E+01 
    9.1312124295289365E+00 
    1.2068542699615371E+01 
    7.0451543066677260E+00 
    1.4741308892138798E+01 
    5.8203476242858807E+00 
    7.8083031151201823E+00 
    6.5122947913812697E+00 
    9.3293229524756001E+00 
    7.4317666652874621E+00 
    1.4725181867603801E+01 
    9.1724781143731899E+00 
    1.1451994211496906E+01 
    5.9885894996811810E+00 
    8.7762907746624919E+00 
    1.1930442169258678E+01 
    7.4569826853402317E+00 
    6.1926246321363854E+00 
    9.5562262565023186E+00 
    1.2139654548830668E+01 
    6.4123648428132460E+00 
    8.2444817785131352E+00 
    8.5651631326398476E+00 
    1.1713560428372880E+01 
    8.3833166287914747E+00 
    1.2112214394838647E+01 
    1.2661800607739069E+01 
    7.4459391628083686E+00 
    7.2932718317425032E+00 
    6.9406710804344574E+00 
    1.1832400578671781E+01 
    8.9871281162334355E+00 
    1.4311062717351451E+01 
    1.1168689560166719E+01 
    1.1893566623262377E+01 
    1.4015453734594761E+01 
    1.3442292392947278E+01 
    8.8196924092500382E+00 
    8.7041587765172128E+00 
    1.1538880554147102E+01 
    1.1766102028600343E+01 
    1.2200716235956389E+01 
    1.1976679277174997E+01 
    1.4615321623861195E+01 
    9.1308298455398695E+00 
    7.5321643302234316E+00 
    9.0937530614410438E+00 
    1.2584367303540855E+01 
    8.9056170570647630E+00 
    5.1764238083069314E+00 
    8.5932859627037494E+00 
    1.2965290177233351E+01 
    9.0262877120768739E+00 
    7.5414833776110264E+00 
    8.5048517273793482E+00 
    1.3066544698581950E+01 
    1.1760558271883630E+01 
    7.1505053001063663E+00 
    1.3191942718439801E+01 
    8.8459486227881303E+00 
    1.2203378468590689E+01 
    1.3078090793409000E+01 
    9.1705088585115018E+00 
    4.5522700457572780E+00 
    9.5251147474803890E+00 
    4.7100203523854915E+00 
    8.9493473394453620E+00 
    8.7669149603430423E+00 
    1.0019522330381884E+01 
    4.9803304299939217E+00 
    1.0632533878086958E+01 
    8.7876149943644801E+00 
    1.1968423063233917E+01 
    9.1428549771271221E+00 
    6.9823422845714784E+00 
    8.3923619976427570E+00 
    9.2114667922069362E+00 
    9.2225114984344927E+00 
    1.2703978169368625E+01 
    7.1906024391827135E+00 
    7.0649597171173060E+00 
    5.2413873742578589E+00 
    1.2225935207938264E+01 
    8.4276859222941152E+00 
    1.1581198150202201E+01 
    8.7384932831986646E+00 
    5.7409399375574885E+00 
    1.1783535740580906E+01 
    8.7127091546244984E+00 
    6.2703461794689641E+00 
    6.6512968795682026E+00 
    6.8921201542816997E+00 
    1.1994054117502456E+01 
    8.7209833123460943E+00 
    1.2557241324229604E+01 
    8.6695016117597987E+00 
    8.6061274625628368E+00 
    8.1652253531805155E+00 
    1.1854722459981065E+01 
    8.5232214281287089E+00 
    6.9288540559370819E+00 
    1.3430302501658486E+01 
    1.1923673950314363E+01 
    6.1003526309786436E+00 
    2.3288007352335067E+00 
    8.7097599976474687E+00 
    8.1656939615948865E+00 
    7.2876145598917885E+00 
    7.9842319984670853E+00 
    1.1906301848763636E+01 
    8.4322088230740491E+00 
    7.5877620808982282E+00 
    1.1784454085373003E+01 
    6.0452783280579734E+00 
    1.1504934111222992E+01 
    7.8824806790451349E+00 
    6.8704839096682218E+00 
    7.3590865300221138E+00 
    1.2278891193097152E+01 
    8.7569512327823809E+00 
    8.7646536254280338E+00 
    5.0562568740025622E+00 
    5.4725107516650047E+00 
    1.0912586263500820E+01 
    8.7740482259889649E+00 
    8.7547244468003385E+00 
    1.3177846859022781E+01 
    7.0661483551729338E+00 
    8.7854709614291213E+00 
    6.2520744721866741E+00 
    6.4410694501632992E+00 
    1.1846441122406761E+01 
    8.4157725935882244E+00 
    6.0436146463270566E+00 
    9.2045132530491571E+00 
    8.6459796258802566E+00 
    1.1849987294236481E+01 
    1.3264148371559488E+01 
    8.9837251519373507E-01 
    8.7149132531222815E+00 
    8.9887375707774630E+00 
    1.1906941133705223E+01 
    8.2030598061350730E+00 
    8.7322616923709653E+00 
    1.2749248818283617E+01 
    7.3897413682590001E+00 
    6.0984043777457222E+00 
    1.0558769096367392E+01 
    1.1745928621272192E+01 
    1.2635048567840546E+01 
    1.2883394575090160E+01 
    8.5607830532493256E+00 
    8.7069241686756609E+00 
    9.8039007398728852E+00 
    5.7935811311099767E+00 
    1.1853846437493166E+01 
    6.5795565911188323E+00 
    6.0372623016896672E+00 
    1.0904295866773772E+01 
    1.0263430718566818E+01 
    5.9195038855268738E+00 
    1.1776064686981741E+01 
    1.2622167553485067E+01 
    9.1444180021891679E+00 
    1.3358474611314362E+01 
    1.1803543321359284E+01 
    8.2881549413240521E+00 
    1.2388615240971665E+01 
    6.4469316567247628E+00 
    1.1761384877104742E+01 
    8.7139159151417473E+00 
    8.6727711361964399E+00 
    1.3333654741371042E+01 
    8.4561537181757487E+00 
    1.0653101646911026E+01 
    7.3453492829121583E+00 
    1.2728537032505587E+01 
    1.1682861396400016E+01 
    7.6714570012620227E+00 
    1.1726448208515121E+01 
    7.9065761737242903E+00 
    8.7411494901799589E+00 
    1.2586305907945782E+01 
    1.1968958846638500E+01 
    1.2625154499081146E+01 
    1.1909484952966263E+01 
    7.8566717709442049E+00 
    8.0659045425431124E+00 
    1.2631081960524625E+01 
    8.1796005656358002E+00 
    1.1626656166630449E+01 
    8.4497456897743408E+00 
    3.4168659154175844E+00 
    6.0968218382603743E+00 
    5.6447165443213834E+00 
    1.2589264849068021E+01 
    1.3269316750570514E+01 
    1.1741480386547760E+01 
    1.0144993677570602E+01 
    1.1983563525888444E+01 
    1.1782352833303522E+01 
    1.2284731576798432E+01 
    4.8811458095020734E+00 
    3.1873184658016038E+00 
    9.9537000778753981E+00 
    8.3512670798223319E+00 
    1.1907711715976674E+01 
    1.1905565323965615E+01 
    9.0033762988327481E+00 
    1.1937208007301292E+01 
    8.7014284734621938E+00 
    8.5695000556070280E+00 
    4.4069673338459410E+00 
    3.1737897343191124E+00 
    1.3063844749462406E+01 
    6.8347961377876416E+00 
    7.6175367983092803E+00 
    8.9149935149607966E+00 
    1.4598008476353407E+01 
    8.9968882110039239E+00 
    8.9284323414248625E+00 
    3.6132556211800040E+00 
    8.9973652496301781E+00 
    9.0091069199696747E+00 
    1.2173650775893066E+01 
    7.3626770281969840E+00 
    8.3369746786639869E+00 
    1.3218349332151302E+01 
    8.7244928713686676E+00 
    1.1754614856337620E+01 
    1.1969182721004682E+01 
    1.0785775911605324E+01 
    7.4104626455322595E+00 
    1.1908711548158587E+01 
    8.5101018754377709E+00 
    1.1918772609332269E+01 
    1.1701971684034195E+01 
    1.2606302075898993E+01 
    1.1908601590650056E+01 
    1.1210629499956708E+01 
    8.7121388011274963E+00 
    5.8727718835206009E+00 
    1.4474968725366727E+01 
    6.7150186532777276E+00 
    1.2548679824628644E+01 
    8.7094401744751853E+00 
    7.1020110193828563E+00 
    4.2851554760031085E+00 
    9.0387383624013431E+00 
    1.1897820721103736E+01 
    1.1893522152627238E+01 
    8.7235223253912011E+00 
    8.7034085722404448E+00 
    1.3411603159915174E+01 
    1.2831051333613779E+01 
    9.0136426953308888E+00 
    2.9677949966664192E+00 
    1.1185350010703305E+01 
    1.4723482650027258E+01 
    8.7156322800857069E+00 
    1.0457617922265150E+01 
    8.1978838319905236E+00 
    1.4337985700578550E+01 
    1.2901913874179549E+01 
    1.2657143544576007E+01 
    9.0332955015481939E+00 
    3.9975507492031079E+00 
    8.1586131099582850E+00 
    8.2240868398878746E+00 
    8.2734563786676976E+00 
    3.2283253058291299E+00 