# vtk DataFile Version 2.0
Pressure Field Data 
ASCII 
DATASET UNSTRUCTURED_GRID 

POINTS 2860 double 

    0.0000000000000000E+00     0.0000000000000000E+00     0.0000000000000000E+00 
    1.0000000000000000E+00     0.0000000000000000E+00     0.0000000000000000E+00 
    1.0000000000000000E+00     1.0000000000000000E+00     0.0000000000000000E+00 
    0.0000000000000000E+00     1.0000000000000000E+00     0.0000000000000000E+00 
    2.5000000000000000E-01     2.5000000000000000E-01     0.0000000000000000E+00 
    7.5000000000000000E-01     2.5000000000000000E-01     0.0000000000000000E+00 
    7.5000000000000000E-01     7.5000000000000000E-01     0.0000000000000000E+00 
    2.5000000000000000E-01     7.5000000000000000E-01     0.0000000000000000E+00 
    3.1249999999942091E-02     0.0000000000000000E+00     0.0000000000000000E+00 
    6.2499999999873469E-02     0.0000000000000000E+00     0.0000000000000000E+00 
    9.3749999999826514E-02     0.0000000000000000E+00     0.0000000000000000E+00 
    1.2499999999977961E-01     0.0000000000000000E+00     0.0000000000000000E+00 
    1.5624999999968961E-01     0.0000000000000000E+00     0.0000000000000000E+00 
    1.8749999999959971E-01     0.0000000000000000E+00     0.0000000000000000E+00 
    2.1874999999950970E-01     0.0000000000000000E+00     0.0000000000000000E+00 
    2.4999999999941969E-01     0.0000000000000000E+00     0.0000000000000000E+00 
    2.8124999999932920E-01     0.0000000000000000E+00     0.0000000000000000E+00 
    3.1249999999923850E-01     0.0000000000000000E+00     0.0000000000000000E+00 
    3.4374999999914790E-01     0.0000000000000000E+00     0.0000000000000000E+00 
    3.7499999999905720E-01     0.0000000000000000E+00     0.0000000000000000E+00 
    4.0624999999896660E-01     0.0000000000000000E+00     0.0000000000000000E+00 
    4.3749999999887590E-01     0.0000000000000000E+00     0.0000000000000000E+00 
    4.6874999999878530E-01     0.0000000000000000E+00     0.0000000000000000E+00 
    4.9999999999869471E-01     0.0000000000000000E+00     0.0000000000000000E+00 
    5.3124999999877620E-01     0.0000000000000000E+00     0.0000000000000000E+00 
    5.6249999999885780E-01     0.0000000000000000E+00     0.0000000000000000E+00 
    5.9374999999893940E-01     0.0000000000000000E+00     0.0000000000000000E+00 
    6.2499999999902101E-01     0.0000000000000000E+00     0.0000000000000000E+00 
    6.5624999999910261E-01     0.0000000000000000E+00     0.0000000000000000E+00 
    6.8749999999918421E-01     0.0000000000000000E+00     0.0000000000000000E+00 
    7.1874999999926570E-01     0.0000000000000000E+00     0.0000000000000000E+00 
    7.4999999999934730E-01     0.0000000000000000E+00     0.0000000000000000E+00 
    7.8124999999942890E-01     0.0000000000000000E+00     0.0000000000000000E+00 
    8.1249999999951039E-01     0.0000000000000000E+00     0.0000000000000000E+00 
    8.4374999999959199E-01     0.0000000000000000E+00     0.0000000000000000E+00 
    8.7499999999967359E-01     0.0000000000000000E+00     0.0000000000000000E+00 
    9.0624999999975520E-01     0.0000000000000000E+00     0.0000000000000000E+00 
    9.3749999999983680E-01     0.0000000000000000E+00     0.0000000000000000E+00 
    9.6874999999991840E-01     0.0000000000000000E+00     0.0000000000000000E+00 
    1.0000000000000000E+00     3.1249999999942091E-02     0.0000000000000000E+00 
    1.0000000000000000E+00     6.2499999999873469E-02     0.0000000000000000E+00 
    1.0000000000000000E+00     9.3749999999826514E-02     0.0000000000000000E+00 
    1.0000000000000000E+00     1.2499999999977961E-01     0.0000000000000000E+00 
    1.0000000000000000E+00     1.5624999999968961E-01     0.0000000000000000E+00 
    1.0000000000000000E+00     1.8749999999959971E-01     0.0000000000000000E+00 
    1.0000000000000000E+00     2.1874999999950970E-01     0.0000000000000000E+00 
    1.0000000000000000E+00     2.4999999999941969E-01     0.0000000000000000E+00 
    1.0000000000000000E+00     2.8124999999932920E-01     0.0000000000000000E+00 
    1.0000000000000000E+00     3.1249999999923850E-01     0.0000000000000000E+00 
    1.0000000000000000E+00     3.4374999999914790E-01     0.0000000000000000E+00 
    1.0000000000000000E+00     3.7499999999905720E-01     0.0000000000000000E+00 
    1.0000000000000000E+00     4.0624999999896660E-01     0.0000000000000000E+00 
    1.0000000000000000E+00     4.3749999999887590E-01     0.0000000000000000E+00 
    1.0000000000000000E+00     4.6874999999878530E-01     0.0000000000000000E+00 
    1.0000000000000000E+00     4.9999999999869471E-01     0.0000000000000000E+00 
    1.0000000000000000E+00     5.3124999999877620E-01     0.0000000000000000E+00 
    1.0000000000000000E+00     5.6249999999885780E-01     0.0000000000000000E+00 
    1.0000000000000000E+00     5.9374999999893940E-01     0.0000000000000000E+00 
    1.0000000000000000E+00     6.2499999999902101E-01     0.0000000000000000E+00 
    1.0000000000000000E+00     6.5624999999910261E-01     0.0000000000000000E+00 
    1.0000000000000000E+00     6.8749999999918421E-01     0.0000000000000000E+00 
    1.0000000000000000E+00     7.1874999999926570E-01     0.0000000000000000E+00 
    1.0000000000000000E+00     7.4999999999934730E-01     0.0000000000000000E+00 
    1.0000000000000000E+00     7.8124999999942890E-01     0.0000000000000000E+00 
    1.0000000000000000E+00     8.1249999999951039E-01     0.0000000000000000E+00 
    1.0000000000000000E+00     8.4374999999959199E-01     0.0000000000000000E+00 
    1.0000000000000000E+00     8.7499999999967359E-01     0.0000000000000000E+00 
    1.0000000000000000E+00     9.0624999999975520E-01     0.0000000000000000E+00 
    1.0000000000000000E+00     9.3749999999983680E-01     0.0000000000000000E+00 
    1.0000000000000000E+00     9.6874999999991840E-01     0.0000000000000000E+00 
    9.6875000000003686E-01     1.0000000000000000E+00     0.0000000000000000E+00 
    9.3750000000011691E-01     1.0000000000000000E+00     0.0000000000000000E+00 
    9.0625000000015765E-01     1.0000000000000000E+00     0.0000000000000000E+00 
    8.7500000000017863E-01     1.0000000000000000E+00     0.0000000000000000E+00 
    8.4375000000028044E-01     1.0000000000000000E+00     0.0000000000000000E+00 
    8.1250000000040856E-01     1.0000000000000000E+00     0.0000000000000000E+00 
    7.8125000000054956E-01     1.0000000000000000E+00     0.0000000000000000E+00 
    7.5000000000066480E-01     1.0000000000000000E+00     0.0000000000000000E+00 
    7.1875000000086831E-01     1.0000000000000000E+00     0.0000000000000000E+00 
    6.8750000000102829E-01     1.0000000000000000E+00     0.0000000000000000E+00 
    6.5625000000114431E-01     1.0000000000000000E+00     0.0000000000000000E+00 
    6.2500000000129829E-01     1.0000000000000000E+00     0.0000000000000000E+00 
    5.9375000000147926E-01     1.0000000000000000E+00     0.0000000000000000E+00 
    5.6250000000168354E-01     1.0000000000000000E+00     0.0000000000000000E+00 
    5.3125000000188671E-01     1.0000000000000000E+00     0.0000000000000000E+00 
    5.0000000000205835E-01     1.0000000000000000E+00     0.0000000000000000E+00 
    4.6875000000192979E-01     1.0000000000000000E+00     0.0000000000000000E+00 
    4.3750000000180111E-01     1.0000000000000000E+00     0.0000000000000000E+00 
    4.0625000000167238E-01     1.0000000000000000E+00     0.0000000000000000E+00 
    3.7500000000154382E-01     1.0000000000000000E+00     0.0000000000000000E+00 
    3.4375000000141509E-01     1.0000000000000000E+00     0.0000000000000000E+00 
    3.1250000000128642E-01     1.0000000000000000E+00     0.0000000000000000E+00 
    2.8125000000115769E-01     1.0000000000000000E+00     0.0000000000000000E+00 
    2.5000000000102918E-01     1.0000000000000000E+00     0.0000000000000000E+00 
    2.1875000000090050E-01     1.0000000000000000E+00     0.0000000000000000E+00 
    1.8750000000077180E-01     1.0000000000000000E+00     0.0000000000000000E+00 
    1.5625000000064329E-01     1.0000000000000000E+00     0.0000000000000000E+00 
    1.2500000000051459E-01     1.0000000000000000E+00     0.0000000000000000E+00 
    9.3750000000385914E-02     1.0000000000000000E+00     0.0000000000000000E+00 
    6.2500000000257239E-02     1.0000000000000000E+00     0.0000000000000000E+00 
    3.1250000000128557E-02     1.0000000000000000E+00     0.0000000000000000E+00 
    0.0000000000000000E+00     9.6875000000003686E-01     0.0000000000000000E+00 
    0.0000000000000000E+00     9.3750000000011691E-01     0.0000000000000000E+00 
    0.0000000000000000E+00     9.0625000000015765E-01     0.0000000000000000E+00 
    0.0000000000000000E+00     8.7500000000017863E-01     0.0000000000000000E+00 
    0.0000000000000000E+00     8.4375000000028044E-01     0.0000000000000000E+00 
    0.0000000000000000E+00     8.1250000000040856E-01     0.0000000000000000E+00 
    0.0000000000000000E+00     7.8125000000054956E-01     0.0000000000000000E+00 
    0.0000000000000000E+00     7.5000000000066480E-01     0.0000000000000000E+00 
    0.0000000000000000E+00     7.1875000000086831E-01     0.0000000000000000E+00 
    0.0000000000000000E+00     6.8750000000102829E-01     0.0000000000000000E+00 
    0.0000000000000000E+00     6.5625000000114431E-01     0.0000000000000000E+00 
    0.0000000000000000E+00     6.2500000000129829E-01     0.0000000000000000E+00 
    0.0000000000000000E+00     5.9375000000147926E-01     0.0000000000000000E+00 
    0.0000000000000000E+00     5.6250000000168354E-01     0.0000000000000000E+00 
    0.0000000000000000E+00     5.3125000000188671E-01     0.0000000000000000E+00 
    0.0000000000000000E+00     5.0000000000205835E-01     0.0000000000000000E+00 
    0.0000000000000000E+00     4.6875000000192979E-01     0.0000000000000000E+00 
    0.0000000000000000E+00     4.3750000000180111E-01     0.0000000000000000E+00 
    0.0000000000000000E+00     4.0625000000167238E-01     0.0000000000000000E+00 
[...]
CELL_DATA 2795 
SCALARS Pressure double 1 
LOOKUP_TABLE default 

    7.9519730926057814E+00 
    1.9773024531757947E+01 
    1.3429367925928181E+01 
    1.3091786708914341E+01 
    1.0089131500258107E+01 
    1.9448117521065420E+01 
    2.0590001072979870E+01 
    6.9533627851949618E+00 
    1.4047331435310342E+01 
    1.0559843451975283E+01 
    8.8591558142097888E+00 
    1.9017202379911385E+01 
    1.9620313883473514E+01 
    1.9394049792843614E+01 
    1.2207113511175031E+01 
    6.8166600806027287E+00 
    1.1933111180931459E+01 
    9.4891021528735919E+00 
    1.8392516492431835E+01 
    1.3404226946062156E+01 
    1.3285245037878493E+01 
    1.9278584015938318E+01 
    1.2706171260199785E+01 
    4.4743443396413157E-01 
    1.9039821986171425E+01 
    1.9594000158918462E+01 
    2.0639214382876130E+01 
    8.4832130351203965E+00 
    1.8871651696205216E+01 
    2.0654162582950839E+01 
    1.3656138818999231E+01 
    1.3632499020204639E+01 
    9.2112632821515241E+00 
    1.3387678543592305E+01 
    4.0562233573888706E+00 
    1.1941401997314914E+01 
    1.3369125428487095E+01 
    2.0710543581280778E+01 
    2.0557762293346610E+01 
    1.9038685235725747E+01 
    9.9639420804447596E+00 
    1.9132250413224046E+01 
    9.2911921492957106E-01 
    1.3398267857144051E+01 
    2.0366400584104490E+01 
    1.9925170671996071E+01 
    1.8998727902853371E+01 
    1.4509766095818385E+01 
    1.9029958587775216E+01 
    1.2223229611468655E+01 
    1.1596033223797221E+01 
    1.3590908771687248E+01 
    1.3282332529775328E+01 
    1.2000319348476879E+01 
    1.3745497157117923E+01 
    1.8050766012663566E+01 
    1.5842470021728854E+01 
    1.0153733077710493E+01 
    1.9295404160312575E+01 
    1.9145127062311161E+01 
    1.3025907438083109E+01 
    1.2867065666453815E+01 
    1.2958724064890371E+01 
    2.0512903581086697E+01 
    2.0917477970801738E+01 
    1.1946184341293936E+01 
    1.3588899937009618E+01 
    1.8665959360277483E+01 
    1.5643992471337887E+01 
    1.2926534991958418E+01 
    2.0861697729652377E+01 
    1.9311077078806534E+01 
    1.1766278826521333E+01 
    2.0064621578823044E+01 
    1.4056533541746496E+01 
    1.8852993664023671E+01 
    2.0734856974520845E+01 
    1.4117788319172806E+01 
    8.0703381627607680E+00 
    1.3610216510323340E+01 
    2.0568584117589598E+01 
    2.0929635842572026E+01 
    1.1975527479734851E+01 
    1.3528196572694963E+01 
    2.0988973926870116E+01 
    1.3365513749497008E+01 
    1.2834250195581381E+01 
    1.6251825996105918E+01 
    7.6693297445492208E+00 
    1.1633052379658187E+01 
    1.3524205511240121E+01 
    1.4222866853077141E+01 
    2.2874471315511144E+01 
    9.7580423780476924E+00 
    1.3598089221363139E+01 
    1.8963490660032026E+01 
    1.9522263617665491E+01 
    8.4145196042307973E+00 
    1.3194729224369729E+01 
    1.3563466586146076E+01 
    1.9570362996339586E+01 
    1.3549686996661249E+01 
    1.9425948912209567E+01 
    4.8426965752893079E+00 
    8.6016158757589771E+00 
    1.3853641122939250E+01 
    1.9786530780348386E+01 
    1.1892626952938430E+01 
    1.2697995115048032E+01 
    1.3521745738278817E+01 
    1.2789444108279888E+01 
    1.5366091226839195E+01 
    1.2323023474723165E+01 
    1.1777734987678247E+01 
    8.8798943688114846E+00 
    1.6321477896564840E+01 
    1.3638540362037935E+01 
    2.0394392096337434E+01 
    1.1562267349712521E+01 
    1.3062546920904925E+01 
    1.9323227687865714E+01 
    1.0638180512682268E+01 
    2.0018815264035013E+01 
    1.3448175324854201E+01 
    1.2971245987966505E+01 
    1.9532418210802550E+01 
    1.3624706949437538E+01 
    2.0734475618122495E+01 
    1.6285211504509885E+01 
    1.7782821804016667E+01 
    2.0663996739566514E+01 
    9.7832023225616531E+00 
    1.3877042560537534E+01 
    1.9560205147629809E+01 
    3.6025644972698458E+00 
    1.3717346570915112E+01 
    2.0613520687427535E+01 
    1.3004714262956373E+01 
    1.5070004913260002E+01 
    8.2995410270551169E+00 
    1.8982586407733272E+01 
    2.3464637503634915E+01 
    1.6982930207667550E+01 
    1.3009823031188354E+01 
    1.1478301007517212E+01 
    1.4595590312560777E+01 
    1.3467736116046854E+01 
    8.9502741995939008E+00 
    2.0667522143918735E+01 
    1.9488575949818397E+01 
    1.8967883448156169E+01 
    1.4221537320756196E+01 
    1.1723518679110851E+01 
    1.3278493953589436E+01 
    2.0093636938402089E+01 
    1.2102657531206287E+01 
    1.3607869261983648E+01 
    1.2349913207445855E+01 
    1.6025690352598886E+01 
    2.3450581633851364E+01 
    1.8946007128990956E+01 
    1.1556998379038301E+01 
    1.9848431347068978E+01 
    1.9726005062215286E+01 
    1.9843395719364416E+01 
    2.1272906489655071E+01 
    2.1984285133315460E+01 
    1.9882295621720889E+01 
    1.3579161180010470E+01 
    1.4792716291420692E+01 
    1.9611753426327557E+01 
    2.0374854180015664E+01 
    9.3654048038029796E+00 
    1.8992806247980273E+01 
    2.0021696022998544E+01 
    9.1064789014201075E+00 
    2.1183423887085418E+01 
    2.1131314166058019E+01 
    1.8497278594616450E+01 
    1.3961578119452774E+01 
    3.3673556875746633E+00 
    2.0623385266199339E+01 
    1.3780989565361491E+01 
    2.0827983267151264E+01 
    1.2905209230883905E+01 
    2.0292810276368826E+01 
    1.1653883007667127E+00 
    1.7775221186445346E+01 
    1.2930697400866466E+01 
    1.1661835190655951E+01 
    1.1319437824669659E+01 
    1.3410096641040404E+01 
    1.4856138811036665E+01 
    1.4216110577957872E+01 
    9.0072530313258685E+00 
    2.0387418590627341E+01 
    1.9602169035812079E+01 
    1.5804279293766738E+01 
    1.3842842159831914E+01 
    1.8110406458334887E+00 
    1.0310535725947579E+01 
    6.7553501217722571E+00 
    2.0672600470652597E+01 
    1.5223064721994536E+01 
    1.9487003143444099E+01 
    1.9700549209852621E+01 
    1.2213116048855587E+01 
    1.5942241781349678E+01 
    1.8941681652659437E+01 
    2.1111118038898152E+01 
    8.2809535878367022E+00 
    1.7097068574279650E+01 
    1.4142162548082101E+01 
    7.2456244657460651E+00 
    1.2210140108218789E+01 
    1.6721155658731359E+01 
    1.9643230274720768E+01 
    1.3468390348436262E+01 
    1.9810307150430109E+01 
    1.9452212969417470E+01 
    1.9378276067048741E+01 
    1.3281978952241113E+01 
    1.1527023135440839E+01 
    1.8984189279688966E+01 
    1.1757947294976642E+01 
    1.3560614772797006E+01 
    1.1493944478820712E+01 
    1.3565426527982750E+01 
    1.9714726807271298E+01 
    8.0926721244439506E+00 
    1.2075220693633142E+01 
    2.0536932032594706E+01 
    1.3290124122406741E+01 
    1.5083911281477357E+01 
    8.3016418700564980E+00 
    1.1855394062508886E+01 
    1.9417032821583284E+01 
    1.9892824401344740E+01 
    6.7698176325272890E+00 
    1.3308789843808510E+01 
    1.1547625765287597E+01 
    2.1683786485577148E+01 
    2.0944829479524838E+01 
    2.2026142212721449E+01 
    1.3332386113590648E+01 
    1.9673550772052785E+01 
    1.8851979404662522E+01 
    1.3149357490662933E+01 
    1.8964211158678999E+01 
    1.3843287272568599E+01 
    7.3480730671317245E+00 
    1.3782742951070510E+01 
    2.0533046733153821E+01 
    1.8957404974228684E+01 
    8.8008203240979643E+00 
    1.9009128119350628E+01 
    1.4892595468602300E+01 
    1.3688789625327434E+01 
    1.3099283004784532E+01 
    1.8722809355130920E+01 
    1.4379900736471098E+01 
    1.8989675632400115E+01 
    1.3318416407345451E+01 
    7.6324444908383793E+00 
    1.3650845293675047E+01 
    1.1335612858667377E+01 
    1.7015908303047816E+01 
    2.0799484373992520E+01 
    1.8987463135914574E+01 
    2.0604123679782706E+01 
    1.3216071392028068E+01 
    8.5719942486545211E+00 
    8.7013160060773327E+00 
    1.3938009742788662E+01 
    1.3526444529579507E+01 
    1.8370696628377550E+00 
    1.8096459757819506E+01 
    2.1329962254423450E+01 
    1.2931031514916265E+01 
    7.7135883767017823E+00 
    1.5790004247914590E+01 
    1.8998614823165756E+01 
    9.4153881879514039E+00 
    6.0355017220602960E+00 
    1.3510858084687042E+01 
    1.9142774895819919E+01 
    2.0268547766999159E+01 
    1.9909627425039062E+01 
    1.9897523813821778E+01 
    9.1219332300543545E+00 
    1.3683956690345378E+01 
    1.8440580421996458E+01 
    1.0348570479724117E+01 
    1.9597801423786603E+01 
    1.6258110700830894E+01 
    8.8341833662706879E+00 
    1.9111000126140468E+01 
    2.0698667847816157E+01 
    1.9245262182753233E+01 
    9.0140300133631559E+00 
    1.3584267833894836E+01 
    1.0052697203829172E+01 
    1.2764445643597925E+01 
    1.8990389060331523E+01 
    1.8970213155954198E+01 
    9.0785931811947584E+00 
    2.0352622125556294E+01 
    1.4281173317449504E+01 
    1.9052831940406673E+01 
    2.0438691800795912E+01 
    1.9019517589964899E+01 
    1.7338734237596380E+01 
    2.1770052050770452E+01 
    1.2847420370517238E+01 
    2.0557610779789307E+01 
    1.9075781206366877E+01 
    2.0670363987951035E+01 
    2.0338696422087121E+01 
    1.2992545409156659E+01 
    1.3415551701656080E+01 
    1.2920134023154597E+01 
    1.6570299338650162E+01 
    4.8655021310547850E+00 
    1.3852412455380826E+01 
    2.1926544798824363E+01 
    1.3849727117307189E+01 
    1.4107951814383050E+01 
    2.0629516479461138E+01 
    2.0949384721054400E+01 
    1.2694333675972420E+01 
    1.9014807590681219E+01 
    1.8971623614811776E+01 
    1.4090513878068288E+01 
    2.0262113203720798E+01 
    9.3061615595684426E+00 
    5.8886478700546734E+00 
    1.4483423532448665E+01 
    1.3865558542498977E+01 
    1.8958368421324170E+01 
    8.3989410582249313E+00 
    1.9799230257091324E+01 
    6.0004986848091537E+00 
    1.3788678837699125E+01 
    1.2987206578429113E+01 
    1.3557315619545546E+01 
    2.3507953919055637E+01 
    4.7219596065981015E+00 
    1.3740384881901779E+01 
    1.6662359642333094E+01 
    1.3072630694137787E+01 
    1.0071084046614667E+01 
    2.0075651528040673E+01 
    2.2979605423845847E+01 
    2.0272876291657983E+01 
    1.3656305468419777E+01 
    7.2046375568670387E+00 
    2.2805404697138169E+01 
    1.9579364103789963E+01 
    9.5094016981079115E+00 
    1.3209810732283129E+01 
    2.1248015455601809E+01 
    4.0013908434066741E+00 
    1.3937333158550757E+01 
    2.0348860088837878E+01 
    1.3575864024478307E+01 
    1.1683675884156685E+01 
    1.3794387126155621E+01 
    1.8530520496728034E+01 
    1.3555646434126379E+01 
    6.2952433932772545E+00 
    1.1528363021653583E+00 
    9.8075702918012144E+00 
    2.1566899764001526E+01 
    1.2919496042619265E+01 
    1.5476849633179212E+01 
    1.4795590986311728E+01 
    1.7106929838046458E+01 
    1.3591567883692743E+01 
    1.9434277956711394E+01 
    2.3524285235666735E+01 
    1.6136029071053478E+01 
    2.0515411019506026E+01 
    6.7007470038645112E-01 
    1.8971043633648524E+01 
    7.0911161377316994E+00 
    2.2137104498126025E+01 
    1.3758889404222257E+01 
    1.1930409837873155E+01 
    1.0284984643003009E+01 
    6.6663876472938455E+00 
    1.5130021293908213E+01 
    1.0464568111497963E+01 
    1.6857872920115618E+01 
    2.8244350601085166E+00 
    1.4944662604044350E+01 
    1.8836949223073844E+01 
    7.8830080895081291E+00 
    1.9675528575411288E+01 
    2.1837997620323403E+01 
    1.9494360307536848E+01 
    1.3569381822668237E+01 
    1.3549862000631116E+01 
    1.3749044097500191E+01 
    7.3205472881392035E+00 
    1.2515306190717313E+01 
    1.2279717561564908E+01 
    1.3734066183116431E+01 
    1.2818082379853267E+01 
    8.6003009844978739E-01 
    8.2407447570184438E+00 
    1.3353342127143220E+01 
    1.3698882559005321E+01 
    1.7385353680641217E+01 
    2.6150021767828293E+00 
    1.4034563705737847E+01 
    1.3875268777790033E+01 
    4.5359281431098823E+00 
    1.9274051292119928E+01 
    1.1778769029724508E+01 
    1.3706965482935610E+01 
    1.9566133583524113E+01 
    6.6850530499676184E+00 
    1.9426452148534523E+01 
    1.1963151556568674E+01 
    1.1782745080930646E+00 
    1.3004678595101765E+01 
    2.0427445681129846E+01 
    1.8978604038141501E+01 
    1.9014432599691151E+01 
    1.4215211182657487E+01 
    1.3792055984574349E+01 
    1.1760200568166356E+01 
    9.0450352081636307E+00 
    1.9742666326540888E+01 
    1.3199923311863746E+01 
    8.7640905812163830E+00 
    1.9003207550900537E+01 
    2.0098031461118005E+01 
    1.3969684129278370E+01 
    1.3349092760765410E+01 
    2.3380789200048795E+01 
    1.4091857231586774E+01 
    1.9776147157710348E+01 
    1.1087599319239546E+01 
    2.3554478159838407E+01 
    8.6505444012940114E+00 
    1.2323555152583706E+01 
    9.7483829697881941E+00 
    1.4414907661161148E+01 
    1.1309153882751700E+01 
    2.3536106617928134E+01 
    1.4158886235413759E+01 
    1.8511800482101393E+01 
    8.8999829161108082E+00 
    1.3584789338458307E+01 
    1.9530671063755506E+01 
    1.1369861947496702E+01 
    9.4811419117396927E+00 
    1.5416440010851911E+01 
    1.9755347846054931E+01 
    9.6192650114362515E+00 
    1.3019406143422316E+01 
    1.3396586866799080E+01 
    1.8932260674882123E+01 
    1.3109641887572089E+01 
    1.9841085061459630E+01 
    2.0713209510760269E+01 
    1.1795905230566651E+01 
    1.1531382525675532E+01 
    1.0521315948057836E+01 
    1.9164821507155388E+01 
    1.3898885584021388E+01 
    2.3026069205474656E+01 
    1.7568955388740033E+01 
    1.9461372678457870E+01 
    2.2648785948000405E+01 
    2.1844568395372214E+01 
    1.3639436765547073E+01 
    1.3712943279654013E+01 
    1.8515836784495107E+01 
    1.9038962472065865E+01 
    2.0015239459726072E+01 
    1.9609792445733092E+01 
    2.3410667280233053E+01 
    1.4091182179435881E+01 
    1.1959328696270646E+01 
    1.4056004871885325E+01 
    2.0579843192725594E+01 
    1.3750343362405145E+01 
    7.6711584779422815E+00 
    1.3546730070656686E+01 
    2.1211779007575728E+01 
    1.3923737207828045E+01 
    1.1967513333731349E+01 
    1.3326829976916780E+01 
    2.1360372032933505E+01 
    1.9236036940967900E+01 
    1.1234946619531534E+01 
    2.1540012002689398E+01 
    1.3672555631738543E+01 
    1.9993729889268199E+01 
    2.1373095716925004E+01 
    1.4534999985092920E+01 
    6.7137158857178720E+00 
    1.5147762463856631E+01 
    6.9726615519359605E+00 
    1.3808760789193526E+01 
    1.3581544222653548E+01 
    1.6019554835765600E+01 
    7.4348179416224394E+00 
    1.7122397627056273E+01 
    1.3599878882608458E+01 
    1.9594999349660217E+01 
    1.4739424742794691E+01 
    1.0841871118740098E+01 
    1.3143347620581789E+01 
    1.4424131099907097E+01 
    1.4235718116526240E+01 
    2.0826231118107845E+01 
    1.1344260724293457E+01 
    1.1117427051070564E+01 
    7.8775323944426869E+00 
    2.0063471853073565E+01 
    1.3205104003503116E+01 
    1.8876230002911132E+01 
    1.3545205023716528E+01 
    8.7386667752770357E+00 
    1.9252919615759907E+01 
    1.3518733589699771E+01 
    9.6829056101861610E+00 
    1.0374427247822966E+01 
    1.0809054386727686E+01 
    1.9642889663188917E+01 
    1.3736807538613837E+01 
    2.0530318788659336E+01 
    1.3473712457024202E+01 
    1.3403281793371555E+01 
    1.2907098142508410E+01 
    1.9386780043117980E+01 
    1.3300346549481450E+01 
    1.0871463551434450E+01 
    2.1834624760857036E+01 
    1.9508957956276898E+01 
    9.0759454045535577E+00 
    3.3017376239590277E+00 
    1.3722712129602987E+01 
    1.2687950523217937E+01 
    1.1518781477398178E+01 
    1.2623061633956713E+01 
    1.9314974652115211E+01 
    1.3312595935244417E+01 
    1.2015266031539429E+01 
    1.9077994922744587E+01 
    8.9950266760758648E+00 
    1.8462957833012322E+01 
    1.2219268592034100E+01 
    1.0705784680606726E+01 
    1.1650110971030328E+01 
    2.0117116914551193E+01 
    1.3560110975222514E+01 
    1.3570155678993187E+01 
    7.5742483582035440E+00 
    8.3022830230503786E+00 
    1.7455163251212120E+01 
    1.3581744190870820E+01 
    1.3776902405220985E+01 
    2.1528370622778223E+01 
    1.1118892454248700E+01 
    1.3596105248028659E+01 
    9.3312325189333354E+00 
    9.6593932757785890E+00 
    1.9327926636367735E+01 
    1.3142683375781552E+01 
    9.3000935665544713E+00 
    1.4224506948601856E+01 
    1.3476130685762072E+01 
    1.9352115143591572E+01 
    2.1649700784196579E+01 
    1.2467198025158550E+00 
    1.3729421970259111E+01 
    1.3864118693936994E+01 
    1.9482718511142664E+01 
    1.3100611234975311E+01 
    1.3527157993710478E+01 
    2.0908691769250847E+01 
    1.1698957339975951E+01 
    9.3952572444994846E+00 
    1.6416140047653773E+01 
    1.9000334285411547E+01 
    2.0662338280556874E+01 
    2.1070697160503347E+01 
    1.3512516118940614E+01 
    1.3717361669646543E+01 
    1.5198901182744274E+01 
    8.5952142684381485E+00 
    1.9220530134410922E+01 
    1.0240947320159918E+01 
    8.9764158091738846E+00 
    1.7105061306842437E+01 
    1.5997488599634668E+01 
    8.7914557709439283E+00 
    1.9059735489834058E+01 
    2.0643639382027366E+01 
    1.4113204420400406E+01 
    2.1785041415129982E+01 
    1.9114513195182891E+01 
    1.3166721141765676E+01 
    2.0163847590128512E+01 
    9.6477138934537994E+00 
    1.9027097632593104E+01 
    1.3727792144094954E+01 
    1.3677276258985524E+01 
    2.1761103526231818E+01 
    1.3261476401871562E+01 
    1.6705520403447597E+01 
    1.1620716226281511E+01 
    2.0822140278684998E+01 
    1.8854645346344139E+01 
    1.2173664804155891E+01 
    1.8975915764839893E+01 
    1.2192762173863514E+01 
    1.3534783984199818E+01 
    2.0582721955627985E+01 
    1.9592247148384086E+01 
    2.0647624902791964E+01 
    1.9485513467983854E+01 
    1.2532606161632355E+01 
    1.2819177865317805E+01 
    2.0660146223264380E+01 
    1.2999972074395139E+01 
    1.8695109596432161E+01 
    1.3235511377549601E+01 
    4.9222198784336175E+00 
    9.0845103686211619E+00 
    8.3900165186809907E+00 
    2.0588417019601991E+01 
    2.1661875427214415E+01 
    1.8996150882236943E+01 
    1.5665591849693445E+01 
    1.9450011531850009E+01 
    1.9072954854894732E+01 
    2.0036597896507281E+01 
    7.2623826926655539E+00 
    4.5706697539509422E+00 
    1.5355911972356997E+01 
    1.3306214985144283E+01 
    1.9329354144944134E+01 
    1.9324920638559444E+01 
    1.3887444128660736E+01 
    1.9387554751613965E+01 
    1.3709486360644522E+01 
    1.3603989328188655E+01 
    6.4404779968318335E+00 
    4.5408925569960212E+00 
    2.1352965996296557E+01 
    1.0298328522750998E+01 
    1.2101931884678121E+01 
    1.3764516557602146E+01 
    2.3385886227493216E+01 
    1.3876115682378414E+01 
    1.4124473666802247E+01 
    5.2578727342748639E+00 
    1.3875927224147597E+01 
    1.3893271468042469E+01 
    1.9721194851520078E+01 
    1.1657411494661925E+01 
    1.2976371551103171E+01 
    2.1582466457132863E+01 
    1.3740780096073989E+01 
    1.9018917460807973E+01 
    1.9369271478179186E+01 
    1.6795602265059721E+01 
    1.1296573732724827E+01 
    1.9481709315942314E+01 
    1.3474136833412443E+01 
    1.9280374845447614E+01 
    1.8906653236602505E+01 
    2.0617562195738266E+01 
    1.9489530281294108E+01 
    1.7810036520234309E+01 
    1.3725091525755058E+01 
    8.7286834853329189E+00 
    2.3236236587330129E+01 
    1.0491027785672019E+01 
    2.0539178045422222E+01 
    1.3721645160320268E+01 
    1.1197846943924949E+01 
    6.2757306216547697E+00 
    1.3938577990094757E+01 
    1.9465090355998878E+01 
    1.9445324085587210E+01 
    1.3510952721901033E+01 
    1.3713917531942151E+01 
    2.1846418637939582E+01 
    2.0989937150670219E+01 
    1.3900986822977533E+01 
    4.2564492590372538E+00 
    1.7677041613941366E+01 
    2.3530695802615679E+01 
    1.3729491123620612E+01 
    1.6206666155087706E+01 
    1.3100578570758966E+01 
    2.3061658277080952E+01 
    2.1102752882583406E+01 
    2.0758912155476114E+01 
    1.3928931613835219E+01 
    5.8923958772075826E+00 
    1.3045607693388650E+01 
    1.3130693614890934E+01 
    1.3180133343976543E+01 
    4.6769553611098180E+00 