# vtk DataFile Version 2.0
Pressure Field Data 
ASCII 
DATASET UNSTRUCTURED_GRID 

POINTS 2860 double 

    0.0000000000000000E+00     0.0000000000000000E+00     0.0000000000000000E+00 
    1.0000000000000000E+00     0.0000000000000000E+00     0.0000000000000000E+00 
    1.0000000000000000E+00     1.0000000000000000E+00     0.0000000000000000E+00 
    0.0000000000000000E+00     1.0000000000000000E+00     0.0000000000000000E+00 
    2.5000000000000000E-01     2.5000000000000000E-01     0.0000000000000000E+00 
    7.5000000000000000E-01     2.5000000000000000E-01     0.0000000000000000E+00 
    7.5000000000000000E-01     7.5000000000000000E-01     0.0000000000000000E+00 
    2.5000000000000000E-01     7.5000000000000000E-01     0.0000000000000000E+00 
    3.1249999999942091E-02     0.0000000000000000E+00     0.0000000000000000E+00 
    6.2499999999873469E-02     0.0000000000000000E+00     0.0000000000000000E+00 
    9.3749999999826514E-02     0.0000000000000000E+00     0.0000000000000000E+00 
    1.2499999999977961E-01     0.0000000000000000E+00     0.0000000000000000E+00 
    1.5624999999968961E-01     0.0000000000000000E+00     0.0000000000000000E+00 
    1.8749999999959971E-01     0.0000000000000000E+00     0.0000000000000000E+00 
    2.1874999999950970E-01     0.0000000000000000E+00     0.0000000000000000E+00 
    2.4999999999941969E-01     0.0000000000000000E+00     0.0000000000000000E+00 
    2.8124999999932920E-01     0.0000000000000000E+00     0.0000000000000000E+00 
    3.1249999999923850E-01     0.0000000000000000E+00     0.0000000000000000E+00 
    3.4374999999914790E-01     0.0000000000000000E+00     0.0000000000000000E+00 
    3.7499999999905720E-01     0.0000000000000000E+00     0.0000000000000000E+00 
    4.0624999999896660E-01     0.0000000000000000E+00     0.0000000000000000E+00 
    4.3749999999887590E-01     0.0000000000000000E+00     0.0000000000000000E+00 
    4.6874999999878530E-01     0.0000000000000000E+00     0.0000000000000000E+00 
    4.9999999999869471E-01     0.0000000000000000E+00     0.0000000000000000E+00 
    5.3124999999877620E-01     0.0000000000000000E+00     0.0000000000000000E+00 
    5.6249999999885780E-01     0.0000000000000000E+00     0.0000000000000000E+00 
    5.9374999999893940E-01     0.0000000000000000E+00     0.0000000000000000E+00 
    6.2499999999902101E-01     0.0000000000000000E+00     0.0000000000000000E+00 
    6.5624999999910261E-01     0.0000000000000000E+00     0.0000000000000000E+00 
    6.8749999999918421E-01     0.0000000000000000E+00     0.0000000000000000E+00 
    7.1874999999926570E-01     0.0000000000000000E+00     0.0000000000000000E+00 
    7.4999999999934730E-01     0.0000000000000000E+00     0.0000000000000000E+00 
    7.8124999999942890E-01     0.0000000000000000E+00     0.0000000000000000E+00 
    8.1249999999951039E-01     0.0000000000000000E+00     0.0000000000000000E+00 
    8.4374999999959199E-01     0.0000000000000000E+00     0.0000000000000000E+00 
    8.7499999999967359E-01     0.0000000000000000E+00     0.0000000000000000E+00 
    9.0624999999975520E-01     0.0000000000000000E+00     0.0000000000000000E+00 
    9.3749999999983680E-01     0.0000000000000000E+00     0.0000000000000000E+00 
    9.6874999999991840E-01     0.0000000000000000E+00     0.0000000000000000E+00 
    1.0000000000000000E+00     3.1249999999942091E-02     0.0000000000000000E+00 
    1.0000000000000000E+00     6.2499999999873469E-02     0.0000000000000000E+00 
    1.0000000000000000E+00     9.3749999999826514E-02     0.0000000000000000E+00 
    1.0000000000000000E+00     1.2499999999977961E-01     0.0000000000000000E+00 
    1.0000000000000000E+00     1.5624999999968961E-01     0.0000000000000000E+00 
    1.0000000000000000E+00     1.8749999999959971E-01     0.0000000000000000E+00 
    1.0000000000000000E+00     2.1874999999950970E-01     0.0000000000000000E+00 
    1.0000000000000000E+00     2.4999999999941969E-01     0.0000000000000000E+00 
    1.0000000000000000E+00     2.8124999999932920E-01     0.0000000000000000E+00 
    1.0000000000000000E+00     3.1249999999923850E-01     0.0000000000000000E+00 
    1.0000000000000000E+00     3.4374999999914790E-01     0.0000000000000000E+00 
    1.0000000000000000E+00     3.7499999999905720E-01     0.0000000000000000E+00 
    1.0000000000000000E+00     4.0624999999896660E-01     0.0000000000000000E+00 
    1.0000000000000000E+00     4.3749999999887590E-01     0.0000000000000000E+00 
    1.0000000000000000E+00     4.6874999999878530E-01     0.0000000000000000E+00 
    1.0000000000000000E+00     4.9999999999869471E-01     0.0000000000000000E+00 
    1.0000000000000000E+00     5.3124999999877620E-01     0.0000000000000000E+00 
    1.0000000000000000E+00     5.6249999999885780E-01     0.0000000000000000E+00 
    1.0000000000000000E+00     5.9374999999893940E-01     0.0000000000000000E+00 
    1.0000000000000000E+00     6.2499999999902101E-01     0.0000000000000000E+00 
    1.0000000000000000E+00     6.5624999999910261E-01     0.0000000000000000E+00 
    1.0000000000000000E+00     6.8749999999918421E-01     0.0000000000000000E+00 
    1.0000000000000000E+00     7.1874999999926570E-01     0.0000000000000000E+00 
    1.0000000000000000E+00     7.4999999999934730E-01     0.0000000000000000E+00 
    1.0000000000000000E+00     7.8124999999942890E-01     0.0000000000000000E+00 
    1.0000000000000000E+00     8.1249999999951039E-01     0.0000000000000000E+00 
    1.0000000000000000E+00     8.4374999999959199E-01     0.0000000000000000E+00 
    1.0000000000000000E+00     8.7499999999967359E-01     0.0000000000000000E+00 
    1.0000000000000000E+00     9.0624999999975520E-01     0.0000000000000000E+00 
    1.0000000000000000E+00     9.3749999999983680E-01     0.0000000000000000E+00 
    1.0000000000000000E+00     9.6874999999991840E-01     0.0000000000000000E+00 
    9.6875000000003686E-01     1.0000000000000000E+00     0.0000000000000000E+00 
    9.3750000000011691E-01     1.0000000000000000E+00     0.0000000000000000E+00 
    9.0625000000015765E-01     1.0000000000000000E+00     0.0000000000000000E+00 
    8.7500000000017863E-01     1.0000000000000000E+00     0.0000000000000000E+00 
    8.4375000000028044E-01     1.0000000000000000E+00     0.0000000000000000E+00 
    8.1250000000040856E-01     1.0000000000000000E+00     0.0000000000000000E+00 
    7.8125000000054956E-01     1.0000000000000000E+00     0.0000000000000000E+00 
    7.5000000000066480E-01     1.0000000000000000E+00     0.0000000000000000E+00 
    7.1875000000086831E-01     1.0000000000000000E+00     0.0000000000000000E+00 
    6.8750000000102829E-01     1.0000000000000000E+00     0.0000000000000000E+00 
    6.5625000000114431E-01     1.0000000000000000E+00     0.0000000000000000E+00 
    6.2500000000129829E-01     1.0000000000000000E+00     0.0000000000000000E+00 
    5.9375000000147926E-01     1.0000000000000000E+00     0.0000000000000000E+00 
    5.6250000000168354E-01     1.0000000000000000E+00     0.0000000000000000E+00 
    5.3125000000188671E-01     1.0000000000000000E+00     0.0000000000000000E+00 
    5.0000000000205835E-01     1.0000000000000000E+00     0.0000000000000000E+00 
    4.6875000000192979E-01     1.0000000000000000E+00     0.0000000000000000E+00 
    4.3750000000180111E-01     1.0000000000000000E+00     0.0000000000000000E+00 
    4.0625000000167238E-01     1.0000000000000000E+00     0.0000000000000000E+00 
    3.7500000000154382E-01     1.0000000000000000E+00     0.0000000000000000E+00 
    3.4375000000141509E-01     1.0000000000000000E+00     0.0000000000000000E+00 
    3.1250000000128642E-01     1.0000000000000000E+00     0.0000000000000000E+00 
    2.8125000000115769E-01     1.0000000000000000E+00     0.0000000000000000E+00 
    2.5000000000102918E-01     1.0000000000000000E+00     0.0000000000000000E+00 
    2.1875000000090050E-01     1.0000000000000000E+00     0.0000000000000000E+00 
    1.8750000000077180E-01     1.0000000000000000E+00     0.0000000000000000E+00 
    1.5625000000064329E-01     1.0000000000000000E+00     0.0000000000000000E+00 
    1.2500000000051459E-01     1.0000000000000000E+00     0.0000000000000000E+00 
    9.3750000000385914E-02     1.0000000000000000E+00     0.0000000000000000E+00 
    6.2500000000257239E-02     1.0000000000000000E+00     0.0000000000000000E+00 
    3.1250000000128557E-02     1.0000000000000000E+00     0.0000000000000000E+00 
    0.0000000000000000E+00     9.6875000000003686E-01     0.0000000000000000E+00 
    0.0000000000000000E+00     9.3750000000011691E-01     0.0000000000000000E+00 
    0.0000000000000000E+00     9.0625000000015765E-01     0.0000000000000000E+00 
    0.0000000000000000E+00     8.7500000000017863E-01     0.0000000000000000E+00 
    0.0000000000000000E+00     8.4375000000028044E-01     0.0000000000000000E+00 
    0.0000000000000000E+00     8.1250000000040856E-01     0.0000000000000000E+00 
    0.0000000000000000E+00     7.8125000000054956E-01     0.0000000000000000E+00 
    0.0000000000000000E+00     7.5000000000066480E-01     0.0000000000000000E+00 
    0.0000000000000000E+00     7.1875000000086831E-01     0.0000000000000000E+00 
    0.0000000000000000E+00     6.8750000000102829E-01     0.0000000000000000E+00 
    0.0000000000000000E+00     6.5625000000114431E-01     0.0000000000000000E+00 
    0.0000000000000000E+00     6.2500000000129829E-01     0.0000000000000000E+00 
    0.0000000000000000E+00     5.9375000000147926E-01     0.0000000000000000E+00 
    0.0000000000000000E+00     5.6250000000168354E-01     0.0000000000000000E+00 
    0.0000000000000000E+00     5.3125000000188671E-01     0.0000000000000000E+00 
    0.0000000000000000E+00     5.0000000000205835E-01     0.0000000000000000E+00 
    0.0000000000000000E+00     4.6875000000192979E-01     0.0000000000000000E+00 
    0.0000000000000000E+00     4.3750000000180111E-01     0.0000000000000000E+00 
    0.0000000000000000E+00     4.0625000000167238E-01     0.0000000000000000E+00 
[...]
CELL_DATA 2795 
SCALARS Pressure double 1 
LOOKUP_TABLE default 

    6.4463419323573481E+00 
    1.4696795668883860E+01 
    1.0351815606933451E+01 
    9.9633022979226649E+00 
    7.9205369836996287E+00 
    1.4560727488044627E+01 
    1.5300134446446721E+01 
    5.7617451706523575E+00 
    1.0910316047823413E+01 
    8.3713443218916570E+00 
    7.1469059366399872E+00 
    1.4298783902804649E+01 
    1.4604678841920560E+01 
    1.4529141470312110E+01 
    9.5609202326756986E+00 
    5.6672273403786386E+00 
    9.1630071233975947E+00 
    7.6080595593379989E+00 
    1.3927158379609923E+01 
    1.0339440706974557E+01 
    1.0234729858236875E+01 
    1.4462759621959780E+01 
    9.6896753323361580E+00 
    3.7904134087525532E-01 
    1.4301731227595148E+01 
    1.4572634415749677E+01 
    1.5331658383653776E+01 
    6.8729247435867267E+00 
    1.4217522472395398E+01 
    1.5326114224682449E+01 
    1.0406670303287738E+01 
    1.0553746539408550E+01 
    7.4310677077740666E+00 
    1.0314541404226739E+01 
    3.3409518896739931E+00 
    9.1686814015912930E+00 
    1.0302933337871570E+01 
    1.5366274862660235E+01 
    1.5276724526653226E+01 
    1.4311820106503410E+01 
    7.8677169320924385E+00 
    1.4274546176761120E+01 
    7.8850192907748140E-01 
    1.0215392923801209E+01 
    1.5093988855606826E+01 
    1.4913710116367529E+01 
    1.4287901286072847E+01 
    1.1283599626709753E+01 
    1.4359602206681355E+01 
    9.3738756192870163E+00 
    8.9304113884419642E+00 
    1.0519602862769474E+01 
    1.0104078859921030E+01 
    9.2163379873372495E+00 
    1.0475549008274548E+01 
    1.3712079875789650E+01 
    1.2292442982964728E+01 
    7.9633094584472026E+00 
    1.4466997364751643E+01 
    1.4387976056059770E+01 
    9.9472100642845991E+00 
    9.9601239457256519E+00 
    9.8633425144174804E+00 
    1.5227142731614132E+01 
    1.5488474773972378E+01 
    9.1736194218766851E+00 
    1.0518651181242058E+01 
    1.4181197171301084E+01 
    1.2122208105478641E+01 
    1.0007305207256172E+01 
    1.5492200888343946E+01 
    1.4414190992987365E+01 
    9.0446523288833340E+00 
    1.5018234914892886E+01 
    1.0708742980279482E+01 
    1.4147769354919101E+01 
    1.5377389266647615E+01 
    1.0764403870390009E+01 
    6.6257151954759372E+00 
    1.0537022199065010E+01 
    1.5285951964120338E+01 
    1.5522804441228876E+01 
    9.1869984161257232E+00 
    1.0455788663750303E+01 
    1.5567884135978098E+01 
    1.0304747147438714E+01 
    9.7778744343796209E+00 
    1.2555342973162311E+01 
    6.3010414129438095E+00 
    8.9538101597796320E+00 
    1.0454885732286431E+01 
    1.1074844841579885E+01 
    1.7047906616490316E+01 
    7.6977955377660692E+00 
    1.0526673855450614E+01 
    1.4265344332206393E+01 
    1.4555356702907689E+01 
    6.7830779795996126E+00 
    1.0174346016685750E+01 
    1.0485490070378459E+01 
    1.4576032622846350E+01 
    1.0484339798133957E+01 
    1.4506768914194328E+01 
    4.1297158506376936E+00 
    6.9495964198921394E+00 
    1.0754021232029963E+01 
    1.4704963435187556E+01 
    9.1324485822234109E+00 
    9.7222712017472599E+00 
    1.0467240841023324E+01 
    9.7431970711448557E+00 
    1.1866788484847886E+01 
    9.4581104161987550E+00 
    9.0535928956168625E+00 
    7.1763332479281079E+00 
    1.2317051453980257E+01 
    1.0556038289918323E+01 
    1.5137893377522545E+01 
    9.0782110047542091E+00 
    9.9439611822365812E+00 
    1.4402291419400235E+01 
    8.2989589229343057E+00 
    1.4858408337564496E+01 
    1.0380481039368128E+01 
    9.8721391073342737E+00 
    1.4557370430712613E+01 
    1.0549265286412696E+01 
    1.5388177778564344E+01 
    1.2569039371764518E+01 
    1.3553832673125289E+01 
    1.5348636902396448E+01 
    7.7133399671438729E+00 
    1.0781345987926811E+01 
    1.4557381205575037E+01 
    3.0942202983443483E+00 
    1.0454110158576686E+01 
    1.5314531793254655E+01 
    9.9014014249225379E+00 
    1.1443148798256470E+01 
    6.7678051868326232E+00 
    1.4263344699599061E+01 
    1.7543324123635792E+01 
    1.3055470714807035E+01 
    9.9008162300263134E+00 
    8.8512277075963439E+00 
    1.1115089054703491E+01 
    1.0397320199673109E+01 
    7.2221096273595320E+00 
    1.5344748299270920E+01 
    1.4623998551158857E+01 
    1.4267053884250029E+01 
    1.1079300525040525E+01 
    9.0157150048398442E+00 
    1.0232783157382007E+01 
    1.5046668159853366E+01 
    9.2750606774121813E+00 
    1.0383673167580040E+01 
    9.4448466515725773E+00 
    1.2050334552151721E+01 
    1.7531375589536022E+01 
    1.4258475927452155E+01 
    8.9897968797376446E+00 
    1.4752475022396514E+01 
    1.4663799723106901E+01 
    1.4744778645071690E+01 
    1.5769555877826269E+01 
    1.6318319826949569E+01 
    1.4911011022568550E+01 
    1.0510405353937541E+01 
    1.1302332403341083E+01 
    1.4734620557555662E+01 
    1.5149885398246479E+01 
    7.5370680197350461E+00 
    1.4287561806486519E+01 
    1.5008034092567296E+01 
    7.3397533788519054E+00 
    1.5683846768464720E+01 
    1.5667342597324877E+01 
    1.3998547823020838E+01 
    1.0854682021410440E+01 
    2.7236013680741347E+00 
    1.5315681347104855E+01 
    1.0686922767795089E+01 
    1.5439351059527853E+01 
    9.8298208141692456E+00 
    1.5148979448187111E+01 
    9.6918817692606118E-01 
    1.3571176716532346E+01 
    1.0005216325839786E+01 
    8.9727752492272952E+00 
    8.7442555220510840E+00 
    1.0350077753495743E+01 
    1.1506608382376163E+01 
    1.0796185555344527E+01 
    7.2961480853076823E+00 
    1.5144509173564394E+01 
    1.4581540753076645E+01 
    1.2252234719711744E+01 
    1.0748361198456509E+01 
    1.5801684908341795E+00 
    8.0686021476643752E+00 
    5.6121612683237183E+00 
    1.5336954332141808E+01 
    1.1614177037621364E+01 
    1.4628685199957824E+01 
    1.4649043326135143E+01 
    9.3544628197684787E+00 
    1.2221264778963043E+01 
    1.4262456963545212E+01 
    1.5649859831357340E+01 
    6.7265739521460670E+00 
    1.2894155590380434E+01 
    1.0817093984741254E+01 
    5.9894910903651040E+00 
    9.3476589226417079E+00 
    1.2834527624751255E+01 
    1.4610168782228545E+01 
    1.0403618704591699E+01 
    1.4722286594329811E+01 
    1.4484071758163868E+01 
    1.4432067352830073E+01 
    1.0238691870090165E+01 
    8.9072680260153643E+00 
    1.4275089015715791E+01 
    9.0396856451656191E+00 
    1.0489654464902458E+01 
    8.8605648684333094E+00 
    1.0328985113367287E+01 
    1.4658354673214623E+01 
    6.5370796466150134E+00 
    9.2533548538129491E+00 
    1.5249703518995211E+01 
    1.0250319987329092E+01 
    1.1510679767302642E+01 
    6.7068930881906281E+00 
    9.1045876104428984E+00 
    1.4461742243753495E+01 
    1.4778959464784348E+01 
    5.4715971091644731E+00 
    1.0256762197521487E+01 
    8.9069476660465430E+00 
    1.6080662559233673E+01 
    1.5531243464312542E+01 
    1.6346024592748645E+01 
    1.0276854612031849E+01 
    1.4630989153722672E+01 
    1.4217974547837304E+01 
    1.0146915997343271E+01 
    1.4267465761923461E+01 
    1.0747877148874432E+01 
    6.0781344716193377E+00 
    1.0529562799750812E+01 
    1.5235457348998708E+01 
    1.4264203965896657E+01 
    7.1099644069285555E+00 
    1.4294704918958823E+01 
    1.1519949606609567E+01 
    1.0434058083693555E+01 
    9.9772479211618741E+00 
    1.4127168350118659E+01 
    1.0959287689754342E+01 
    1.4280600255241026E+01 
    1.0148279979950226E+01 
    6.3035224208588039E+00 
    1.0560202981846698E+01 
    8.7545385517486149E+00 
    1.3059111209859852E+01 
    1.5437290843755655E+01 
    1.4273312072666702E+01 
    1.5308091110097166E+01 
    1.0197539565463529E+01 
    6.9250528818257537E+00 
    7.0228427098409423E+00 
    1.0620111033739793E+01 
    1.0465278506682402E+01 
    1.5077205083440886E+00 
    1.3762059422670040E+01 
    1.5800903900861188E+01 
    9.8442869156962072E+00 
    6.3192338556886867E+00 
    1.2002998380073524E+01 
    1.4293232385485428E+01 
    7.4641637034688255E+00 
    5.0769012889865328E+00 
    1.0443501923826355E+01 
    1.4374286483867404E+01 
    1.5047019163517271E+01 
    1.4933605580539316E+01 
    1.4782444168258104E+01 
    7.3102869995444122E+00 
    1.0428386073789946E+01 
    1.3805010747170710E+01 
    8.2184541048055166E+00 
    1.4591431447698863E+01 
    1.2480314569338693E+01 
    7.1288075253232090E+00 
    1.4404059200975324E+01 
    1.5337093349224464E+01 
    1.4425422761769434E+01 
    7.1867100565634461E+00 
    1.0514845045006311E+01 
    7.8943073519221461E+00 
    9.9298685005842753E+00 
    1.4284407908604653E+01 
    1.4272204241348579E+01 
    7.2284615933196887E+00 
    1.5189211037464558E+01 
    1.1070806291809225E+01 
    1.4305381206457390E+01 
    1.5157333982092712E+01 
    1.4292283426873919E+01 
    1.3309370357718796E+01 
    1.6136642594333473E+01 
    9.7968765631487624E+00 
    1.5276683807670459E+01 
    1.4333152782566936E+01 
    1.5350986936406381E+01 
    1.5182063478372337E+01 
    9.8999525164740287E+00 
    1.0343231480073463E+01 
    9.8346177402094668E+00 
    1.2794457724411656E+01 
    4.1436478284949896E+00 
    1.0555686446907877E+01 
    1.6264036880119487E+01 
    1.0749433452801808E+01 
    1.0943107232835464E+01 
    1.5323542007300807E+01 
    1.5558576024913103E+01 
    9.7213453913346815E+00 
    1.4299207401946170E+01 
    1.4268188920086992E+01 
    1.0930321535024305E+01 
    1.5136060800946574E+01 
    7.4873352224733516E+00 
    4.7684137395093495E+00 
    1.1220256384534206E+01 
    1.0765250308026214E+01 
    1.4274412385074768E+01 
    6.7626630600250497E+00 
    1.4846834828801470E+01 
    4.8537697107833466E+00 
    1.0695536868711915E+01 
    9.9299103609271953E+00 
    1.0491613832393059E+01 
    1.7583030015544345E+01 
    4.0238065858286145E+00 
    1.0471759052771091E+01 
    1.2525486523216246E+01 
    1.0098000973210667E+01 
    8.0022597163319134E+00 
    1.4962470082424700E+01 
    1.7136556008787540E+01 
    1.5116597530828928E+01 
    1.0410643169494829E+01 
    5.9510419176791149E+00 
    1.6987328485977297E+01 
    1.4570780646252201E+01 
    7.6837251303398402E+00 
    1.0053463227321119E+01 
    1.5752736085667182E+01 
    3.4241428578976265E+00 
    1.0816473358637669E+01 
    1.5085315467638482E+01 
    1.0505116762723599E+01 
    9.1638474267967442E+00 
    1.0512203834314287E+01 
    1.4031035119360423E+01 
    1.0486582163413290E+01 
    5.2945989868500885E+00 
    9.4208730334922108E-01 
    7.8465818217142340E+00 
    1.5976325362958441E+01 
    9.8341170973717897E+00 
    1.1821596550551178E+01 
    1.1267018963625159E+01 
    1.3120437344795057E+01 
    1.0518384938125651E+01 
    1.4477363545386179E+01 
    1.7597464411267595E+01 
    1.2459832282358086E+01 
    1.5248615574613479E+01 
    5.6351191981389803E-01 
    1.4274297712763916E+01 
    5.8807025160505795E+00 
    1.6435174479238608E+01 
    1.0485609391026086E+01 
    9.3210636082831879E+00 
    8.0511156901204419E+00 
    5.5533224967559391E+00 
    1.1754044530138875E+01 
    8.3099172477479772E+00 
    1.2949294234988429E+01 
    2.2846893037834621E+00 
    1.1555601770908359E+01 
    1.4204726218227403E+01 
    6.3777582730118620E+00 
    1.4775689833156653E+01 
    1.6232625219756830E+01 
    1.4609383837035290E+01 
    1.0347895553556953E+01 
    1.0486242719494834E+01 
    1.0478224759987599E+01 
    6.0167272434370123E+00 
    9.5584316682751140E+00 
    9.3964744163493030E+00 
    1.0467049638475890E+01 
    9.7625143594722292E+00 
    7.1371021050297456E-01 
    6.7661701343091680E+00 
    1.0173530179706836E+01 
    1.0441432044395704E+01 
    1.3308776578582592E+01 
    2.2526341694807042E+00 
    1.0888796548205901E+01 
    1.0769701199628056E+01 
    3.8724396498962950E+00 
    1.4464875267287665E+01 
    9.0603947980141957E+00 
    1.0622640795281020E+01 
    1.4567307532980855E+01 
    5.5760349202646200E+00 
    1.4592278070617461E+01 
    9.1796566186194024E+00 
    1.0322497212927886E+00 
    9.8984010534461717E+00 
    1.5201499097722492E+01 
    1.4274105884248890E+01 
    1.4292788680354505E+01 
    1.0827561889810221E+01 
    1.0697719166845223E+01 
    9.0379159852506881E+00 
    7.3427153702444228E+00 
    1.4680049406821460E+01 
    1.0050222006580373E+01 
    7.1477793902869360E+00 
    1.4288522803570629E+01 
    1.5003579807182318E+01 
    1.0645057561740252E+01 
    1.0296798823781936E+01 
    1.7475188009576055E+01 
    1.0931217495912373E+01 
    1.4698131641907972E+01 
    8.5880551750995995E+00 
    1.7626152879762866E+01 
    6.9819962677295058E+00 
    9.4602273564403117E+00 
    7.8200897403011540E+00 
    1.1168294571584072E+01 
    8.9500514064523333E+00 
    1.7609513147529228E+01 
    1.0980528517455276E+01 
    1.3966588619984103E+01 
    7.1806638664607165E+00 
    1.0514667878109583E+01 
    1.4536091517373391E+01 
    8.9863397161248830E+00 
    7.6150061389367103E+00 
    1.1648967285743689E+01 
    1.4765592004482269E+01 
    7.6973027297069976E+00 
    9.9512242765727894E+00 
    1.0327299518564624E+01 
    1.4248885203611870E+01 
    1.0124185941387092E+01 
    1.4742597966422306E+01 
    1.5380514531197981E+01 
    9.0666412483872758E+00 
    8.8841801067074684E+00 
    8.3395195137281100E+00 
    1.4394764570431276E+01 
    1.0777624464007422E+01 
    1.7176100093946886E+01 
    1.3483911338664823E+01 
    1.4494180561809394E+01 
    1.6859353923004633E+01 
    1.6239540246515027E+01 
    1.0560822306072513E+01 
    1.0451585712423185E+01 
    1.4030756404559897E+01 
    1.4313449063032255E+01 
    1.4857516537826056E+01 
    1.4591835524275020E+01 
    1.7496700425842917E+01 
    1.0930740886790733E+01 
    9.1712364848120735E+00 
    1.0925714612570660E+01 
    1.5291799821606650E+01 
    1.0658734959659334E+01 
    6.2287644658832715E+00 
    1.0331431722437067E+01 
    1.5720151716622299E+01 
    1.0806784453275968E+01 
    9.1824957980615061E+00 
    1.0268737571538692E+01 
    1.5832630027252904E+01 
    1.4333097949293210E+01 
    8.7233648122453111E+00 
    1.5971284513315750E+01 
    1.0589709252533282E+01 
    1.4849288385741264E+01 
    1.5845685152043471E+01 
    1.1129695720480187E+01 
    5.5825161571044086E+00 
    1.1592351468242603E+01 
    5.7786500597109844E+00 
    1.0715158439819941E+01 
    1.0507159261091839E+01 
    1.2214840720716412E+01 
    6.1095957589396397E+00 
    1.2966764877597894E+01 
    1.0526636249130906E+01 
    1.4581706960199007E+01 
    1.1139479122812764E+01 
    8.5453229288511245E+00 
    1.0141472563442290E+01 
    1.0987761934082352E+01 
    1.1037990774259011E+01 
    1.5428837123528794E+01 
    8.7587128185183172E+00 
    8.6079625830536415E+00 
    6.4266304223236297E+00 
    1.4884488741494584E+01 
    1.0183280931162988E+01 
    1.4118659576434011E+01 
    1.0477714714632423E+01 
    7.0301738726275689E+00 
    1.4362556921454848E+01 
    1.0453437761122631E+01 
    7.6627593231479043E+00 
    8.1158808102249509E+00 
    8.4029947898972281E+00 
    1.4612973743934862E+01 
    1.0469075982865307E+01 
    1.5260630748582859E+01 
    1.0412623283566726E+01 
    1.0351272353804550E+01 
    9.8679960885142588E+00 
    1.4448080509946593E+01 
    1.0268409126220854E+01 
    8.4447979386871044E+00 
    1.6227729433970904E+01 
    1.4531024316394690E+01 
    7.3143418854594975E+00 
    2.8416086566876979E+00 
    1.0458421912193437E+01 
    9.8598852158541881E+00 
    8.8752254486392346E+00 
    9.6660187430485678E+00 
    1.4485024426904591E+01 
    1.0160017889737194E+01 
    9.2279968568328048E+00 
    1.4335912372439600E+01 
    7.2496472023702676E+00 
    1.3989652179288056E+01 
    9.5217978284040719E+00 
    8.4024347249045928E+00 
    8.9619031649453422E+00 
    1.4936228456665679E+01 
    1.0494487643243698E+01 
    1.0502591474726918E+01 
    6.1897483782605365E+00 
    6.6918090618666035E+00 
    1.3303509941855449E+01 
    1.0512372505579997E+01 
    1.0499017100140048E+01 
    1.5957133786916021E+01 
    8.6106971684887839E+00 
    1.0524647415336048E+01 
    7.4976438799832890E+00 
    7.7337991955507874E+00 
    1.4441802997126727E+01 
    1.0154113991861264E+01 
    7.3796031528892758E+00 
    1.1087613517330853E+01 
    1.0401009410606877E+01 
    1.4444537502620276E+01 
    1.6051565691322711E+01 
    1.0849861786854988E+00 
    1.0463406783423133E+01 
    1.0763116895860589E+01 
    1.4510377346592866E+01 
    9.9730627205326670E+00 
    1.0468182028190874E+01 
    1.5483790886722426E+01 
    8.9993655813642732E+00 
    7.4461814703930518E+00 
    1.2681700809553517E+01 
    1.4288262833690416E+01 
    1.5349200048389232E+01 
    1.5624780644024602E+01 
    1.0302847265428495E+01 
    1.0454727491035058E+01 
    1.1821080619871683E+01 
    6.9506662847814331E+00 
    1.4421055728915171E+01 
    8.0233485500227708E+00 
    7.2382310374724517E+00 
    1.3180417577347518E+01 
    1.2408634924729371E+01 
    7.0986940154819544E+00 
    1.4324977411323960E+01 
    1.5335035130351928E+01 
    1.0946957480552157E+01 
    1.6155256804777970E+01 
    1.4359359670751157E+01 
    1.0035718851552549E+01 
    1.5066842390194822E+01 
    7.7374510710488540E+00 
    1.4307665996378548E+01 
    1.0462299265832391E+01 
    1.0423485087958598E+01 
    1.6130667939845729E+01 
    1.0218474797584015E+01 
    1.2902092518538524E+01 
    8.9461056158273244E+00 
    1.5455993833438535E+01 
    1.4211153141536242E+01 
    9.3344991888514883E+00 
    1.4263077264794479E+01 
    9.5460058669426591E+00 
    1.0477000363965757E+01 
    1.5293568408534592E+01 
    1.4587244569463547E+01 
    1.5338239190598156E+01 
    1.4513701917598681E+01 
    9.5638542621337326E+00 
    9.7859246657579178E+00 
    1.5345485288720715E+01 
    9.9150604269617855E+00 
    1.4139167573354639E+01 
    1.0206749064315083E+01 
    4.1740494430668686E+00 
    7.3133859470913238E+00 
    6.7746490095572884E+00 
    1.5297294693708890E+01 
    1.6058291031820495E+01 
    1.4281625981983373E+01 
    1.2099888798444015E+01 
    1.4580017611278107E+01 
    1.4333450816954214E+01 
    1.4937075572543154E+01 
    5.9809826714783663E+00 
    3.8909238068714478E+00 
    1.1885845746880067E+01 
    1.0135891357894694E+01 
    1.4486671884145387E+01 
    1.4484073690414187E+01 
    1.0789807862898305E+01 
    1.4522536333709704E+01 
    1.0448956025773278E+01 
    1.0377592515995531E+01 
    5.3993793676293365E+00 
    3.8777209356518747E+00 
    1.5828904178847854E+01 
    8.2131039000010357E+00 
    9.2748816157141007E+00 
    1.0673198197486391E+01 
    1.7477211628259873E+01 
    1.0773044058062027E+01 
    1.0798397233587711E+01 
    4.4134807679793138E+00 
    1.0774827482248787E+01 
    1.0790166604619133E+01 
    1.4812532555118016E+01 
    8.9684471069548017E+00 
    1.0050890634717442E+01 
    1.6000879061221159E+01 
    1.0471857792598597E+01 
    1.4297834871351116E+01 
    1.4560672759737345E+01 
    1.2902082346640682E+01 
    8.9226835297958615E+00 
    1.4513275966051422E+01 
    1.0266516373861792E+01 
    1.4484312455098497E+01 
    1.4234775351733594E+01 
    1.5316947179729116E+01 
    1.4511543833214377E+01 
    1.3613469936509487E+01 
    1.0460342735337099E+01 
    7.0446369685920818E+00 
    1.7348371153546292E+01 
    8.1867560793717811E+00 
    1.5244863227513965E+01 
    1.0457739590100697E+01 
    8.6566726706741406E+00 
    5.1977696077080902E+00 
    1.0829459865926200E+01 
    1.4499712228679146E+01 
    1.4496064189518455E+01 
    1.0457764348832825E+01 
    1.0451884784102900E+01 
    1.6211731746039643E+01 
    1.5566619362527208E+01 
    1.0792145077964429E+01 
    3.6200490872961790E+00 
    1.3553272687020849E+01 
    1.7606842800302285E+01 
    1.0463669051142434E+01 
    1.2490869821061617E+01 
    9.9717088399601810E+00 
    1.7202597107676947E+01 
    1.5648092117821639E+01 
    1.5379316060388616E+01 
    1.0814535358356022E+01 
    4.8467976617365522E+00 
    9.9279370488425371E+00 
    9.9968190686489731E+00 
    1.0037621073309738E+01 
    3.9426820658755917E+00 