# vtk DataFile Version 2.0
Pressure Field Data 
ASCII 
DATASET UNSTRUCTURED_GRID 

POINTS 2860 double 

    0.0000000000000000E+00     0.0000000000000000E+00     0.0000000000000000E+00 
    1.0000000000000000E+00     0.0000000000000000E+00     0.0000000000000000E+00 
    1.0000000000000000E+00     1.0000000000000000E+00     0.0000000000000000E+00 
    0.0000000000000000E+00     1.0000000000000000E+00     0.0000000000000000E+00 
    2.5000000000000000E-01     2.5000000000000000E-01     0.0000000000000000E+00 
    7.5000000000000000E-01     2.5000000000000000E-01     0.0000000000000000E+00 
    7.5000000000000000E-01     7.5000000000000000E-01     0.0000000000000000E+00 
    2.5000000000000000E-01     7.5000000000000000E-01     0.0000000000000000E+00 
    3.1249999999942091E-02     0.0000000000000000E+00     0.0000000000000000E+00 
    6.2499999999873469E-02     0.0000000000000000E+00     0.0000000000000000E+00 
    9.3749999999826514E-02     0.0000000000000000E+00     0.0000000000000000E+00 
    1.2499999999977961E-01     0.0000000000000000E+00     0.0000000000000000E+00 
    1.5624999999968961E-01     0.0000000000000000E+00     0.0000000000000000E+00 
    1.8749999999959971E-01     0.0000000000000000E+00     0.0000000000000000E+00 
    2.1874999999950970E-01     0.0000000000000000E+00     0.0000000000000000E+00 
    2.4999999999941969E-01     0.0000000000000000E+00     0.0000000000000000E+00 
    2.8124999999932920E-01     0.0000000000000000E+00     0.0000000000000000E+00 
    3.1249999999923850E-01     0.0000000000000000E+00     0.0000000000000000E+00 
    3.4374999999914790E-01     0.0000000000000000E+00     0.0000000000000000E+00 
    3.7499999999905720E-01     0.0000000000000000E+00     0.0000000000000000E+00 
    4.0624999999896660E-01     0.0000000000000000E+00     0.0000000000000000E+00 
    4.3749999999887590E-01     0.0000000000000000E+00     0.0000000000000000E+00 
    4.6874999999878530E-01     0.0000000000000000E+00     0.0000000000000000E+00 
    4.9999999999869471E-01     0.0000000000000000E+00     0.0000000000000000E+00 
    5.3124999999877620E-01     0.0000000000000000E+00     0.0000000000000000E+00 
    5.6249999999885780E-01     0.0000000000000000E+00     0.0000000000000000E+00 
    5.9374999999893940E-01     0.0000000000000000E+00     0.0000000000000000E+00 
    6.2499999999902101E-01     0.0000000000000000E+00     0.0000000000000000E+00 
    6.5624999999910261E-01     0.0000000000000000E+00     0.0000000000000000E+00 
    6.8749999999918421E-01     0.0000000000000000E+00     0.0000000000000000E+00 
    7.1874999999926570E-01     0.0000000000000000E+00     0.0000000000000000E+00 
    7.4999999999934730E-01     0.0000000000000000E+00     0.0000000000000000E+00 
    7.8124999999942890E-01     0.0000000000000000E+00     0.0000000000000000E+00 
    8.1249999999951039E-01     0.0000000000000000E+00     0.0000000000000000E+00 
    8.4374999999959199E-01     0.0000000000000000E+00     0.0000000000000000E+00 
    8.7499999999967359E-01     0.0000000000000000E+00     0.0000000000000000E+00 
    9.0624999999975520E-01     0.0000000000000000E+00     0.0000000000000000E+00 
    9.3749999999983680E-01     0.0000000000000000E+00     0.0000000000000000E+00 
    9.6874999999991840E-01     0.0000000000000000E+00     0.0000000000000000E+00 
    1.0000000000000000E+00     3.1249999999942091E-02     0.0000000000000000E+00 
    1.0000000000000000E+00     6.2499999999873469E-02     0.0000000000000000E+00 
    1.0000000000000000E+00     9.3749999999826514E-02     0.0000000000000000E+00 
    1.0000000000000000E+00     1.2499999999977961E-01     0.0000000000000000E+00 
    1.0000000000000000E+00     1.5624999999968961E-01     0.0000000000000000E+00 
    1.0000000000000000E+00     1.8749999999959971E-01     0.0000000000000000E+00 
    1.0000000000000000E+00     2.1874999999950970E-01     0.0000000000000000E+00 
    1.0000000000000000E+00     2.4999999999941969E-01     0.0000000000000000E+00 
    1.0000000000000000E+00     2.8124999999932920E-01     0.0000000000000000E+00 
    1.0000000000000000E+00     3.1249999999923850E-01     0.0000000000000000E+00 
    1.0000000000000000E+00     3.4374999999914790E-01     0.0000000000000000E+00 
    1.0000000000000000E+00     3.7499999999905720E-01     0.0000000000000000E+00 
    1.0000000000000000E+00     4.0624999999896660E-01     0.0000000000000000E+00 
    1.0000000000000000E+00     4.3749999999887590E-01     0.0000000000000000E+00 
    1.0000000000000000E+00     4.6874999999878530E-01     0.0000000000000000E+00 
    1.0000000000000000E+00     4.9999999999869471E-01     0.0000000000000000E+00 
    1.0000000000000000E+00     5.3124999999877620E-01     0.0000000000000000E+00 
    1.0000000000000000E+00     5.6249999999885780E-01     0.0000000000000000E+00 
    1.0000000000000000E+00     5.9374999999893940E-01     0.0000000000000000E+00 
    1.0000000000000000E+00     6.2499999999902101E-01     0.0000000000000000E+00 
    1.0000000000000000E+00     6.5624999999910261E-01     0.0000000000000000E+00 
    1.0000000000000000E+00     6.8749999999918421E-01     0.0000000000000000E+00 
    1.0000000000000000E+00     7.1874999999926570E-01     0.0000000000000000E+00 
    1.0000000000000000E+00     7.4999999999934730E-01     0.0000000000000000E+00 
    1.0000000000000000E+00     7.8124999999942890E-01     0.0000000000000000E+00 
    1.0000000000000000E+00     8.1249999999951039E-01     0.0000000000000000E+00 
    1.0000000000000000E+00     8.4374999999959199E-01     0.0000000000000000E+00 
    1.0000000000000000E+00     8.7499999999967359E-01     0.0000000000000000E+00 
    1.0000000000000000E+00     9.0624999999975520E-01     0.0000000000000000E+00 
    1.0000000000000000E+00     9.3749999999983680E-01     0.0000000000000000E+00 
    1.0000000000000000E+00     9.6874999999991840E-01     0.0000000000000000E+00 
    9.6875000000003686E-01     1.0000000000000000E+00     0.0000000000000000E+00 
    9.3750000000011691E-01     1.0000000000000000E+00     0.0000000000000000E+00 
    9.0625000000015765E-01     1.0000000000000000E+00     0.0000000000000000E+00 
    8.7500000000017863E-01     1.0000000000000000E+00     0.0000000000000000E+00 
    8.4375000000028044E-01     1.0000000000000000E+00     0.0000000000000000E+00 
    8.1250000000040856E-01     1.0000000000000000E+00     0.0000000000000000E+00 
    7.8125000000054956E-01     1.0000000000000000E+00     0.0000000000000000E+00 
    7.5000000000066480E-01     1.0000000000000000E+00     0.0000000000000000E+00 
    7.1875000000086831E-01     1.0000000000000000E+00     0.0000000000000000E+00 
    6.8750000000102829E-01     1.0000000000000000E+00     0.0000000000000000E+00 
    6.5625000000114431E-01     1.0000000000000000E+00     0.0000000000000000E+00 
    6.2500000000129829E-01     1.0000000000000000E+00     0.0000000000000000E+00 
    5.9375000000147926E-01     1.0000000000000000E+00     0.0000000000000000E+00 
    5.6250000000168354E-01     1.0000000000000000E+00     0.0000000000000000E+00 
    5.3125000000188671E-01     1.0000000000000000E+00     0.0000000000000000E+00 
    5.0000000000205835E-01     1.0000000000000000E+00     0.0000000000000000E+00 
    4.6875000000192979E-01     1.0000000000000000E+00     0.0000000000000000E+00 
    4.3750000000180111E-01     1.0000000000000000E+00     0.0000000000000000E+00 
    4.0625000000167238E-01     1.0000000000000000E+00     0.0000000000000000E+00 
    3.7500000000154382E-01     1.0000000000000000E+00     0.0000000000000000E+00 
    3.4375000000141509E-01     1.0000000000000000E+00     0.0000000000000000E+00 
    3.1250000000128642E-01     1.0000000000000000E+00     0.0000000000000000E+00 
    2.8125000000115769E-01     1.0000000000000000E+00     0.0000000000000000E+00 
    2.5000000000102918E-01     1.0000000000000000E+00     0.0000000000000000E+00 
    2.1875000000090050E-01     1.0000000000000000E+00     0.0000000000000000E+00 
    1.8750000000077180E-01     1.0000000000000000E+00     0.0000000000000000E+00 
    1.5625000000064329E-01     1.0000000000000000E+00     0.0000000000000000E+00 
    1.2500000000051459E-01     1.0000000000000000E+00     0.0000000000000000E+00 
    9.3750000000385914E-02     1.0000000000000000E+00     0.0000000000000000E+00 
    6.2500000000257239E-02     1.0000000000000000E+00     0.0000000000000000E+00 
    3.1250000000128557E-02     1.0000000000000000E+00     0.0000000000000000E+00 
    0.0000000000000000E+00     9.6875000000003686E-01     0.0000000000000000E+00 
    0.0000000000000000E+00     9.3750000000011691E-01     0.0000000000000000E+00 
    0.0000000000000000E+00     9.0625000000015765E-01     0.0000000000000000E+00 
    0.0000000000000000E+00     8.7500000000017863E-01     0.0000000000000000E+00 
    0.0000000000000000E+00     8.4375000000028044E-01     0.0000000000000000E+00 
    0.0000000000000000E+00     8.1250000000040856E-01     0.0000000000000000E+00 
    0.0000000000000000E+00     7.8125000000054956E-01     0.0000000000000000E+00 
    0.0000000000000000E+00     7.5000000000066480E-01     0.0000000000000000E+00 
    0.0000000000000000E+00     7.1875000000086831E-01     0.0000000000000000E+00 
    0.0000000000000000E+00     6.8750000000102829E-01     0.0000000000000000E+00 
    0.0000000000000000E+00     6.5625000000114431E-01     0.0000000000000000E+00 
    0.0000000000000000E+00     6.2500000000129829E-01     0.0000000000000000E+00 
    0.0000000000000000E+00     5.9375000000147926E-01     0.0000000000000000E+00 
    0.0000000000000000E+00     5.6250000000168354E-01     0.0000000000000000E+00 
    0.0000000000000000E+00     5.3125000000188671E-01     0.0000000000000000E+00 
    0.0000000000000000E+00     5.0000000000205835E-01     0.0000000000000000E+00 
    0.0000000000000000E+00     4.6875000000192979E-01     0.0000000000000000E+00 
    0.0000000000000000E+00     4.3750000000180111E-01     0.0000000000000000E+00 
    0.0000000000000000E+00     4.0625000000167238E-01     0.0000000000000000E+00 
[...]
CELL_DATA 2795 
SCALARS Pressure double 1 
LOOKUP_TABLE default 

    5.2876899914470004E+00 
    1.2116813883223561E+01 
    8.6179522452674213E+00 
    8.2183141753038029E+00 
    6.5170732174493953E+00 
    1.2014618113473579E+01 
    1.2638442818856733E+01 
    4.7189762003933424E+00 
    9.1018069186912474E+00 
    6.9781367260876142E+00 
    5.9706060408487067E+00 
    1.1799116885507113E+01 
    1.2028861684164605E+01 
    1.1988252202419083E+01 
    7.9521407142709126E+00 
    4.6396665631355258E+00 
    7.5545348362859261E+00 
    6.3532307551503306E+00 
    1.1496809325532645E+01 
    8.6149848096077086E+00 
    8.5016849297697146E+00 
    1.1933372341871578E+01 
    7.9893417536007876E+00 
    3.1149905233629782E-01 
    1.1772496071999981E+01 
    1.2010021888117270E+01 
    1.2666552757734145E+01 
    5.7362838796039570E+00 
    1.1732467368056328E+01 
    1.2665914484988349E+01 
    8.6811570454455165E+00 
    8.8459548933020198E+00 
    6.1815790850323715E+00 
    8.5786887335797495E+00 
    2.7467002977065942E+00 
    7.5589494760990341E+00 
    8.5710880223369497E+00 
    1.2702046398890234E+01 
    1.2619128467277271E+01 
    1.1809871390378417E+01 
    6.4556508433763149E+00 
    1.1755707296955158E+01 
    6.4935374107405697E-01 
    8.4309417905517012E+00 
    1.2452995054251613E+01 
    1.2306520798131171E+01 
    1.1790189922996403E+01 
    9.4160401314640243E+00 
    1.1850813095319007E+01 
    7.7330223552466144E+00 
    7.3590824527928813E+00 
    8.8137052799357622E+00 
    8.3309053772988406E+00 
    7.5995043468346752E+00 
    8.7570887187591957E+00 
    1.1321818333034591E+01 
    1.0258863068418307E+01 
    6.5527766467607895E+00 
    1.1936664934946808E+01 
    1.1872126720101512E+01 
    8.2573684113007104E+00 
    8.2779838727860700E+00 
    8.1338909797703707E+00 
    1.2579411747552822E+01 
    1.2801162764581525E+01 
    7.5634768695159771E+00 
    8.8123519969399897E+00 
    1.1716112623440644E+01 
    1.0066371349888797E+01 
    8.3147639664979067E+00 
    1.2809789979809164E+01 
    1.1870302736140369E+01 
    7.4546822790471108E+00 
    1.2392025957915861E+01 
    9.0010301729319782E+00 
    1.1647387248550116E+01 
    1.2711411790471338E+01 
    8.8700739166917923E+00 
    5.3898122083446038E+00 
    8.8292777987889863E+00 
    1.2626254620502371E+01 
    1.2841087768135013E+01 
    7.5696983504836215E+00 
    8.7431787144624327E+00 
    1.2876714998713370E+01 
    8.5772199570073600E+00 
    8.0626453875878514E+00 
    1.0407381606026785E+01 
    5.1375451339638305E+00 
    7.3790167694014519E+00 
    8.7445318957961646E+00 
    9.2203415378157310E+00 
    1.4239498533574910E+01 
    6.3306823125668474E+00 
    8.8196544034464974E+00 
    1.1771873305987004E+01 
    1.1986593813494274E+01 
    5.5653183227955303E+00 
    8.4505119792470325E+00 
    8.7731755057230618E+00 
    1.2004615834472560E+01 
    8.7789753744641423E+00 
    1.1945352109453630E+01 
    3.3877618155649190E+00 
    5.8033249346001270E+00 
    9.0149825433053241E+00 
    1.2124925213034558E+01 
    7.5275774683747692E+00 
    8.0664661275460716E+00 
    8.7641897183864135E+00 
    8.0345667857029568E+00 
    1.0000082989984991E+01 
    7.8319444498684261E+00 
    7.4619427118750821E+00 
    5.8541547355961860E+00 
    1.0139650881706160E+01 
    8.8472112411448638E+00 
    1.2502334245184798E+01 
    7.5725816298060140E+00 
    8.2072518439734488E+00 
    1.1861933912687343E+01 
    6.8251121527416565E+00 
    1.2252473339309939E+01 
    8.6604321121276495E+00 
    8.1414629258152704E+00 
    1.1988729104099198E+01 
    8.8409078677871928E+00 
    1.2716851608047561E+01 
    1.0416156294453957E+01 
    1.1197719726545747E+01 
    1.2681463813991462E+01 
    6.3439003479346967E+00 
    9.0293373085386062E+00 
    1.1993605317598377E+01 
    2.5451457152573731E+00 
    8.7335185736408469E+00 
    1.2651855672314882E+01 
    8.1709961482565774E+00 
    9.4224544447124430E+00 
    5.5146016694085382E+00 
    1.1771740527263274E+01 
    1.4710035715329104E+01 
    1.0802974530388640E+01 
    8.1654890683745336E+00 
    7.2927925860693801E+00 
    9.3698673546383802E+00 
    8.6778110448210626E+00 
    6.0341530405949380E+00 
    1.2677978876555862E+01 
    1.2077988550517583E+01 
    1.1773375405511114E+01 
    9.2390943608542280E+00 
    7.4301969421286058E+00 
    8.5014798298747447E+00 
    1.2415857831691973E+01 
    7.6456684393652843E+00 
    8.5634496332584078E+00 
    7.7865947905542425E+00 
    9.9269629516256472E+00 
    1.4698730243430486E+01 
    1.1766017717149051E+01 
    7.3972963828422795E+00 
    1.2155534269985628E+01 
    1.2088786934804451E+01 
    1.2159277822086940E+01 
    1.3058979239399713E+01 
    1.3559522298687151E+01 
    1.2302579671420506E+01 
    8.8047386386310595E+00 
    9.3115660624618162E+00 
    1.2154081114878025E+01 
    1.2510098313506511E+01 
    6.2942628169408996E+00 
    1.1789764336410594E+01 
    1.2382683169081716E+01 
    6.1332440745274361E+00 
    1.2973911235787451E+01 
    1.2968559488001310E+01 
    1.1555322784109491E+01 
    9.0830234218563266E+00 
    2.2318576086097637E+00 
    1.2652348970300043E+01 
    8.9607978664507719E+00 
    1.2764236198498978E+01 
    8.1115717601368633E+00 
    1.2503911219702712E+01 
    7.9176918281013220E-01 
    1.1214283831663096E+01 
    8.3142401399836352E+00 
    7.3951878719520172E+00 
    7.2038026275402531E+00 
    8.6305844352154111E+00 
    9.6802250742988800E+00 
    8.8942475113326651E+00 
    5.9435807724485983E+00 
    1.2507257125337290E+01 
    1.2016166048752686E+01 
    1.0171896754005008E+01 
    9.0069791968168644E+00 
    1.3050362425527984E+00 
    6.6409893191348939E+00 
    4.5863924108981351E+00 
    1.2676988762429092E+01 
    9.7595166740032564E+00 
    1.2067444390030243E+01 
    1.2073361354176363E+01 
    7.7156066147044013E+00 
    1.0177806668288836E+01 
    1.1769231183831799E+01 
    1.2952128273142110E+01 
    5.4951353435119721E+00 
    1.0613084790495948E+01 
    8.9252012626235704E+00 
    4.8885665369340972E+00 
    7.7062989603169836E+00 
    1.0608180406481923E+01 
    1.2040495253599142E+01 
    8.6890642112479846E+00 
    1.2138649294764214E+01 
    1.1931111548660247E+01 
    1.1887584928131011E+01 
    8.5097365965952321E+00 
    7.3536395404138428E+00 
    1.1780370649069059E+01 
    7.4506527324441434E+00 
    8.7822182271120610E+00 
    7.3011294375847697E+00 
    8.5142368182464221E+00 
    1.2080684804484639E+01 
    5.4549758690731931E+00 
    7.6280442160977442E+00 
    1.2596773104238199E+01 
    8.5263379194767737E+00 
    9.6577849284743831E+00 
    5.5984680725607241E+00 
    7.5045827030996950E+00 
    1.1911903285612377E+01 
    1.2188188086619512E+01 
    4.5536593243375627E+00 
    8.5258928251711925E+00 
    7.3365965028616547E+00 
    1.3340119595444619E+01 
    1.2847844567260509E+01 
    1.3583380300572912E+01 
    8.5477715958618656E+00 
    1.2058169680728495E+01 
    1.1733446365239200E+01 
    8.4288580212855209E+00 
    1.1773497004912571E+01 
    9.0061125927211503E+00 
    4.9544950960242966E+00 
    8.7052491060336710E+00 
    1.2587426852043333E+01 
    1.1770763704315144E+01 
    5.9388893404220360E+00 
    1.1795662084684967E+01 
    9.6812372826327220E+00 
    8.7167449970694726E+00 
    8.2482086243918147E+00 
    1.1658750807701241E+01 
    9.2027877147961785E+00 
    1.1784591080283707E+01 
    8.3829413874356487E+00 
    5.1429464482177032E+00 
    8.8443821042763791E+00 
    7.2115209251381494E+00 
    1.0803297756887684E+01 
    1.2759693569451501E+01 
    1.1779622118584186E+01 
    1.2645761411439672E+01 
    8.4768371703098477E+00 
    5.7828110269610544E+00 
    5.8660613551651020E+00 
    8.9061389575053234E+00 
    8.7604830880623634E+00 
    1.2307542992066078E+00 
    1.1365559207418711E+01 
    1.3082873565604107E+01 
    8.1196388574029452E+00 
    5.1604470917756977E+00 
    9.8801593507886274E+00 
    1.1794391160802446E+01 
    6.1339764708927511E+00 
    4.1588175125273006E+00 
    8.7328458209266184E+00 
    1.1876744068257587E+01 
    1.2422759368498070E+01 
    1.2319768562255961E+01 
    1.2192481123598794E+01 
    5.9823334067850000E+00 
    8.7058939368469925E+00 
    1.1365994736741053E+01 
    6.8582455738107786E+00 
    1.2017603401428593E+01 
    1.0367804291199617E+01 
    5.9555911414454066E+00 
    1.1886671322972957E+01 
    1.2666012352433366E+01 
    1.1875863369563366E+01 
    5.9043480941500759E+00 
    8.8086445702804994E+00 
    6.4946156740266439E+00 
    8.2983815235668938E+00 
    1.1787234820807800E+01 
    1.1777303808220633E+01 
    5.9392732251179332E+00 
    1.2539018170184209E+01 
    9.2821732102860803E+00 
    1.1813626879931173E+01 
    1.2515443367609322E+01 
    1.1798172641182896E+01 
    1.1008934642400405E+01 
    1.3387461607971158E+01 
    8.0928020231182494E+00 
    1.2619142560138433E+01 
    1.1835959598585880E+01 
    1.2683237812847286E+01 
    1.2533176156359609E+01 
    8.1806849167469533E+00 
    8.6127723805871117E+00 
    8.1103804559257782E+00 
    1.0599417383409516E+01 
    3.3971728659978244E+00 
    8.8414227534160172E+00 
    1.3506502380038969E+01 
    9.0115225064430096E+00 
    9.1751348279353220E+00 
    1.2658984629313720E+01 
    1.2869953004590839E+01 
    8.0677147377820351E+00 
    1.1799287462786696E+01 
    1.1774442087409733E+01 
    9.1644477521807133E+00 
    1.2493771503267606E+01 
    6.2561112772971166E+00 
    3.9561150507772638E+00 
    9.4123245665892981E+00 
    9.0236026045550606E+00 
    1.1779048548846426E+01 
    5.5499608350861793E+00 
    1.2247786537456289E+01 
    4.0291470391634272E+00 
    8.9663960046451088E+00 
    8.2558221704619399E+00 
    8.7865271578405952E+00 
    1.4749196972286327E+01 
    3.3037925779672217E+00 
    8.7526215166768111E+00 
    1.0312604092165126E+01 
    8.3888508478028552E+00 
    6.5465668563648389E+00 
    1.2352600874324700E+01 
    1.4322988081041178E+01 
    1.2477853503091557E+01 
    8.6952449643388618E+00 
    4.8627837538151715E+00 
    1.4184831207394474E+01 
    1.2004815665841797E+01 
    6.2856038287268650E+00 
    8.2903277913634241E+00 
    1.3044445712004896E+01 
    2.8093229126820614E+00 
    9.0680777703072604E+00 
    1.2448950740057391E+01 
    8.7992556887815336E+00 
    7.6495109445040974E+00 
    8.7969057254710865E+00 
    1.1547849197350052E+01 
    8.7800090278979734E+00 
    4.3338429298193848E+00 
    7.6195349298273618E-01 
    6.5569891231568089E+00 
    1.3239477279909378E+01 
    8.1097443012216939E+00 
    9.9210082613475326E+00 
    9.5076202468960229E+00 
    1.0828398820522862E+01 
    8.8120839959807977E+00 
    1.1924521329386845E+01 
    1.4763078510038760E+01 
    1.0327729707898762E+01 
    1.2595119431101853E+01 
    4.6195965253035642E-01 
    1.1778945528434155E+01 
    4.8040256608784437E+00 
    1.3666252017225863E+01 
    8.7668386404799321E+00 
    7.7532508038531116E+00 
    6.6259774265215086E+00 
    4.5488020791895876E+00 
    9.7813462346968105E+00 
    6.9299650072575707E+00 
    1.0713622943516510E+01 
    1.8615638540351302E+00 
    9.7069085455414328E+00 
    1.1722332673982576E+01 
    5.3165029530779018E+00 
    1.2192662627417905E+01 
    1.3483749444669822E+01 
    1.2064044383801393E+01 
    8.6374439953967848E+00 
    8.7817454874207694E+00 
    8.7595432734025618E+00 
    4.9297399290016051E+00 
    7.8803221975397166E+00 
    7.7460209579098844E+00 
    8.7478757490910546E+00 
    8.0520963578921503E+00 
    5.8176197833734533E-01 
    5.5071433744019931E+00 
    8.3894145815703887E+00 
    8.7237231388006187E+00 
    1.1002750130559265E+01 
    1.8510992106521416E+00 
    9.1292739267266416E+00 
    9.0285085917499615E+00 
    3.1761523422104858E+00 
    1.1953261921657774E+01 
    7.4677684604130095E+00 
    8.9043302781413143E+00 
    1.1999908220225272E+01 
    4.5656161727563722E+00 
    1.2049737558046676E+01 
    7.5664551331439087E+00 
    8.5309258585055514E-01 
    8.1644741266697523E+00 
    1.2552269921353238E+01 
    1.1779150955624205E+01 
    1.1796267088202121E+01 
    9.1201329440012273E+00 
    8.9695245904443528E+00 
    7.4493469007739392E+00 
    5.9786522184144957E+00 
    1.2094504276479510E+01 
    8.2894092404114730E+00 
    5.8453055334675899E+00 
    1.1791320115501323E+01 
    1.2382944383996222E+01 
    8.9217281076111998E+00 
    8.5736731719885331E+00 
    1.4647306557144473E+01 
    9.1651095928003663E+00 
    1.2114338719966929E+01 
    7.0707340785204709E+00 
    1.4791518543801299E+01 
    5.8313151086165700E+00 
    7.8358129973802084E+00 
    6.5295414529957370E+00 
    9.3637579685928074E+00 
    7.4567955866327127E+00 
    1.4775382924248468E+01 
    9.2064975630944712E+00 
    1.1495790142535689E+01 
    6.0002597354392844E+00 
    8.8089225872750472E+00 
    1.1975797830095432E+01 
    7.4820828397354013E+00 
    6.2141736114798123E+00 
    9.5921749052791085E+00 
    1.2185729496624726E+01 
    6.4279656555542024E+00 
    8.2728897366639824E+00 
    8.5969358719863553E+00 
    1.1758165356792757E+01 
    8.4132680839781315E+00 
    1.2158062106371572E+01 
    1.2709348055461753E+01 
    7.4731445871135476E+00 
    7.3198618866348486E+00 
    6.9608837307931388E+00 
    1.1877484482867787E+01 
    9.0213834466732816E+00 
    1.4360974658024006E+01 
    1.1211124035380085E+01 
    1.1938820777646274E+01 
    1.4064976642297559E+01 
    1.3491126656958690E+01 
    8.8526275736422804E+00 
    8.7330821881651879E+00 
    1.1582878528397858E+01 
    1.1810915509333121E+01 
    1.2246957341024087E+01 
    1.2022203741090060E+01 
    1.4665479803523898E+01 
    9.1647251682238142E+00 
    7.5596965469479880E+00 
    9.1283915414194077E+00 
    1.2631747419692443E+01 
    8.9388861428184114E+00 
    5.1857025332929414E+00 
    8.6221032455154987E+00 
    1.3013310601358878E+01 
    9.0599041829825797E+00 
    7.5690575331678307E+00 
    8.5364402030129938E+00 
    1.3114759933953247E+01 
    1.1805298288211704E+01 
    7.1764468905891814E+00 
    1.3240392004703130E+01 
    8.8789751131722170E+00 
    1.2249504174724171E+01 
    1.3126349550742777E+01 
    9.2048788173888063E+00 
    4.5676016228791605E+00 
    9.5611221538322617E+00 
    4.7260111605882855E+00 
    8.9827698527646547E+00 
    8.7995941376019484E+00 
    1.0057596811438696E+01 
    4.9974264231643666E+00 
    1.0673026716178175E+01 
    8.8203481335490643E+00 
    1.2013916109488324E+01 
    9.1770473749854791E+00 
    7.0071770273630731E+00 
    8.4235441313927595E+00 
    9.2446690785268721E+00 
    9.2566225949624474E+00 
    1.2751465967617705E+01 
    7.2167444807053709E+00 
    7.0905959404966197E+00 
    5.2595283523165515E+00 
    1.2272232265296861E+01 
    8.4589451569262213E+00 
    1.1625303570594305E+01 
    8.7709712750462181E+00 
    5.7611096329890961E+00 
    1.1828394271992931E+01 
    8.7450873500103441E+00 
    6.2927230443002005E+00 
    6.6752618514330342E+00 
    6.9170723422014158E+00 
    1.2039642251980062E+01 
    8.7498891133428209E+00 
    1.2604556927474860E+01 
    8.7017155026898738E+00 
    8.6380127635363024E+00 
    8.1936173873630267E+00 
    1.1899842152418181E+01 
    8.5541762969558537E+00 
    6.9539422831004210E+00 
    1.3479134750245040E+01 
    1.1969046584359610E+01 
    6.1130258272036428E+00 
    2.3358817370123517E+00 
    8.7387153464573348E+00 
    8.1957545742894826E+00 
    7.3141468644051457E+00 
    8.0122931029369635E+00 
    1.1951635953442530E+01 
    8.4609436308012267E+00 
    7.6152008631402515E+00 
    1.1829339781864997E+01 
    6.0572509879495318E+00 
    1.1548799660814286E+01 
    7.9107748695977476E+00 
    6.8951310273882980E+00 
    7.3859160222490763E+00 
    1.2325223708697919E+01 
    8.7894582886644947E+00 
    8.7972150901234443E+00 
    5.0737193860962133E+00 
    5.4916769121729567E+00 
    1.0954392576017561E+01 
    8.8066599895085051E+00 
    8.7837971707848226E+00 
    1.3226285410276800E+01 
    7.0918035369804056E+00 
    8.8181347983384732E+00 
    6.2655668819929122E+00 
    6.4566200547238095E+00 
    1.1891601764521578E+01 
    8.4451296732847343E+00 
    6.0651074045582094E+00 
    9.2393582855534326E+00 
    8.6779189748456567E+00 
    1.1895130396959559E+01 
    1.3312725335571086E+01 
    9.0081785285228200E-01 
    8.7438145952028332E+00 
    9.0222806918007219E+00 
    1.1952246040315957E+01 
    8.2330837440083773E+00 
    8.7645721414799027E+00 
    1.2796876886504533E+01 
    7.4167092429205415E+00 
    6.1201171216805772E+00 
    1.0598380246652539E+01 
    1.1790660153328014E+01 
    1.2682539493019481E+01 
    1.2931194464906993E+01 
    8.5897444691448701E+00 
    8.7358561975823488E+00 
    9.8409856359597452E+00 
    5.8044527309155027E+00 
    1.1898984032682835E+01 
    6.6032151476641898E+00 
    6.0492530870192560E+00 
    1.0945652937082215E+01 
    1.0302407216946369E+01 
    5.9308242555726887E+00 
    1.1820922023223023E+01 
    1.2669634958689198E+01 
    9.1783532604950118E+00 
    1.3407207960594205E+01 
    1.1848506020608145E+01 
    8.3175323777536772E+00 
    1.2435527688665406E+01 
    6.4628957995904504E+00 
    1.1806181655346718E+01 
    8.7428481768239656E+00 
    8.7018717226618829E+00 
    1.3382389740063601E+01 
    8.4875714614204565E+00 
    1.0693630908006778E+01 
    7.3721459099636872E+00 
    1.2776216813426078E+01 
    1.1727369659611309E+01 
    7.6996013941668311E+00 
    1.1771069626286309E+01 
    7.9347629514826510E+00 
    8.7735017372239010E+00 
    1.2633685059150682E+01 
    1.2014518096134164E+01 
    1.2672626681437139E+01 
    1.1954802683421658E+01 
    7.8855142623664314E+00 
    8.0948131181934837E+00 
    1.2678569149624233E+01 
    8.2087806644695025E+00 
    1.1670978987107288E+01 
    8.4809394484122009E+00 
    3.4273933394940399E+00 
    6.1097173004438394E+00 
    5.6554756885351933E+00 
    1.2636654885733844E+01 
    1.3317918441881073E+01 
    1.1786188309892751E+01 
    1.0182129144216148E+01 
    1.2029172235435553E+01 
    1.1827228334450984E+01 
    1.2331233750974093E+01 
    4.8978727541241742E+00 
    3.1970747248511104E+00 
    9.9905891544300456E+00 
    8.3816611927261153E+00 
    1.1953039794325633E+01 
    1.1950885290329191E+01 
    9.0370320755371498E+00 
    1.1982640285952192E+01 
    8.7303621414251378E+00 
    8.6007788368558238E+00 
    4.4217845632539348E+00 
    3.1836592154979715E+00 
    1.3112044359339231E+01 
    6.8543377712285931E+00 
    7.6454285860950133E+00 
    8.9482310389693946E+00 
    1.4648124593576352E+01 
    9.0304488448877134E+00 
    8.9614021451451649E+00 
    3.6234208524398985E+00 
    9.0309360425512626E+00 
    9.0427262914214950E+00 
    1.2220072443773992E+01 
    7.3895420460615897E+00 
    8.3647597968406107E+00 
    1.3266844894834771E+01 
    8.7533555403569245E+00 
    1.1799385053345244E+01 
    1.2014905126197528E+01 
    1.0826048125641265E+01 
    7.4347393517215954E+00 
    1.1954033478473873E+01 
    8.5395096318266628E+00 
    1.1964364091942150E+01 
    1.1746536842809508E+01 
    1.2653733569957620E+01 
    1.1953901051801511E+01 
    1.1253371667691509E+01 
    8.7410749670362442E+00 
    5.8841418769822180E+00 
    1.4524990288231331E+01 
    6.7392304585184091E+00 
    1.2595721417324670E+01 
    8.7383881846393745E+00 
    7.1278235777621273E+00 
    4.2954330062315780E+00 
    9.0724845585038434E+00 
    1.1943096374445542E+01 
    1.1938805690290904E+01 
    8.7556350767511582E+00 
    8.7323782950349003E+00 
    1.3460413835088188E+01 
    1.2878762983750521E+01 
    9.0472000327512099E+00 
    2.9766902728461964E+00 
    1.1227914718490046E+01 
    1.4773666287658177E+01 
    8.7445527225427426E+00 
    1.0496214288236141E+01 
    8.2279987716485845E+00 
    1.4387857340948980E+01 
    1.2949817247126886E+01 
    1.2704544960355241E+01 
    9.0668770243702639E+00 
    4.0057515924085116E+00 
    8.1886386336386003E+00 
    8.2541674655525945E+00 
    8.3032732438628276E+00 
    3.2376223944326088E+00 