# vtk DataFile Version 2.0
Pressure Field Data 
ASCII 
DATASET UNSTRUCTURED_GRID 

POINTS 2860 double 

    0.0000000000000000E+00     0.0000000000000000E+00     0.0000000000000000E+00 
    1.0000000000000000E+00     0.0000000000000000E+00     0.0000000000000000E+00 
    1.0000000000000000E+00     1.0000000000000000E+00     0.0000000000000000E+00 
    0.0000000000000000E+00     1.0000000000000000E+00     0.0000000000000000E+00 
    2.5000000000000000E-01     2.5000000000000000E-01     0.0000000000000000E+00 
    7.5000000000000000E-01     2.5000000000000000E-01     0.0000000000000000E+00 
    7.5000000000000000E-01     7.5000000000000000E-01     0.0000000000000000E+00 
    2.5000000000000000E-01     7.5000000000000000E-01     0.0000000000000000E+00 
    3.1249999999942091E-02     0.0000000000000000E+00     0.0000000000000000E+00 
    6.2499999999873469E-02     0.0000000000000000E+00     0.0000000000000000E+00 
    9.3749999999826514E-02     0.0000000000000000E+00     0.0000000000000000E+00 
    1.2499999999977961E-01     0.0000000000000000E+00     0.0000000000000000E+00 
    1.5624999999968961E-01     0.0000000000000000E+00     0.0000000000000000E+00 
    1.8749999999959971E-01     0.0000000000000000E+00     0.0000000000000000E+00 
    2.1874999999950970E-01     0.0000000000000000E+00     0.0000000000000000E+00 
    2.4999999999941969E-01     0.0000000000000000E+00     0.0000000000000000E+00 
    2.8124999999932920E-01     0.0000000000000000E+00     0.0000000000000000E+00 
    3.1249999999923850E-01     0.0000000000000000E+00     0.0000000000000000E+00 
    3.4374999999914790E-01     0.0000000000000000E+00     0.0000000000000000E+00 
    3.7499999999905720E-01     0.0000000000000000E+00     0.0000000000000000E+00 
    4.0624999999896660E-01     0.0000000000000000E+00     0.0000000000000000E+00 
    4.3749999999887590E-01     0.0000000000000000E+00     0.0000000000000000E+00 
    4.6874999999878530E-01     0.0000000000000000E+00     0.0000000000000000E+00 
    4.9999999999869471E-01     0.0000000000000000E+00     0.0000000000000000E+00 
    5.3124999999877620E-01     0.0000000000000000E+00     0.0000000000000000E+00 
    5.6249999999885780E-01     0.0000000000000000E+00     0.0000000000000000E+00 
    5.9374999999893940E-01     0.0000000000000000E+00     0.0000000000000000E+00 
    6.2499999999902101E-01     0.0000000000000000E+00     0.0000000000000000E+00 
    6.5624999999910261E-01     0.0000000000000000E+00     0.0000000000000000E+00 
    6.8749999999918421E-01     0.0000000000000000E+00     0.0000000000000000E+00 
    7.1874999999926570E-01     0.0000000000000000E+00     0.0000000000000000E+00 
    7.4999999999934730E-01     0.0000000000000000E+00     0.0000000000000000E+00 
    7.8124999999942890E-01     0.0000000000000000E+00     0.0000000000000000E+00 
    8.1249999999951039E-01     0.0000000000000000E+00     0.0000000000000000E+00 
    8.4374999999959199E-01     0.0000000000000000E+00     0.0000000000000000E+00 
    8.7499999999967359E-01     0.0000000000000000E+00     0.0000000000000000E+00 
    9.0624999999975520E-01     0.0000000000000000E+00     0.0000000000000000E+00 
    9.3749999999983680E-01     0.0000000000000000E+00     0.0000000000000000E+00 
    9.6874999999991840E-01     0.0000000000000000E+00     0.0000000000000000E+00 
    1.0000000000000000E+00     3.1249999999942091E-02     0.0000000000000000E+00 
    1.0000000000000000E+00     6.2499999999873469E-02     0.0000000000000000E+00 
    1.0000000000000000E+00     9.3749999999826514E-02     0.0000000000000000E+00 
    1.0000000000000000E+00     1.2499999999977961E-01     0.0000000000000000E+00 
    1.0000000000000000E+00     1.5624999999968961E-01     0.0000000000000000E+00 
    1.0000000000000000E+00     1.8749999999959971E-01     0.0000000000000000E+00 
    1.0000000000000000E+00     2.1874999999950970E-01     0.0000000000000000E+00 
    1.0000000000000000E+00     2.4999999999941969E-01     0.0000000000000000E+00 
    1.0000000000000000E+00     2.8124999999932920E-01     0.0000000000000000E+00 
    1.0000000000000000E+00     3.1249999999923850E-01     0.0000000000000000E+00 
    1.0000000000000000E+00     3.4374999999914790E-01     0.0000000000000000E+00 
    1.0000000000000000E+00     3.7499999999905720E-01     0.0000000000000000E+00 
    1.0000000000000000E+00     4.0624999999896660E-01     0.0000000000000000E+00 
    1.0000000000000000E+00     4.3749999999887590E-01     0.0000000000000000E+00 
    1.0000000000000000E+00     4.6874999999878530E-01     0.0000000000000000E+00 
    1.0000000000000000E+00     4.9999999999869471E-01     0.0000000000000000E+00 
    1.0000000000000000E+00     5.3124999999877620E-01     0.0000000000000000E+00 
    1.0000000000000000E+00     5.6249999999885780E-01     0.0000000000000000E+00 
    1.0000000000000000E+00     5.9374999999893940E-01     0.0000000000000000E+00 
    1.0000000000000000E+00     6.2499999999902101E-01     0.0000000000000000E+00 
    1.0000000000000000E+00     6.5624999999910261E-01     0.0000000000000000E+00 
    1.0000000000000000E+00     6.8749999999918421E-01     0.0000000000000000E+00 
    1.0000000000000000E+00     7.1874999999926570E-01     0.0000000000000000E+00 
    1.0000000000000000E+00     7.4999999999934730E-01     0.0000000000000000E+00 
    1.0000000000000000E+00     7.8124999999942890E-01     0.0000000000000000E+00 
    1.0000000000000000E+00     8.1249999999951039E-01     0.0000000000000000E+00 
    1.0000000000000000E+00     8.4374999999959199E-01     0.0000000000000000E+00 
    1.0000000000000000E+00     8.7499999999967359E-01     0.0000000000000000E+00 
    1.0000000000000000E+00     9.0624999999975520E-01     0.0000000000000000E+00 
    1.0000000000000000E+00     9.3749999999983680E-01     0.0000000000000000E+00 
    1.0000000000000000E+00     9.6874999999991840E-01     0.0000000000000000E+00 
    9.6875000000003686E-01     1.0000000000000000E+00     0.0000000000000000E+00 
    9.3750000000011691E-01     1.0000000000000000E+00     0.0000000000000000E+00 
    9.0625000000015765E-01     1.0000000000000000E+00     0.0000000000000000E+00 
    8.7500000000017863E-01     1.0000000000000000E+00     0.0000000000000000E+00 
    8.4375000000028044E-01     1.0000000000000000E+00     0.0000000000000000E+00 
    8.1250000000040856E-01     1.0000000000000000E+00     0.0000000000000000E+00 
    7.8125000000054956E-01     1.0000000000000000E+00     0.0000000000000000E+00 
    7.5000000000066480E-01     1.0000000000000000E+00     0.0000000000000000E+00 
    7.1875000000086831E-01     1.0000000000000000E+00     0.0000000000000000E+00 
    6.8750000000102829E-01     1.0000000000000000E+00     0.0000000000000000E+00 
    6.5625000000114431E-01     1.0000000000000000E+00     0.0000000000000000E+00 
    6.2500000000129829E-01     1.0000000000000000E+00     0.0000000000000000E+00 
    5.9375000000147926E-01     1.0000000000000000E+00     0.0000000000000000E+00 
    5.6250000000168354E-01     1.0000000000000000E+00     0.0000000000000000E+00 
    5.3125000000188671E-01     1.0000000000000000E+00     0.0000000000000000E+00 
    5.0000000000205835E-01     1.0000000000000000E+00     0.0000000000000000E+00 
    4.6875000000192979E-01     1.0000000000000000E+00     0.0000000000000000E+00 
    4.3750000000180111E-01     1.0000000000000000E+00     0.0000000000000000E+00 
    4.0625000000167238E-01     1.0000000000000000E+00     0.0000000000000000E+00 
    3.7500000000154382E-01     1.0000000000000000E+00     0.0000000000000000E+00 
    3.4375000000141509E-01     1.0000000000000000E+00     0.0000000000000000E+00 
    3.1250000000128642E-01     1.0000000000000000E+00     0.0000000000000000E+00 
    2.8125000000115769E-01     1.0000000000000000E+00     0.0000000000000000E+00 
    2.5000000000102918E-01     1.0000000000000000E+00     0.0000000000000000E+00 
    2.1875000000090050E-01     1.0000000000000000E+00     0.0000000000000000E+00 
    1.8750000000077180E-01     1.0000000000000000E+00     0.0000000000000000E+00 
    1.5625000000064329E-01     1.0000000000000000E+00     0.0000000000000000E+00 
    1.2500000000051459E-01     1.0000000000000000E+00     0.0000000000000000E+00 
    9.3750000000385914E-02     1.0000000000000000E+00     0.0000000000000000E+00 
    6.2500000000257239E-02     1.0000000000000000E+00     0.0000000000000000E+00 
    3.1250000000128557E-02     1.0000000000000000E+00     0.0000000000000000E+00 
    0.0000000000000000E+00     9.6875000000003686E-01     0.0000000000000000E+00 
    0.0000000000000000E+00     9.3750000000011691E-01     0.0000000000000000E+00 
    0.0000000000000000E+00     9.0625000000015765E-01     0.0000000000000000E+00 
    0.0000000000000000E+00     8.7500000000017863E-01     0.0000000000000000E+00 
    0.0000000000000000E+00     8.4375000000028044E-01     0.0000000000000000E+00 
    0.0000000000000000E+00     8.1250000000040856E-01     0.0000000000000000E+00 
    0.0000000000000000E+00     7.8125000000054956E-01     0.0000000000000000E+00 
    0.0000000000000000E+00     7.5000000000066480E-01     0.0000000000000000E+00 
    0.0000000000000000E+00     7.1875000000086831E-01     0.0000000000000000E+00 
    0.0000000000000000E+00     6.8750000000102829E-01     0.0000000000000000E+00 
    0.0000000000000000E+00     6.5625000000114431E-01     0.0000000000000000E+00 
    0.0000000000000000E+00     6.2500000000129829E-01     0.0000000000000000E+00 
    0.0000000000000000E+00     5.9375000000147926E-01     0.0000000000000000E+00 
    0.0000000000000000E+00     5.6250000000168354E-01     0.0000000000000000E+00 
    0.0000000000000000E+00     5.3125000000188671E-01     0.0000000000000000E+00 
    0.0000000000000000E+00     5.0000000000205835E-01     0.0000000000000000E+00 
    0.0000000000000000E+00     4.6875000000192979E-01     0.0000000000000000E+00 
    0.0000000000000000E+00     4.3750000000180111E-01     0.0000000000000000E+00 
    0.0000000000000000E+00     4.0625000000167238E-01     0.0000000000000000E+00 
[...]
CELL_DATA 2795 
SCALARS Pressure double 1 
LOOKUP_TABLE default 

    7.2087513317893483E+00 
    1.6312055649600964E+01 
    1.1445978732598000E+01 
    1.1093457415279065E+01 
    8.8424456138393808E+00 
    1.6158318576647364E+01 
    1.6962719734334406E+01 
    6.4471614780214450E+00 
    1.1997124263860515E+01 
    9.2251478541664724E+00 
    7.8686115972305757E+00 
    1.5871030672271262E+01 
    1.6216253563165459E+01 
    1.6123573849872201E+01 
    1.0558767224702905E+01 
    6.3409243597556451E+00 
    1.0215105629495653E+01 
    8.3785173578248067E+00 
    1.5461080624600239E+01 
    1.1428724268925187E+01 
    1.1325559802634833E+01 
    1.6050201269317213E+01 
    1.0793152884952105E+01 
    4.2096042320563049E-01 
    1.5866580889521426E+01 
    1.6177612920105780E+01 
    1.6996500318809296E+01 
    7.5826916968233169E+00 
    1.5781820515151949E+01 
    1.6988004557550894E+01 
    1.1560737455673380E+01 
    1.1633733672043777E+01 
    8.2430919648054193E+00 
    1.1409189319231889E+01 
    3.7072286877568779E+00 
    1.0220252116768592E+01 
    1.1395448917416703E+01 
    1.7030569294160845E+01 
    1.6937337252897890E+01 
    1.5885208737537177E+01 
    8.8156080326879653E+00 
    1.5852985103637875E+01 
    8.7475250512148250E-01 
    1.1361688986881559E+01 
    1.6744988210006909E+01 
    1.6516028598351337E+01 
    1.5859142951028232E+01 
    1.2445121056746562E+01 
    1.5927088401037228E+01 
    1.0448887222686357E+01 
    9.9579961985110970E+00 
    1.1598136480693650E+01 
    1.1249834741264266E+01 
    1.0278637259306702E+01 
    1.1633347653195043E+01 
    1.5223569059703415E+01 
    1.3462074173565666E+01 
    8.8897089986165199E+00 
    1.6055708945679356E+01 
    1.5967463532675263E+01 
    1.1064595460976733E+01 
    1.1013607065050349E+01 
    1.0984150598525323E+01 
    1.6881724573653855E+01 
    1.7166611938434414E+01 
    1.0228979924937329E+01 
    1.1596686014157907E+01 
    1.5695275937921098E+01 
    1.3424524611510925E+01 
    1.1067307631672067E+01 
    1.7167110921897386E+01 
    1.6004982496511467E+01 
    1.0083239940076327E+01 
    1.6638915091046027E+01 
    1.1881366579154600E+01 
    1.5702768410358150E+01 
    1.7042939390148305E+01 
    1.1972294280070344E+01 
    7.3623516081418430E+00 
    1.1614801634900553E+01 
    1.6947442771165164E+01 
    1.7197513076962640E+01 
    1.0241202789954242E+01 
    1.1540029852476003E+01 
    1.7247878361609679E+01 
    1.1394963048429156E+01 
    1.0890142416291475E+01 
    1.3911256507245040E+01 
    7.0336647878857566E+00 
    9.9834725840570435E+00 
    1.1537588159845306E+01 
    1.2154892860564416E+01 
    1.8797234834666231E+01 
    8.5962009603000880E+00 
    1.1604521503623772E+01 
    1.5834435836222523E+01 
    1.6161231963931989E+01 
    7.5872128256879625E+00 
    1.1258053203867942E+01 
    1.1570708009128346E+01 
    1.6184772553643644E+01 
    1.1562946385976563E+01 
    1.6106733300004773E+01 
    4.6074555140979205E+00 
    7.6520488080084297E+00 
    1.1821496382389570E+01 
    1.6320367761218204E+01 
    1.0180558347613879E+01 
    1.0817564638571607E+01 
    1.1542348323319716E+01 
    1.0851735301694966E+01 
    1.3042751229151863E+01 
    1.0529786376275002E+01 
    1.0093858801655289E+01 
    8.0712400538768048E+00 
    1.3695880440906850E+01 
    1.1638632966109816E+01 
    1.6785600824030862E+01 
    1.0007008608788231E+01 
    1.1071317802393775E+01 
    1.5993479737522751E+01 
    9.2762552653275545E+00 
    1.6488912334718005E+01 
    1.1467980195462802E+01 
    1.0993876800262852E+01 
    1.6164041877248078E+01 
    1.1627106935499109E+01 
    1.7056566714652334E+01 
    1.3936058942356901E+01 
    1.5044439492651707E+01 
    1.7014665322388844E+01 
    8.6132371187704315E+00 
    1.1844708775543070E+01 
    1.6162633995449241E+01 
    3.4411786492351273E+00 
    1.1610628530551624E+01 
    1.6978033808170707E+01 
    1.1024883228961498E+01 
    1.2727091657185415E+01 
    7.5831964864784451E+00 
    1.5831602719102673E+01 
    1.9307838479780781E+01 
    1.4476212001961798E+01 
    1.1025387586613871E+01 
    9.8712177878823848E+00 
    1.2310942694678655E+01 
    1.1484832104885594E+01 
    7.9530045226021233E+00 
    1.7010512025339661E+01 
    1.6193119762640041E+01 
    1.5836284162283141E+01 
    1.2165242119618988E+01 
    1.0056415050982293E+01 
    1.1322366563904946E+01 
    1.6673831430365968E+01 
    1.0337634574114587E+01 
    1.1548300198729535E+01 
    1.0523489655668957E+01 
    1.3401123993201915E+01 
    1.9295515271132604E+01 
    1.5826927469002642E+01 
    1.0070103177119137E+01 
    1.6376755472125385E+01 
    1.6276160694224572E+01 
    1.6363388527442520E+01 
    1.7461233349712728E+01 
    1.8038486594747276E+01 
    1.6510069159465672E+01 
    1.1588450861896852E+01 
    1.2552189783683907E+01 
    1.6326204794861063E+01 
    1.6798778105479492E+01 
    8.3036346165785542E+00 
    1.5858696595704101E+01 
    1.6633644914085092E+01 
    8.0805186764541048E+00 
    1.7375118898259949E+01 
    1.7352088183581678E+01 
    1.5538898324643144E+01 
    1.1924407386375163E+01 
    3.0204312232179715E+00 
    1.6979418550184963E+01 
    1.1761634635228637E+01 
    1.7110274724335401E+01 
    1.0946486013478184E+01 
    1.6793337670752368E+01 
    1.0804616879345204E+00 
    1.5054939198306240E+01 
    1.1061477660626064E+01 
    1.0003850244590188E+01 
    9.7526985504022186E+00 
    1.1436639348719893E+01 
    1.2635045970108189E+01 
    1.2015967360825673E+01 
    8.1726191016201977E+00 
    1.6792694269983155E+01 
    1.6187979904085346E+01 
    1.3545938460329911E+01 
    1.1813922906186098E+01 
    1.7497378983213909E+00 
    9.0059634858404660E+00 
    6.2782277140312592E+00 
    1.6998921750303182E+01 
    1.2810095948253899E+01 
    1.6219289333952542E+01 
    1.6261542851770944E+01 
    1.0423780981441581E+01 
    1.3387255906539275E+01 
    1.5830926157242533E+01 
    1.7333996480478056E+01 
    7.5497077791571545E+00 
    1.4328006008850911E+01 
    1.2007305808321210E+01 
    6.6890012952392253E+00 
    1.0416179093972749E+01 
    1.4043573183822696E+01 
    1.6219129193980944E+01 
    1.1488119171356621E+01 
    1.6339697504426205E+01 
    1.6082968547169642E+01 
    1.6026114872340447E+01 
    1.1327259902724929E+01 
    9.9270851368755793E+00 
    1.5844967742972546E+01 
    1.0079982452245428E+01 
    1.1570551400081273E+01 
    9.8807049370738955E+00 
    1.1496785421053488E+01 
    1.6271994625840527E+01 
    7.1987191583186636E+00 
    1.0312261659625126E+01 
    1.6907325199176601E+01 
    1.1336607581532917E+01 
    1.2706493984801028E+01 
    7.3846905131411464E+00 
    1.0148831232193405E+01 
    1.6058739174385238E+01 
    1.6400614171493771E+01 
    6.0315049023304041E+00 
    1.1347199901167969E+01 
    9.9462820273849921E+00 
    1.7789976719331886E+01 
    1.7206970811560662E+01 
    1.8068522993100462E+01 
    1.1367108679237266E+01 
    1.6241802451208315E+01 
    1.5780312634725696E+01 
    1.1226914709843346E+01 
    1.5836775586278597E+01 
    1.1815367279700006E+01 
    6.7717009407180706E+00 
    1.1686918351711498E+01 
    1.6890469536671752E+01 
    1.5833209990154007E+01 
    7.8330455600850248E+00 
    1.5866599918423038E+01 
    1.2660630210563083E+01 
    1.1588678731755044E+01 
    1.1104998441967135E+01 
    1.5682359008041079E+01 
    1.2143696238232804E+01 
    1.5851050004035482E+01 
    1.1288390757730914E+01 
    6.9999971268539802E+00 
    1.1647574520863655E+01 
    9.7661575613778346E+00 
    1.4490594669310992E+01 
    1.7109330860230994E+01 
    1.5842888943676620E+01 
    1.6971256612968659E+01 
    1.1279556555091212E+01 
    7.6246724615948009E+00 
    7.7318817297671014E+00 
    1.1787889688969516E+01 
    1.1543537753878299E+01 
    1.6795466615383785E+00 
    1.5273794966830371E+01 
    1.7496973802218704E+01 
    1.0962979158897145E+01 
    7.0715872502613442E+00 
    1.3336407641989625E+01 
    1.5864743223171487E+01 
    8.3404750273676882E+00 
    5.6779758089803858E+00 
    1.1526132613903803E+01 
    1.5945878483933773E+01 
    1.6688182842177909E+01 
    1.6555408795530962E+01 
    1.6403718249123283E+01 
    8.2072108205220129E+00 
    1.1583431314510486E+01 
    1.5336185500445774E+01 
    9.0548548719067341E+00 
    1.6201710308572014E+01 
    1.3641674911563449E+01 
    7.8482209623139312E+00 
    1.5977343484537691E+01 
    1.7005332017475258E+01 
    1.6009725422388225E+01 
    8.0299277027556020E+00 
    1.1592812845855615E+01 
    8.8138815000969011E+00 
    1.0948630969878227E+01 
    1.5855313227924098E+01 
    1.5841964169264376E+01 
    8.0761454057895108E+00 
    1.6838793294857606E+01 
    1.2167172188982381E+01 
    1.5875709089320052E+01 
    1.6808874879565138E+01 
    1.5862887598458828E+01 
    1.4747774162074034E+01 
    1.7851082136865720E+01 
    1.0908299698757096E+01 
    1.6937272270342863E+01 
    1.5905017848287640E+01 
    1.7017313359444088E+01 
    1.6831665063125371E+01 
    1.1020918760452384E+01 
    1.1435537929536384E+01 
    1.0952602591033333E+01 
    1.4163461142879026E+01 
    4.6270179010664352E+00 
    1.1718481997158181E+01 
    1.7983484984439041E+01 
    1.1817954148525578E+01 
    1.2027253495074810E+01 
    1.6987955570349392E+01 
    1.7237147762050679E+01 
    1.0816059329383387E+01 
    1.5871491773555721E+01 
    1.5837492650047890E+01 
    1.2013189139883789E+01 
    1.6782558406041669E+01 
    8.2415280821326604E+00 
    5.2649773744476720E+00 
    1.2330691352051284E+01 
    1.1831626802371948E+01 
    1.5843746139561999E+01 
    7.5615211715250963E+00 
    1.6465131387816676E+01 
    5.3537661304688466E+00 
    1.1766465472769132E+01 
    1.1042571346346254E+01 
    1.1569805998582904E+01 
    1.9347967584174960E+01 
    4.4849192609869659E+00 
    1.1629269572710784E+01 
    1.3929033415924355E+01 
    1.1171799874698534E+01 
    8.9994386335396381E+00 
    1.6596144276729454E+01 
    1.8888941739238817E+01 
    1.6758722594609988E+01 
    1.1563337166859986E+01 
    6.6501133266895023E+00 
    1.8733634702438209E+01 
    1.6177308021210322E+01 
    8.5870406763019869E+00 
    1.1193028294761886E+01 
    1.7443059601240890E+01 
    3.8190887987991191E+00 
    1.1889256961287252E+01 
    1.6733684951220408E+01 
    1.1584631130687258E+01 
    1.0101337135376665E+01 
    1.1672347144728837E+01 
    1.5535527443536266E+01 
    1.1566725622398170E+01 
    5.9236403112895468E+00 
    1.0547494884765181E+00 
    8.6447156881097822E+00 
    1.7683428449876406E+01 
    1.0952044279110872E+01 
    1.3007607880959219E+01 
    1.2468096237256407E+01 
    1.4382785577520821E+01 
    1.1598154647060827E+01 
    1.6075855230911905E+01 
    1.9362730924062415E+01 
    1.3818342126929570E+01 
    1.6906919857597174E+01 
    6.2687237758496783E-01 
    1.5844230461423257E+01 
    6.5496395320708807E+00 
    1.8161424974258214E+01 
    1.1644011057148525E+01 
    1.0296277028200471E+01 
    8.9871036601796472E+00 
    6.2132776283613058E+00 
    1.2986289152583549E+01 
    9.1687350317690193E+00 
    1.4371731903918391E+01 
    2.5406642280202147E+00 
    1.2701533933759613E+01 
    1.5766776466958234E+01 
    7.0280017802431072E+00 
    1.6354999594077537E+01 
    1.7946512393824953E+01 
    1.6185100241895913E+01 
    1.1495460127620873E+01 
    1.1563933366371119E+01 
    1.1636173432105876E+01 
    6.7317096115293449E+00 
    1.0648934764004931E+01 
    1.0471014928577144E+01 
    1.1624243056169584E+01 
    1.0873588368784000E+01 
    7.9668515131992257E-01 
    7.4986617812255316E+00 
    1.1322891499002006E+01 
    1.1596622634482763E+01 
    1.4767753606691137E+01 
    2.5072661919861652E+00 
    1.1967933679162654E+01 
    1.1838902161857058E+01 
    4.3214006204362114E+00 
    1.6035479585589503E+01 
    1.0100212875566100E+01 
    1.1697058099425792E+01 
    1.6174488269346988E+01 
    6.2396014473007630E+00 
    1.6157887290007569E+01 
    1.0232431311287401E+01 
    1.1420517215428414E+00 
    1.1022486107961853E+01 
    1.6855412576479118E+01 
    1.5843997610400757E+01 
    1.5864196798072335E+01 
    1.2007135965016529E+01 
    1.1769515972631684E+01 
    1.0075287907491903E+01 
    8.1931222039545393E+00 
    1.6298069617974935E+01 
    1.1187827765844935E+01 
    7.9561024090981158E+00 
    1.5859626429821713E+01 
    1.6626136523696392E+01 
    1.1814085299280395E+01 
    1.1384330020528928E+01 
    1.9236646755458235E+01 
    1.2014249177582466E+01 
    1.6315425858635006E+01 
    9.5864396171169144E+00 
    1.9391609488793563E+01 
    7.6872983485654318E+00 
    1.0531605509062690E+01 
    8.6095911432808219E+00 
    1.2274800959608063E+01 
    9.8702166267183937E+00 
    1.9374668995515421E+01 
    1.2068348735744658E+01 
    1.5483376519741523E+01 
    7.9049995088639031E+00 
    1.1593021084515668E+01 
    1.6139348953225642E+01 
    9.9102807826064083E+00 
    8.5642344485409474E+00 
    1.2960772542696075E+01 
    1.6381800980191038E+01 
    8.4773488022413481E+00 
    1.1066220367715886E+01 
    1.1419398979304962E+01 
    1.5816440798798167E+01 
    1.1198330262593915E+01 
    1.6360711133496956E+01 
    1.7048831486651036E+01 
    1.0108474832407982E+01 
    9.9107686751997353E+00 
    9.1887186655262738E+00 
    1.5973301988556685E+01 
    1.1867282380960026E+01 
    1.8929484318356444E+01 
    1.4819432323828874E+01 
    1.6094260536867999E+01 
    1.8600776560271566E+01 
    1.7953216995260259E+01 
    1.1639661090461296E+01 
    1.1607605150391329E+01 
    1.5569477508198583E+01 
    1.5887097307277621E+01 
    1.6490352942840460E+01 
    1.6200510416018933E+01 
    1.9259972746902800E+01 
    1.2013709375866487E+01 
    1.0222102939747947E+01 
    1.2007722467645600E+01 
    1.6953701067922651E+01 
    1.1734576883353832E+01 
    6.8663502670942327E+00 
    1.1477687299964780E+01 
    1.7409634808210889E+01 
    1.1878349808541437E+01 
    1.0234870281456738E+01 
    1.1360501479851568E+01 
    1.7528596001440039E+01 
    1.5917552904350924E+01 
    9.7603469852398810E+00 
    1.7674842693771591E+01 
    1.1668026516403522E+01 
    1.6476248807135811E+01 
    1.7542377814592736E+01 
    1.2321664641395166E+01 
    6.2475324996069768E+00 
    1.2843638113574075E+01 
    6.4609234242989553E+00 
    1.1784299528161943E+01 
    1.1588655855645715E+01 
    1.3548860649565203E+01 
    6.8373290029745064E+00 
    1.4392966723454837E+01 
    1.1605618807704300E+01 
    1.6189301278281135E+01 
    1.2397488402958976E+01 
    9.6013566559311396E+00 
    1.1220766768351391E+01 
    1.2176784259273031E+01 
    1.2130675747673619E+01 
    1.7101135078098977E+01 
    9.7679576150389256E+00 
    9.6018749629714808E+00 
    7.2007912974197419E+00 
    1.6518689489042618E+01 
    1.1267505524515194E+01 
    1.5679375211036772E+01 
    1.1557796304906558E+01 
    7.8782038238787893E+00 
    1.5949262003997765E+01 
    1.1534397770007340E+01 
    8.5731923184694327E+00 
    9.0662209252873129E+00 
    9.3791416756077197E+00 
    1.6223867449483880E+01 
    1.1626417218813677E+01 
    1.6920136315844175E+01 
    1.1494901683715611E+01 
    1.1434486697638320E+01 
    1.0976823686063362E+01 
    1.6043622962888055E+01 
    1.1349812838011051E+01 
    9.4222497811858847E+00 
    1.7941479837160468E+01 
    1.6134780392897230E+01 
    8.0512604694229459E+00 
    3.1621484838824125E+00 
    1.1615096875422701E+01 
    1.0900617199023824E+01 
    9.8961105546426058E+00 
    1.0757314708807012E+01 
    1.6074649212553577E+01 
    1.1293011033042966E+01 
    1.0282611809109538E+01 
    1.5911606106222777E+01 
    7.9819606030599140E+00 
    1.5526754951438342E+01 
    1.0516676064738764E+01 
    9.4277430856095936E+00 
    9.9916816288011550E+00 
    1.6569738127897125E+01 
    1.1572414382242785E+01 
    1.1580741308836147E+01 
    6.9241583370228330E+00 
    7.4815993346772141E+00 
    1.4687268396468014E+01 
    1.1590549629234502E+01 
    1.1658519561262848E+01 
    1.7660745381943105E+01 
    9.6062066086727853E+00 
    1.1602759250913211E+01 
    8.2572441828195160E+00 
    8.5238386479060928E+00 
    1.6033979238528900E+01 
    1.1226240474582687E+01 
    8.2439905055863658E+00 
    1.2161449444557567E+01 
    1.1490597083501148E+01 
    1.6038260967891784E+01 
    1.7759906019615890E+01 
    1.1965894809237505E+00 
    1.1620448322279648E+01 
    1.1830232619523919E+01 
    1.6111982451776168E+01 
    1.1102655763752248E+01 
    1.1545246050242843E+01 
    1.7161619122876935E+01 
    1.0033929213101347E+01 
    8.3185977037328609E+00 
    1.3905606612395106E+01 
    1.5859484571656127E+01 
    1.7015009673530592E+01 
    1.7306448609839116E+01 
    1.1448056547702736E+01 
    1.1611023104779882E+01 
    1.2998824060881876E+01 
    7.6554735211331062E+00 
    1.6005313274310893E+01 
    8.9560179098851247E+00 
    7.9678010729151225E+00 
    1.4505456887664067E+01 
    1.3678977721266284E+01 
    7.8158263067072236E+00 
    1.5899288982485940E+01 
    1.7000069225865680E+01 
    1.2031488863162698E+01 
    1.7869064876611933E+01 
    1.5936788655726268E+01 
    1.1164880301529273E+01 
    1.6708984063511775E+01 
    8.5189963607347590E+00 
    1.5880670916462277E+01 
    1.1619205167996974E+01 
    1.1578109137231753E+01 
    1.7844579865677328E+01 
    1.1307546650985074E+01 
    1.4254704981928040E+01 
    9.9764636789779377E+00 
    1.7129314066912404E+01 
    1.5774493987261597E+01 
    1.0403684399999403E+01 
    1.5831579005378819E+01 
    1.0543372375388765E+01 
    1.1552793114471257E+01 
    1.6955484374025968E+01 
    1.6197105028770942E+01 
    1.7003420260111778E+01 
    1.6115668867643489E+01 
    1.0654338434068844E+01 
    1.0893619501597133E+01 
    1.7011345353707291E+01 
    1.1034108584179803E+01 
    1.5688689842219480E+01 
    1.1292229775711684E+01 
    4.6524175753597588E+00 
    8.0521391187897091E+00 
    7.4601860853262636E+00 
    1.6959582901818344E+01 
    1.7767539545444812E+01 
    1.5852041574870729E+01 
    1.3287315552797217E+01 
    1.6175969589678481E+01 
    1.5909061710323011E+01 
    1.6568470782412476E+01 
    6.6924906633559402E+00 
    4.3333017383676609E+00 
    1.3041015902923377E+01 
    1.1276452971666187E+01 
    1.6077284643673540E+01 
    1.6074464965448481E+01 
    1.1853329319616444E+01 
    1.6116536098275933E+01 
    1.1604811672332382E+01 
    1.1524280381038171E+01 
    6.0411180815669638E+00 
    4.3219046647281019E+00 
    1.7524272765397242E+01 
    9.0510852508148858E+00 
    1.0336890206645888E+01 
    1.1746045475796873E+01 
    1.9239320015446062E+01 
    1.1840162760133348E+01 
    1.1960592762088806E+01 
    4.9211103458273966E+00 
    1.1840450664432334E+01 
    1.1855235058589024E+01 
    1.6405930227195078E+01 
    9.9996083683442301E+00 
    1.1103314811859855E+01 
    1.7706367325686482E+01 
    1.1629536050735920E+01 
    1.5869757009288826E+01 
    1.6128253468075719E+01 
    1.4178309421074454E+01 
    9.8500698154020139E+00 
    1.6115289379567376E+01 
    1.1411961397524214E+01 
    1.6051125222994148E+01 
    1.5800956453375671E+01 
    1.6980712894012704E+01 
    1.6113070277566582E+01 
    1.5086969786373428E+01 
    1.1617086548920883E+01 
    7.7563175112668494E+00 
    1.9106998965153792E+01 
    9.1369485972748841E+00 
    1.6900308613798732E+01 
    1.1614316546199744E+01 
    9.6573405139540967E+00 
    5.7798260628467082E+00 
    1.1894661100219320E+01 
    1.6100316709092905E+01 
    1.6096268471819918E+01 
    1.1533074201072235E+01 
    1.1608087843101485E+01 
    1.7927247579246117E+01 
    1.7244804885081088E+01 
    1.1860499350267514E+01 
    4.0288989060465896E+00 
    1.4962723918388177E+01 
    1.9371463855164130E+01 
    1.1620620083338361E+01 
    1.3718408300715804E+01 
    1.1102010850785621E+01 
    1.8956131013905310E+01 
    1.7332344007494129E+01 
    1.7049894963401215E+01 
    1.1883614910094973E+01 
    5.3640908084454182E+00 
    1.1055020686193197E+01 
    1.1128053380319944E+01 
    1.1170030932904961E+01 
    4.3921474698341623E+00 