# vtk DataFile Version 2.0
Pressure Field Data 
ASCII 
DATASET UNSTRUCTURED_GRID 

POINTS 2860 double 

    0.0000000000000000E+00     0.0000000000000000E+00     0.0000000000000000E+00 
    1.0000000000000000E+00     0.0000000000000000E+00     0.0000000000000000E+00 
    1.0000000000000000E+00     1.0000000000000000E+00     0.0000000000000000E+00 
    0.0000000000000000E+00     1.0000000000000000E+00     0.0000000000000000E+00 
    2.5000000000000000E-01     2.5000000000000000E-01     0.0000000000000000E+00 
    7.5000000000000000E-01     2.5000000000000000E-01     0.0000000000000000E+00 
    7.5000000000000000E-01     7.5000000000000000E-01     0.0000000000000000E+00 
    2.5000000000000000E-01     7.5000000000000000E-01     0.0000000000000000E+00 
    3.1249999999942091E-02     0.0000000000000000E+00     0.0000000000000000E+00 
    6.2499999999873469E-02     0.0000000000000000E+00     0.0000000000000000E+00 
    9.3749999999826514E-02     0.0000000000000000E+00     0.0000000000000000E+00 
    1.2499999999977961E-01     0.0000000000000000E+00     0.0000000000000000E+00 
    1.5624999999968961E-01     0.0000000000000000E+00     0.0000000000000000E+00 
    1.8749999999959971E-01     0.0000000000000000E+00     0.0000000000000000E+00 
    2.1874999999950970E-01     0.0000000000000000E+00     0.0000000000000000E+00 
    2.4999999999941969E-01     0.0000000000000000E+00     0.0000000000000000E+00 
    2.8124999999932920E-01     0.0000000000000000E+00     0.0000000000000000E+00 
    3.1249999999923850E-01     0.0000000000000000E+00     0.0000000000000000E+00 
    3.4374999999914790E-01     0.0000000000000000E+00     0.0000000000000000E+00 
    3.7499999999905720E-01     0.0000000000000000E+00     0.0000000000000000E+00 
    4.0624999999896660E-01     0.0000000000000000E+00     0.0000000000000000E+00 
    4.3749999999887590E-01     0.0000000000000000E+00     0.0000000000000000E+00 
    4.6874999999878530E-01     0.0000000000000000E+00     0.0000000000000000E+00 
    4.9999999999869471E-01     0.0000000000000000E+00     0.0000000000000000E+00 
    5.3124999999877620E-01     0.0000000000000000E+00     0.0000000000000000E+00 
    5.6249999999885780E-01     0.0000000000000000E+00     0.0000000000000000E+00 
    5.9374999999893940E-01     0.0000000000000000E+00     0.0000000000000000E+00 
    6.2499999999902101E-01     0.0000000000000000E+00     0.0000000000000000E+00 
    6.5624999999910261E-01     0.0000000000000000E+00     0.0000000000000000E+00 
    6.8749999999918421E-01     0.0000000000000000E+00     0.0000000000000000E+00 
    7.1874999999926570E-01     0.0000000000000000E+00     0.0000000000000000E+00 
    7.4999999999934730E-01     0.0000000000000000E+00     0.0000000000000000E+00 
    7.8124999999942890E-01     0.0000000000000000E+00     0.0000000000000000E+00 
    8.1249999999951039E-01     0.0000000000000000E+00     0.0000000000000000E+00 
    8.4374999999959199E-01     0.0000000000000000E+00     0.0000000000000000E+00 
    8.7499999999967359E-01     0.0000000000000000E+00     0.0000000000000000E+00 
    9.0624999999975520E-01     0.0000000000000000E+00     0.0000000000000000E+00 
    9.3749999999983680E-01     0.0000000000000000E+00     0.0000000000000000E+00 
    9.6874999999991840E-01     0.0000000000000000E+00     0.0000000000000000E+00 
    1.0000000000000000E+00     3.1249999999942091E-02     0.0000000000000000E+00 
    1.0000000000000000E+00     6.2499999999873469E-02     0.0000000000000000E+00 
    1.0000000000000000E+00     9.3749999999826514E-02     0.0000000000000000E+00 
    1.0000000000000000E+00     1.2499999999977961E-01     0.0000000000000000E+00 
    1.0000000000000000E+00     1.5624999999968961E-01     0.0000000000000000E+00 
    1.0000000000000000E+00     1.8749999999959971E-01     0.0000000000000000E+00 
    1.0000000000000000E+00     2.1874999999950970E-01     0.0000000000000000E+00 
    1.0000000000000000E+00     2.4999999999941969E-01     0.0000000000000000E+00 
    1.0000000000000000E+00     2.8124999999932920E-01     0.0000000000000000E+00 
    1.0000000000000000E+00     3.1249999999923850E-01     0.0000000000000000E+00 
    1.0000000000000000E+00     3.4374999999914790E-01     0.0000000000000000E+00 
    1.0000000000000000E+00     3.7499999999905720E-01     0.0000000000000000E+00 
    1.0000000000000000E+00     4.0624999999896660E-01     0.0000000000000000E+00 
    1.0000000000000000E+00     4.3749999999887590E-01     0.0000000000000000E+00 
    1.0000000000000000E+00     4.6874999999878530E-01     0.0000000000000000E+00 
    1.0000000000000000E+00     4.9999999999869471E-01     0.0000000000000000E+00 
    1.0000000000000000E+00     5.3124999999877620E-01     0.0000000000000000E+00 
    1.0000000000000000E+00     5.6249999999885780E-01     0.0000000000000000E+00 
    1.0000000000000000E+00     5.9374999999893940E-01     0.0000000000000000E+00 
    1.0000000000000000E+00     6.2499999999902101E-01     0.0000000000000000E+00 
    1.0000000000000000E+00     6.5624999999910261E-01     0.0000000000000000E+00 
    1.0000000000000000E+00     6.8749999999918421E-01     0.0000000000000000E+00 
    1.0000000000000000E+00     7.1874999999926570E-01     0.0000000000000000E+00 
    1.0000000000000000E+00     7.4999999999934730E-01     0.0000000000000000E+00 
    1.0000000000000000E+00     7.8124999999942890E-01     0.0000000000000000E+00 
    1.0000000000000000E+00     8.1249999999951039E-01     0.0000000000000000E+00 
    1.0000000000000000E+00     8.4374999999959199E-01     0.0000000000000000E+00 
    1.0000000000000000E+00     8.7499999999967359E-01     0.0000000000000000E+00 
    1.0000000000000000E+00     9.0624999999975520E-01     0.0000000000000000E+00 
    1.0000000000000000E+00     9.3749999999983680E-01     0.0000000000000000E+00 
    1.0000000000000000E+00     9.6874999999991840E-01     0.0000000000000000E+00 
    9.6875000000003686E-01     1.0000000000000000E+00     0.0000000000000000E+00 
    9.3750000000011691E-01     1.0000000000000000E+00     0.0000000000000000E+00 
    9.0625000000015765E-01     1.0000000000000000E+00     0.0000000000000000E+00 
    8.7500000000017863E-01     1.0000000000000000E+00     0.0000000000000000E+00 
    8.4375000000028044E-01     1.0000000000000000E+00     0.0000000000000000E+00 
    8.1250000000040856E-01     1.0000000000000000E+00     0.0000000000000000E+00 
    7.8125000000054956E-01     1.0000000000000000E+00     0.0000000000000000E+00 
    7.5000000000066480E-01     1.0000000000000000E+00     0.0000000000000000E+00 
    7.1875000000086831E-01     1.0000000000000000E+00     0.0000000000000000E+00 
    6.8750000000102829E-01     1.0000000000000000E+00     0.0000000000000000E+00 
    6.5625000000114431E-01     1.0000000000000000E+00     0.0000000000000000E+00 
    6.2500000000129829E-01     1.0000000000000000E+00     0.0000000000000000E+00 
    5.9375000000147926E-01     1.0000000000000000E+00     0.0000000000000000E+00 
    5.6250000000168354E-01     1.0000000000000000E+00     0.0000000000000000E+00 
    5.3125000000188671E-01     1.0000000000000000E+00     0.0000000000000000E+00 
    5.0000000000205835E-01     1.0000000000000000E+00     0.0000000000000000E+00 
    4.6875000000192979E-01     1.0000000000000000E+00     0.0000000000000000E+00 
    4.3750000000180111E-01     1.0000000000000000E+00     0.0000000000000000E+00 
    4.0625000000167238E-01     1.0000000000000000E+00     0.0000000000000000E+00 
    3.7500000000154382E-01     1.0000000000000000E+00     0.0000000000000000E+00 
    3.4375000000141509E-01     1.0000000000000000E+00     0.0000000000000000E+00 
    3.1250000000128642E-01     1.0000000000000000E+00     0.0000000000000000E+00 
    2.8125000000115769E-01     1.0000000000000000E+00     0.0000000000000000E+00 
    2.5000000000102918E-01     1.0000000000000000E+00     0.0000000000000000E+00 
    2.1875000000090050E-01     1.0000000000000000E+00     0.0000000000000000E+00 
    1.8750000000077180E-01     1.0000000000000000E+00     0.0000000000000000E+00 
    1.5625000000064329E-01     1.0000000000000000E+00     0.0000000000000000E+00 
    1.2500000000051459E-01     1.0000000000000000E+00     0.0000000000000000E+00 
    9.3750000000385914E-02     1.0000000000000000E+00     0.0000000000000000E+00 
    6.2500000000257239E-02     1.0000000000000000E+00     0.0000000000000000E+00 
    3.1250000000128557E-02     1.0000000000000000E+00     0.0000000000000000E+00 
    0.0000000000000000E+00     9.6875000000003686E-01     0.0000000000000000E+00 
    0.0000000000000000E+00     9.3750000000011691E-01     0.0000000000000000E+00 
    0.0000000000000000E+00     9.0625000000015765E-01     0.0000000000000000E+00 
    0.0000000000000000E+00     8.7500000000017863E-01     0.0000000000000000E+00 
    0.0000000000000000E+00     8.4375000000028044E-01     0.0000000000000000E+00 
    0.0000000000000000E+00     8.1250000000040856E-01     0.0000000000000000E+00 
    0.0000000000000000E+00     7.8125000000054956E-01     0.0000000000000000E+00 
    0.0000000000000000E+00     7.5000000000066480E-01     0.0000000000000000E+00 
    0.0000000000000000E+00     7.1875000000086831E-01     0.0000000000000000E+00 
    0.0000000000000000E+00     6.8750000000102829E-01     0.0000000000000000E+00 
    0.0000000000000000E+00     6.5625000000114431E-01     0.0000000000000000E+00 
    0.0000000000000000E+00     6.2500000000129829E-01     0.0000000000000000E+00 
    0.0000000000000000E+00     5.9375000000147926E-01     0.0000000000000000E+00 
    0.0000000000000000E+00     5.6250000000168354E-01     0.0000000000000000E+00 
    0.0000000000000000E+00     5.3125000000188671E-01     0.0000000000000000E+00 
    0.0000000000000000E+00     5.0000000000205835E-01     0.0000000000000000E+00 
    0.0000000000000000E+00     4.6875000000192979E-01     0.0000000000000000E+00 
    0.0000000000000000E+00     4.3750000000180111E-01     0.0000000000000000E+00 
    0.0000000000000000E+00     4.0625000000167238E-01     0.0000000000000000E+00 
[...]
CELL_DATA 2795 
SCALARS Pressure double 1 
LOOKUP_TABLE default 

    7.8186482550955763E+00 
    1.9789937310439797E+01 
    1.3343404392819375E+01 
    1.2999331869222367E+01 
    9.9467628665506993E+00 
    1.9450940036854668E+01 
    2.0620699035698319E+01 
    6.8475299725850309E+00 
    1.3972189438903643E+01 
    1.0527356574081626E+01 
    8.8511146754165946E+00 
    1.9007349288916892E+01 
    1.9626543298373839E+01 
    1.9394941216024815E+01 
    1.2173669419671112E+01 
    6.7274074820667993E+00 
    1.1817828328266106E+01 
    9.4730424581085035E+00 
    1.8377279161673556E+01 
    1.3318532385636150E+01 
    1.3195672517759066E+01 
    1.9275332119072555E+01 
    1.2606021058305474E+01 
    4.4742688239867168E-01 
    1.9041090834296845E+01 
    1.9607137721470000E+01 
    2.0671656316243880E+01 
    8.4746704425952579E+00 
    1.8862926382097797E+01 
    2.0688913648092633E+01 
    1.3571786359951908E+01 
    1.3553359971148653E+01 
    9.1850900839789951E+00 
    1.3300556345442985E+01 
    4.0546340611437479E+00 
    1.1826527675960483E+01 
    1.3281885313860164E+01 
    2.0746440090647422E+01 
    2.0588410696797879E+01 
    1.9029360001870653E+01 
    9.8358482455748870E+00 
    1.9135271189453842E+01 
    9.2908282902113648E-01 
    1.3309705080924015E+01 
    2.0393311009470718E+01 
    1.9943230217455717E+01 
    1.8988561175754281E+01 
    1.4442680284023318E+01 
    1.9022311585276331E+01 
    1.2110006113515245E+01 
    1.1476574337438214E+01 
    1.3511496883057555E+01 
    1.3192591489480355E+01 
    1.1885317278883305E+01 
    1.3662468723066834E+01 
    1.8030852993028301E+01 
    1.5793714733794602E+01 
    1.0012810358575910E+01 
    1.9293758914371576E+01 
    1.9137944589659664E+01 
    1.2930806780929670E+01 
    1.2791425551369850E+01 
    1.2864322525028371E+01 
    2.0544733620333233E+01 
    2.0957616110424308E+01 
    1.1830198730328277E+01 
    1.3509579111149094E+01 
    1.8658194617540097E+01 
    1.5592100094754743E+01 
    1.2831502645953631E+01 
    2.0898492553362512E+01 
    1.9315064934843463E+01 
    1.1648980421201662E+01 
    2.0085626042231809E+01 
    1.3978497544641755E+01 
    1.8849140372360157E+01 
    2.0771733730813537E+01 
    1.4034901082521960E+01 
    7.9789036155500455E+00 
    1.3531161267701997E+01 
    2.0598713315336028E+01 
    2.0969805153005268E+01 
    1.1861108143644694E+01 
    1.3446341834622602E+01 
    2.1029721201288901E+01 
    1.3278692391230042E+01 
    1.2736961442001785E+01 
    1.6208131440042802E+01 
    7.5673969040967242E+00 
    1.1513645158548076E+01 
    1.3442609170319114E+01 
    1.4150467834327001E+01 
    2.2942880773107369E+01 
    9.6163220992465810E+00 
    1.3518894776395161E+01 
    1.8955560975201223E+01 
    1.9525599033941699E+01 
    8.2763480663334654E+00 
    1.3103099897170409E+01 
    1.3482135772338671E+01 
    1.9574830552803480E+01 
    1.3469718045107431E+01 
    1.9430988868714344E+01 
    4.8439939460373500E+00 
    8.5939101617710492E+00 
    1.3777775999203552E+01 
    1.9804244469704042E+01 
    1.1777157881185842E+01 
    1.2596838287934604E+01 
    1.3442730631478797E+01 
    1.2692218046797660E+01 
    1.5310998107671956E+01 
    1.2215203746212355E+01 
    1.1661013304450297E+01 
    8.7688409514849894E+00 
    1.6284498233210698E+01 
    1.3559109228700081E+01 
    2.0424504528984290E+01 
    1.1513688908613352E+01 
    1.2969445464607611E+01 
    1.9328703720570047E+01 
    1.0510317717279570E+01 
    2.0040726612600167E+01 
    1.3363887828613658E+01 
    1.2876851791533367E+01 
    1.9536682434496996E+01 
    1.3545824083751254E+01 
    2.0769968422885505E+01 
    1.6241871459213428E+01 
    1.7759525731791111E+01 
    2.0696989055594930E+01 
    9.6387188625639109E+00 
    1.3801441957363222E+01 
    1.9570403256090124E+01 
    3.6030997104569638E+00 
    1.3633884803095398E+01 
    2.0645416956468917E+01 
    1.2910578347491748E+01 
    1.5006938318437070E+01 
    8.1944005450774284E+00 
    1.8976901782919477E+01 
    2.3539669817900329E+01 
    1.6949084021346625E+01 
    1.2915943686230074E+01 
    1.1358128178598387E+01 
    1.4526219410661316E+01 
    1.3383882157388911E+01 
    8.9425539725074081E+00 
    2.0701082120021528E+01 
    1.9496042691774786E+01 
    1.8960074353308872E+01 
    1.4150267050347756E+01 
    1.1606545624696526E+01 
    1.3189306716712952E+01 
    2.0115101918852847E+01 
    1.1990500814974137E+01 
    1.3520558730060728E+01 
    1.2242756492203453E+01 
    1.5987075251323287E+01 
    2.3525472616781645E+01 
    1.8938008618720517E+01 
    1.1448473645589301E+01 
    1.9861209914906080E+01 
    1.9742103143919884E+01 
    1.9862301947524497E+01 
    2.1319533416109078E+01 
    2.2041913058739226E+01 
    1.9898874092191967E+01 
    1.3499737755966907E+01 
    1.4720147533342425E+01 
    1.9620050337164596E+01 
    2.0402639375674585E+01 
    9.3552455105960224E+00 
    1.8982280632589301E+01 
    2.0041185205902885E+01 
    9.0993477125401654E+00 
    2.1228419667196743E+01 
    2.1175311808947640E+01 
    1.8483608703931079E+01 
    1.3887092024841222E+01 
    3.3652132108853778E+00 
    2.0655505743414871E+01 
    1.3704068418304409E+01 
    2.0866856665827068E+01 
    1.2809214706714068E+01 
    2.0317872307097524E+01 
    1.1652485844032698E+00 
    1.7752055876949996E+01 
    1.2852395029203523E+01 
    1.1542988121280501E+01 
    1.1195540024273420E+01 
    1.3325248089286927E+01 
    1.4793991503078647E+01 
    1.4143138269061321E+01 
    8.9075573575019700E+00 
    2.0416141585636161E+01 
    1.9614587009901001E+01 
    1.5754656041405891E+01 
    1.3766804155428307E+01 
    1.8112360406377901E+00 
    1.0170926863069528E+01 
    6.6951938901255170E+00 
    2.0708011532983814E+01 
    1.5163815306832639E+01 
    1.9490593233452067E+01 
    1.9714642349415641E+01 
    1.2103357134366837E+01 
    1.5894676847741120E+01 
    1.8933335090096286E+01 
    2.1154905502299798E+01 
    8.1636153937580520E+00 
    1.7068570094125320E+01 
    1.4063018116018689E+01 
    7.1530420955605329E+00 
    1.2100852714880164E+01 
    1.6686330181407300E+01 
    1.9656351745492540E+01 
    1.3385248917967678E+01 
    1.9828021301430464E+01 
    1.9460303543821841E+01 
    1.9385289831388640E+01 
    1.3193675401882304E+01 
    1.1405021314950522E+01 
    1.8976470171700967E+01 
    1.1641594249508636E+01 
    1.3480137855961555E+01 
    1.1372316159562475E+01 
    1.3476557727075567E+01 
    1.9728784337678203E+01 
    8.0859200198097945E+00 
    1.1963740043304378E+01 
    2.0567967282191546E+01 
    1.3203148829207073E+01 
    1.5022283462948240E+01 
    8.2947602142883046E+00 
    1.1739891122826297E+01 
    1.9424195844972125E+01 
    1.9912632311577518E+01 
    6.7642907292643484E+00 
    1.3220465297537849E+01 
    1.1427853657243011E+01 
    2.1737134017756393E+01 
    2.0985456355984699E+01 
    2.2084738107359133E+01 
    1.3244758279811363E+01 
    1.9687201691552715E+01 
    1.8842972471593889E+01 
    1.3059583865225875E+01 
    1.8956041682710264E+01 
    1.3767219652371972E+01 
    7.2720579463826551E+00 
    1.3699877642182875E+01 
    2.0565912312968837E+01 
    1.8949239304577226E+01 
    8.7927459513125346E+00 
    1.8998943783936561E+01 
    1.4830997702846263E+01 
    1.3604809819688496E+01 
    1.3006501267561536E+01 
    1.8711979666317298E+01 
    1.4306891904016249E+01 
    1.8981418868832588E+01 
    1.3228879912963926E+01 
    7.5704951573135348E+00 
    1.3570777814777333E+01 
    1.1214298075868687E+01 
    1.6982337048178309E+01 
    2.0835949685495773E+01 
    1.8980470002524925E+01 
    2.0635617739269261E+01 
    1.3129612266339775E+01 
    8.5648661129180024E+00 
    8.6939899146712118E+00 
    1.3858031323707573E+01 
    1.3446302504433580E+01 
    1.8365172962662792E+00 
    1.8077491938306771E+01 
    2.1378012186149594E+01 
    1.2835769339591428E+01 
    7.6019315753168355E+00 
    1.5734583799863714E+01 
    1.8988371405481026E+01 
    9.2733021495962937E+00 
    6.0061080459683041E+00 
    1.3429029716329481E+01 
    1.9140852514145919E+01 
    2.0296286144256467E+01 
    1.9925911222630305E+01 
    1.9917821459333826E+01 
    8.9988790766787261E+00 
    1.3599999150303638E+01 
    1.8434520512426470E+01 
    1.0319093183273495E+01 
    1.9603314271870712E+01 
    1.6215797497150369E+01 
    8.8256901541211885E+00 
    1.9104647660342302E+01 
    2.0732721847572080E+01 
    1.9248051650063829E+01 
    8.8705179720272600E+00 
    1.3504916795019597E+01 
    9.9102623165337285E+00 
    1.2697092450089025E+01 
    1.8979957537341036E+01 
    1.8961305842500227E+01 
    8.9264321225228382E+00 
    2.0377074980487631E+01 
    1.4211175838538157E+01 
    1.9049662802821242E+01 
    2.0470132789712743E+01 
    1.9013556369598817E+01 
    1.7309879553972273E+01 
    2.1825380465139773E+01 
    1.2750006177469734E+01 
    2.0588264144004953E+01 
    1.9070813173251615E+01 
    2.0703629755493640E+01 
    2.0361454570795363E+01 
    1.2897847833748497E+01 
    1.3329547768913885E+01 
    1.2824881628941926E+01 
    1.6531031202440001E+01 
    4.8652793532544054E+00 
    1.3771102799266922E+01 
    2.1983930709476031E+01 
    1.3773812937645575E+01 
    1.4035575834095983E+01 
    2.0661580922673171E+01 
    2.0987731888507028E+01 
    1.2593070744151303E+01 
    1.9004646454563222E+01 
    1.8963907533524225E+01 
    1.4017898223399012E+01 
    2.0282373292264715E+01 
    9.3008356947505995E+00 
    5.8838981454468033E+00 
    1.4416201163089420E+01 
    1.3789852232610777E+01 
    1.8949678708935252E+01 
    8.2606961858314563E+00 
    1.9811801149848179E+01 
    5.9959137342677202E+00 
    1.3711956259288078E+01 
    1.2891076907850893E+01 
    1.3477592511411908E+01 
    2.3583273965595311E+01 
    4.7226859874828344E+00 
    1.3657273338669366E+01 
    1.6633394925937502E+01 
    1.2982682814238759E+01 
    9.9594014702400955E+00 
    2.0094643840144503E+01 
    2.3049127236171952E+01 
    2.0298365736775636E+01 
    1.3571765534353521E+01 
    7.1025077722208820E+00 
    2.2873452564691767E+01 
    1.9589703211434259E+01 
    9.4326542058628213E+00 
    1.3117994014985495E+01 
    2.1294108174430189E+01 
    4.0019484556151639E+00 
    1.3862616067704149E+01 
    2.0378238424450618E+01 
    1.3495978131592098E+01 
    1.1633172346789552E+01 
    1.3712142760834125E+01 
    1.8526919759808127E+01 
    1.3475271671903297E+01 
    6.2602790131863992E+00 
    1.1525940044482150E+00 
    9.8052335725208746E+00 
    2.1618899061795503E+01 
    1.2824522717736684E+01 
    1.5421782429038577E+01 
    1.4729483382120556E+01 
    1.7078597041533559E+01 
    1.3511865952729291E+01 
    1.9441173634178149E+01 
    2.3599733922011890E+01 
    1.6090589434336323E+01 
    2.0545094452167813E+01 
    6.7004988971556456E-01 
    1.8961774932912753E+01 
    7.0419607735928356E+00 
    2.2197193946314204E+01 
    1.3676075699971078E+01 
    1.1880434028179556E+01 
    1.0144044500657332E+01 
    6.5967092204288340E+00 
    1.5071290612077460E+01 
    1.0444823114656687E+01 
    1.6822066706187030E+01 
    2.8226652412278979E+00 
    1.4883794223662104E+01 
    1.8827936135302529E+01 
    7.8762285535428038E+00 
    1.9686887239408858E+01 
    2.1891131869994453E+01 
    1.9502861074166400E+01 
    1.3483346792448575E+01 
    1.3470231304933574E+01 
    1.3666072213006611E+01 
    7.1963322625543098E+00 
    1.2411105094264364E+01 
    1.2170865160230438E+01 
    1.3650852201163744E+01 
    1.2720710313573871E+01 
    8.5995947511972093E-01 
    8.1612844307972860E+00 
    1.3262628218002622E+01 
    1.3615072714732905E+01 
    1.7356808541503803E+01 
    2.6153364444750657E+00 
    1.3961180375959579E+01 
    1.3799701734602932E+01 
    4.5363951788841943E+00 
    1.9276110508382978E+01 
    1.1661370853994171E+01 
    1.3629174167739466E+01 
    1.9573630726539825E+01 
    6.6095494579773835E+00 
    1.9431426280259124E+01 
    1.1848720077179468E+01 
    1.1783716131594719E+00 
    1.2910670029254616E+01 
    2.0454929444416038E+01 
    1.8970450931924045E+01 
    1.9007156048799178E+01 
    1.4139741445596323E+01 
    1.3715367464226013E+01 
    1.1643403395137117E+01 
    8.9533398583857107E+00 
    1.9750706383657256E+01 
    1.3108377621811959E+01 
    8.6970327981897313E+00 
    1.8994991857243196E+01 
    2.0120027453593110E+01 
    1.3890158134517810E+01 
    1.3262784156426131E+01 
    2.3454824622537345E+01 
    1.4019260282243312E+01 
    1.9791401082554248E+01 
    1.0963848174759770E+01 
    2.3630048646595288E+01 
    8.6431774146447395E+00 
    1.2215722182782152E+01 
    9.7411051174188952E+00 
    1.4346751180390509E+01 
    1.1313834100067389E+01 
    2.3611559544414220E+01 
    1.4087210197208030E+01 
    1.8503828799439493E+01 
    8.8926965745366608E+00 
    1.3505344698531195E+01 
    1.9540624022896299E+01 
    1.1356113948849156E+01 
    9.3750641119471041E+00 
    1.5367969462115907E+01 
    1.9765761877651670E+01 
    9.6006245310280978E+00 
    1.2923891213856621E+01 
    1.3310143264162161E+01 
    1.8924102318406742E+01 
    1.3025405901546344E+01 
    1.9860220970688122E+01 
    2.0747463766473810E+01 
    1.1679728776924321E+01 
    1.1413036847314782E+01 
    1.0488928733156628E+01 
    1.9159020365810111E+01 
    1.3822328720504526E+01 
    2.3096077152511473E+01 
    1.7544554850586195E+01 
    1.9468875195482287E+01 
    2.2714857362915861E+01 
    2.1897626786921869E+01 
    1.3560553369248080E+01 
    1.3629375133183279E+01 
    1.8502670351653190E+01 
    1.9029714038982583E+01 
    2.0031966489229639E+01 
    1.9619860262392173E+01 
    2.3485193581018770E+01 
    1.4018575904074702E+01 
    1.1845739649029099E+01 
    1.3981838792076070E+01 
    2.0610788438644157E+01 
    1.3673051138299494E+01 
    7.6652942736456327E+00 
    1.3460309570768182E+01 
    2.1257537612618261E+01 
    1.3848832642123224E+01 
    1.1853481158716662E+01 
    1.3238617923603089E+01 
    2.1408620916509769E+01 
    1.9241059176340745E+01 
    1.1116342383313659E+01 
    2.1591000469912863E+01 
    1.3594187343546091E+01 
    2.0015884739584688E+01 
    2.1421242461615254E+01 
    1.4462431580748108E+01 
    6.6397937317658693E+00 
    1.5081927488726606E+01 
    6.8805633455482447E+00 
    1.3732273815709082E+01 
    1.3501317987416385E+01 
    1.5966413499108461E+01 
    7.3186673455051752E+00 
    1.7089373794659252E+01 
    1.3520466449191336E+01 
    1.9605316477346157E+01 
    1.4680990973080387E+01 
    1.0736862099529715E+01 
    1.3050307918247089E+01 
    1.4351937474180993E+01 
    1.4165094070552151E+01 
    2.0865295844046699E+01 
    1.1220238792618272E+01 
    1.0989846729682426E+01 
    7.7549133527811778E+00 
    2.0085188723628143E+01 
    1.3115392792371884E+01 
    1.8875017629747681E+01 
    1.3464683151466884E+01 
    8.6080903576566357E+00 
    1.9257072851523692E+01 
    1.3437518130645277E+01 
    9.5464426584165842E+00 
    1.0241366914256414E+01 
    1.0681031946648670E+01 
    1.9652797492348000E+01 
    1.3653638630880096E+01 
    2.0559409837314547E+01 
    1.3391344995484147E+01 
    1.3319478576930006E+01 
    1.2809710851712188E+01 
    1.9392855418783295E+01 
    1.3215675807897910E+01 
    1.0741017894627166E+01 
    2.1887838364865857E+01 
    1.9516216942834472E+01 
    9.0692714062380144E+00 
    3.3022417635578001E+00 
    1.3639321774538899E+01 
    1.2614917426265491E+01 
    1.1397780163289095E+01 
    1.2520656037894952E+01 
    1.9312585741674660E+01 
    1.3222231918474014E+01 
    1.1902008362009433E+01 
    1.9069809446318754E+01 
    8.9872700226456157E+00 
    1.8448968239930551E+01 
    1.2158546136158893E+01 
    1.0589650837981763E+01 
    1.1531599813031999E+01 
    2.0141930503816042E+01 
    1.3480516240348376E+01 
    1.3490599493130345E+01 
    7.4468938634362196E+00 
    8.1604889242802869E+00 
    1.7432500529060135E+01 
    1.3502311968766664E+01 
    1.3694374482094251E+01 
    2.1579545225651803E+01 
    1.0993243828633458E+01 
    1.3516850630926431E+01 
    9.3243990040441691E+00 
    9.6489074700629534E+00 
    1.9332351599620928E+01 
    1.3059728511712601E+01 
    9.1520113693913494E+00 
    1.4153060293297285E+01 
    1.3392075195488367E+01 
    1.9356918261383939E+01 
    2.1702717099398871E+01 
    1.2467548996570319E+00 
    1.3646140499356679E+01 
    1.3788394926569127E+01 
    1.9490259189171208E+01 
    1.3008143392978576E+01 
    1.3447480077695644E+01 
    2.0948214660788729E+01 
    1.1580791032984649E+01 
    9.2523575549773689E+00 
    1.6375396925670863E+01 
    1.8991028619480932E+01 
    2.0695243093294582E+01 
    2.1113478237519860E+01 
    1.3425662627824911E+01 
    1.3633871583389070E+01 
    1.5141194893321064E+01 
    8.5878586499713911E+00 
    1.9216882896042286E+01 
    1.0099671435728615E+01 
    8.9693478080564173E+00 
    1.7073648317528690E+01 
    1.5950599225061042E+01 
    8.7840799827663094E+00 
    1.9051130947154260E+01 
    2.0676175240741962E+01 
    1.4040900649486241E+01 
    2.1840207196645952E+01 
    1.9107171077762676E+01 
    1.3074650085568713E+01 
    2.0181331997312668E+01 
    9.6463910044024210E+00 
    1.9017051030209334E+01 
    1.3644479722032980E+01 
    1.3593205315163322E+01 
    2.1816258421548728E+01 
    1.3171432372371813E+01 
    1.6668251451147103E+01 
    1.1503791919910270E+01 
    2.0858787209877555E+01 
    1.8845842537001349E+01 
    1.2060214137218292E+01 
    1.8969397223248556E+01 
    1.2153758833335543E+01 
    1.3455669223414262E+01 
    2.0613942770798893E+01 
    1.9597729999389575E+01 
    2.0680237409023899E+01 
    1.9492843280698303E+01 
    1.2430315636893695E+01 
    1.2720887369976008E+01 
    2.0693072988572467E+01 
    1.2904965460247299E+01 
    1.8684854102044476E+01 
    1.3147332707261363E+01 
    4.9217242715420362E+00 
    9.0734695141383828E+00 
    8.3828261668650406E+00 
    2.0619686484823667E+01 
    2.1715249908556917E+01 
    1.8988570419812874E+01 
    1.5614578711314934E+01 
    1.9451740356235394E+01 
    1.9064881738849110E+01 
    2.0054661011561109E+01 
    7.1412507821565958E+00 
    4.5711353439577316E+00 
    1.5300603432999909E+01 
    1.3216645884947186E+01 
    1.9328817522668686E+01 
    1.9324327357053185E+01 
    1.3812003228800796E+01 
    1.9388372472253060E+01 
    1.3625864442417104E+01 
    1.3518721147738196E+01 
    6.3938223458410812E+00 
    4.5417276772745270E+00 
    2.1400987345489309E+01 
    1.0307834247422655E+01 
    1.1989947770056366E+01 
    1.3687469586935521E+01 
    2.3460098966326083E+01 
    1.3800554476828417E+01 
    1.4046823907972882E+01 
    5.2559300158460847E+00 
    1.3800359608995539E+01 
    1.3817936584152859E+01 
    1.9733180842749125E+01 
    1.1538483463128149E+01 
    1.2899479256860845E+01 
    2.1634360635368662E+01 
    1.3657681217027790E+01 
    1.9010849455795540E+01 
    1.9370988595815199E+01 
    1.6760403567453565E+01 
    1.1307683576056668E+01 
    1.9488702966207246E+01 
    1.3387048437575116E+01 
    1.9281087607129756E+01 
    1.8898199878302883E+01 
    2.0649521255235587E+01 
    1.9497869559599199E+01 
    1.7787659945401636E+01 
    1.3641732952703046E+01 
    8.7210404026473078E+00 
    2.3309000461277133E+01 
    1.0352523476188432E+01 
    2.0571721992014847E+01 
    1.3638232376211951E+01 
    1.1069918106211381E+01 
    6.2706724594584262E+00 
    1.3863851819281486E+01 
    1.9472207249630355E+01 
    1.9451655462338760E+01 
    1.3431737663084828E+01 
    1.3630384166498391E+01 
    2.1901834673381998E+01 
    2.1031129062016539E+01 
    1.3825764923663908E+01 
    4.2567418337894756E+00 
    1.7653480554612905E+01 
    2.3605979586904972E+01 
    1.3646201758920514E+01 
    1.6163151530409287E+01 
    1.3008179761819431E+01 
    2.3132476285600578E+01 
    2.1145966836379721E+01 
    2.0794556706799188E+01 
    1.3854088635055605E+01 
    5.8893286414322192E+00 
    1.2952361620809841E+01 
    1.3038696845331229E+01 
    1.3088716690391658E+01 
    4.6766309242954476E+00 