# vtk DataFile Version 2.0
Pressure Field Data 
ASCII 
DATASET UNSTRUCTURED_GRID 

POINTS 2860 double 

    0.0000000000000000E+00     0.0000000000000000E+00     0.0000000000000000E+00 
    1.0000000000000000E+00     0.0000000000000000E+00     0.0000000000000000E+00 
    1.0000000000000000E+00     1.0000000000000000E+00     0.0000000000000000E+00 
    0.0000000000000000E+00     1.0000000000000000E+00     0.0000000000000000E+00 
    2.5000000000000000E-01     2.5000000000000000E-01     0.0000000000000000E+00 
    7.5000000000000000E-01     2.5000000000000000E-01     0.0000000000000000E+00 
    7.5000000000000000E-01     7.5000000000000000E-01     0.0000000000000000E+00 
    2.5000000000000000E-01     7.5000000000000000E-01     0.0000000000000000E+00 
    3.1249999999942091E-02     0.0000000000000000E+00     0.0000000000000000E+00 
    6.2499999999873469E-02     0.0000000000000000E+00     0.0000000000000000E+00 
    9.3749999999826514E-02     0.0000000000000000E+00     0.0000000000000000E+00 
    1.2499999999977961E-01     0.0000000000000000E+00     0.0000000000000000E+00 
    1.5624999999968961E-01     0.0000000000000000E+00     0.0000000000000000E+00 
    1.8749999999959971E-01     0.0000000000000000E+00     0.0000000000000000E+00 
    2.1874999999950970E-01     0.0000000000000000E+00     0.0000000000000000E+00 
    2.4999999999941969E-01     0.0000000000000000E+00     0.0000000000000000E+00 
    2.8124999999932920E-01     0.0000000000000000E+00     0.0000000000000000E+00 
    3.1249999999923850E-01     0.0000000000000000E+00     0.0000000000000000E+00 
    3.4374999999914790E-01     0.0000000000000000E+00     0.0000000000000000E+00 
    3.7499999999905720E-01     0.0000000000000000E+00     0.0000000000000000E+00 
    4.0624999999896660E-01     0.0000000000000000E+00     0.0000000000000000E+00 
    4.3749999999887590E-01     0.0000000000000000E+00     0.0000000000000000E+00 
    4.6874999999878530E-01     0.0000000000000000E+00     0.0000000000000000E+00 
    4.9999999999869471E-01     0.0000000000000000E+00     0.0000000000000000E+00 
    5.3124999999877620E-01     0.0000000000000000E+00     0.0000000000000000E+00 
    5.6249999999885780E-01     0.0000000000000000E+00     0.0000000000000000E+00 
    5.9374999999893940E-01     0.0000000000000000E+00     0.0000000000000000E+00 
    6.2499999999902101E-01     0.0000000000000000E+00     0.0000000000000000E+00 
    6.5624999999910261E-01     0.0000000000000000E+00     0.0000000000000000E+00 
    6.8749999999918421E-01     0.0000000000000000E+00     0.0000000000000000E+00 
    7.1874999999926570E-01     0.0000000000000000E+00     0.0000000000000000E+00 
    7.4999999999934730E-01     0.0000000000000000E+00     0.0000000000000000E+00 
    7.8124999999942890E-01     0.0000000000000000E+00     0.0000000000000000E+00 
    8.1249999999951039E-01     0.0000000000000000E+00     0.0000000000000000E+00 
    8.4374999999959199E-01     0.0000000000000000E+00     0.0000000000000000E+00 
    8.7499999999967359E-01     0.0000000000000000E+00     0.0000000000000000E+00 
    9.0624999999975520E-01     0.0000000000000000E+00     0.0000000000000000E+00 
    9.3749999999983680E-01     0.0000000000000000E+00     0.0000000000000000E+00 
    9.6874999999991840E-01     0.0000000000000000E+00     0.0000000000000000E+00 
    1.0000000000000000E+00     3.1249999999942091E-02     0.0000000000000000E+00 
    1.0000000000000000E+00     6.2499999999873469E-02     0.0000000000000000E+00 
    1.0000000000000000E+00     9.3749999999826514E-02     0.0000000000000000E+00 
    1.0000000000000000E+00     1.2499999999977961E-01     0.0000000000000000E+00 
    1.0000000000000000E+00     1.5624999999968961E-01     0.0000000000000000E+00 
    1.0000000000000000E+00     1.8749999999959971E-01     0.0000000000000000E+00 
    1.0000000000000000E+00     2.1874999999950970E-01     0.0000000000000000E+00 
    1.0000000000000000E+00     2.4999999999941969E-01     0.0000000000000000E+00 
    1.0000000000000000E+00     2.8124999999932920E-01     0.0000000000000000E+00 
    1.0000000000000000E+00     3.1249999999923850E-01     0.0000000000000000E+00 
    1.0000000000000000E+00     3.4374999999914790E-01     0.0000000000000000E+00 
    1.0000000000000000E+00     3.7499999999905720E-01     0.0000000000000000E+00 
    1.0000000000000000E+00     4.0624999999896660E-01     0.0000000000000000E+00 
    1.0000000000000000E+00     4.3749999999887590E-01     0.0000000000000000E+00 
    1.0000000000000000E+00     4.6874999999878530E-01     0.0000000000000000E+00 
    1.0000000000000000E+00     4.9999999999869471E-01     0.0000000000000000E+00 
    1.0000000000000000E+00     5.3124999999877620E-01     0.0000000000000000E+00 
    1.0000000000000000E+00     5.6249999999885780E-01     0.0000000000000000E+00 
    1.0000000000000000E+00     5.9374999999893940E-01     0.0000000000000000E+00 
    1.0000000000000000E+00     6.2499999999902101E-01     0.0000000000000000E+00 
    1.0000000000000000E+00     6.5624999999910261E-01     0.0000000000000000E+00 
    1.0000000000000000E+00     6.8749999999918421E-01     0.0000000000000000E+00 
    1.0000000000000000E+00     7.1874999999926570E-01     0.0000000000000000E+00 
    1.0000000000000000E+00     7.4999999999934730E-01     0.0000000000000000E+00 
    1.0000000000000000E+00     7.8124999999942890E-01     0.0000000000000000E+00 
    1.0000000000000000E+00     8.1249999999951039E-01     0.0000000000000000E+00 
    1.0000000000000000E+00     8.4374999999959199E-01     0.0000000000000000E+00 
    1.0000000000000000E+00     8.7499999999967359E-01     0.0000000000000000E+00 
    1.0000000000000000E+00     9.0624999999975520E-01     0.0000000000000000E+00 
    1.0000000000000000E+00     9.3749999999983680E-01     0.0000000000000000E+00 
    1.0000000000000000E+00     9.6874999999991840E-01     0.0000000000000000E+00 
    9.6875000000003686E-01     1.0000000000000000E+00     0.0000000000000000E+00 
    9.3750000000011691E-01     1.0000000000000000E+00     0.0000000000000000E+00 
    9.0625000000015765E-01     1.0000000000000000E+00     0.0000000000000000E+00 
    8.7500000000017863E-01     1.0000000000000000E+00     0.0000000000000000E+00 
    8.4375000000028044E-01     1.0000000000000000E+00     0.0000000000000000E+00 
    8.1250000000040856E-01     1.0000000000000000E+00     0.0000000000000000E+00 
    7.8125000000054956E-01     1.0000000000000000E+00     0.0000000000000000E+00 
    7.5000000000066480E-01     1.0000000000000000E+00     0.0000000000000000E+00 
    7.1875000000086831E-01     1.0000000000000000E+00     0.0000000000000000E+00 
    6.8750000000102829E-01     1.0000000000000000E+00     0.0000000000000000E+00 
    6.5625000000114431E-01     1.0000000000000000E+00     0.0000000000000000E+00 
    6.2500000000129829E-01     1.0000000000000000E+00     0.0000000000000000E+00 
    5.9375000000147926E-01     1.0000000000000000E+00     0.0000000000000000E+00 
    5.6250000000168354E-01     1.0000000000000000E+00     0.0000000000000000E+00 
    5.3125000000188671E-01     1.0000000000000000E+00     0.0000000000000000E+00 
    5.0000000000205835E-01     1.0000000000000000E+00     0.0000000000000000E+00 
    4.6875000000192979E-01     1.0000000000000000E+00     0.0000000000000000E+00 
    4.3750000000180111E-01     1.0000000000000000E+00     0.0000000000000000E+00 
    4.0625000000167238E-01     1.0000000000000000E+00     0.0000000000000000E+00 
    3.7500000000154382E-01     1.0000000000000000E+00     0.0000000000000000E+00 
    3.4375000000141509E-01     1.0000000000000000E+00     0.0000000000000000E+00 
    3.1250000000128642E-01     1.0000000000000000E+00     0.0000000000000000E+00 
    2.8125000000115769E-01     1.0000000000000000E+00     0.0000000000000000E+00 
    2.5000000000102918E-01     1.0000000000000000E+00     0.0000000000000000E+00 
    2.1875000000090050E-01     1.0000000000000000E+00     0.0000000000000000E+00 
    1.8750000000077180E-01     1.0000000000000000E+00     0.0000000000000000E+00 
    1.5625000000064329E-01     1.0000000000000000E+00     0.0000000000000000E+00 
    1.2500000000051459E-01     1.0000000000000000E+00     0.0000000000000000E+00 
    9.3750000000385914E-02     1.0000000000000000E+00     0.0000000000000000E+00 
    6.2500000000257239E-02     1.0000000000000000E+00     0.0000000000000000E+00 
    3.1250000000128557E-02     1.0000000000000000E+00     0.0000000000000000E+00 
    0.0000000000000000E+00     9.6875000000003686E-01     0.0000000000000000E+00 
    0.0000000000000000E+00     9.3750000000011691E-01     0.0000000000000000E+00 
    0.0000000000000000E+00     9.0625000000015765E-01     0.0000000000000000E+00 
    0.0000000000000000E+00     8.7500000000017863E-01     0.0000000000000000E+00 
    0.0000000000000000E+00     8.4375000000028044E-01     0.0000000000000000E+00 
    0.0000000000000000E+00     8.1250000000040856E-01     0.0000000000000000E+00 
    0.0000000000000000E+00     7.8125000000054956E-01     0.0000000000000000E+00 
    0.0000000000000000E+00     7.5000000000066480E-01     0.0000000000000000E+00 
    0.0000000000000000E+00     7.1875000000086831E-01     0.0000000000000000E+00 
    0.0000000000000000E+00     6.8750000000102829E-01     0.0000000000000000E+00 
    0.0000000000000000E+00     6.5625000000114431E-01     0.0000000000000000E+00 
    0.0000000000000000E+00     6.2500000000129829E-01     0.0000000000000000E+00 
    0.0000000000000000E+00     5.9375000000147926E-01     0.0000000000000000E+00 
    0.0000000000000000E+00     5.6250000000168354E-01     0.0000000000000000E+00 
    0.0000000000000000E+00     5.3125000000188671E-01     0.0000000000000000E+00 
    0.0000000000000000E+00     5.0000000000205835E-01     0.0000000000000000E+00 
    0.0000000000000000E+00     4.6875000000192979E-01     0.0000000000000000E+00 
    0.0000000000000000E+00     4.3750000000180111E-01     0.0000000000000000E+00 
    0.0000000000000000E+00     4.0625000000167238E-01     0.0000000000000000E+00 
[...]
CELL_DATA 2795 
SCALARS Pressure double 1 
LOOKUP_TABLE default 

    7.7657587483241217E+00 
    1.9824169821155930E+01 
    1.3265544287983566E+01 
    1.2913368895617323E+01 
    9.8070442687595332E+00 
    1.9469017118213845E+01 
    2.0668868559077385E+01 
    6.8541408916050939E+00 
    1.3905620264271917E+01 
    1.0479421322030888E+01 
    8.8172225456138964E+00 
    1.9013737386032687E+01 
    1.9649109681098622E+01 
    1.9410987295090138E+01 
    1.2126105002309462E+01 
    6.7335606084442396E+00 
    1.1708920072714717E+01 
    9.4341724079455833E+00 
    1.8377226025823866E+01 
    1.3240969516646420E+01 
    1.3114864193848788E+01 
    1.9287063781603266E+01 
    1.2511895980580677E+01 
    4.4739340600939914E-01 
    1.9057830938018892E+01 
    1.9637428312156917E+01 
    2.0721776184516031E+01 
    8.4447899803537947E+00 
    1.8870025244230597E+01 
    2.0741987045402368E+01 
    1.3494721516824026E+01 
    1.3481960382975869E+01 
    9.1500048875643305E+00 
    1.3221611669785128E+01 
    4.0480171887892764E+00 
    1.1718138176262306E+01 
    1.3202898043266522E+01 
    2.0800754498745516E+01 
    2.0636587321882669E+01 
    1.9035967479212459E+01 
    9.7331140194180996E+00 
    1.9154880576029928E+01 
    9.2892244164744175E-01 
    1.3228214950673456E+01 
    2.0436875762603872E+01 
    1.9978824220379259E+01 
    1.8995539946253299E+01 
    1.4384599730235369E+01 
    1.9031413650366432E+01 
    1.2003745333909132E+01 
    1.1361240363398492E+01 
    1.3439713705514391E+01 
    1.3107835686810759E+01 
    1.1776921669525839E+01 
    1.3586833912858660E+01 
    1.8025656507847980E+01 
    1.5755722203793480E+01 
    9.8729232640892484E+00 
    1.9307150416158837E+01 
    1.9146099951131301E+01 
    1.2841826746920868E+01 
    1.2719639632803164E+01 
    1.2776168805185813E+01 
    2.0594702663609503E+01 
    2.1015995981560689E+01 
    1.1720741710905857E+01 
    1.3437860400918746E+01 
    1.8664817981406557E+01 
    1.5550936705267219E+01 
    1.2771466760924842E+01 
    2.0953296326415675E+01 
    1.9335387687020791E+01 
    1.1536312717584789E+01 
    2.0124193433667532E+01 
    1.3908323745834979E+01 
    1.8861499495032188E+01 
    2.0827118597651914E+01 
    1.3958542943166965E+01 
    7.9520708839290011E+00 
    1.3459743695970744E+01 
    2.0646231413230527E+01 
    2.1028663191337671E+01 
    1.1750951118856717E+01 
    1.3372307563563037E+01 
    2.1089002307306544E+01 
    1.3200152227351110E+01 
    1.2645872402799021E+01 
    1.6176055707734712E+01 
    7.5443636196330246E+00 
    1.1398497980782070E+01 
    1.3368788068464012E+01 
    1.4086861910893262E+01 
    2.3031526818685215E+01 
    9.4865451285118318E+00 
    1.3447315319727464E+01 
    1.8964132979882699E+01 
    1.9545758871990699E+01 
    8.1739129909156940E+00 
    1.3022750922155579E+01 
    1.3408651718105965E+01 
    1.9595800467393921E+01 
    1.3397322787832403E+01 
    1.9452835769671569E+01 
    4.8477293944552908E+00 
    8.5612224704562774E+00 
    1.3709922595477815E+01 
    1.9839350806589682E+01 
    1.1666929464591854E+01 
    1.2501128660252169E+01 
    1.3370965017184625E+01 
    1.2600974351936298E+01 
    1.5265967598167109E+01 
    1.2112103647215136E+01 
    1.1549489286941988E+01 
    8.7148997904579399E+00 
    1.6259795874734284E+01 
    1.3487486385903649E+01 
    2.0472751478213969E+01 
    1.1457567939894496E+01 
    1.2882757322772608E+01 
    1.9350871989570379E+01 
    1.0392004713858087E+01 
    2.0079795986474714E+01 
    1.3287592441022690E+01 
    1.2788668532207639E+01 
    1.9557769723498225E+01 
    1.3474604713471749E+01 
    2.0823567224436331E+01 
    1.6210266236210206E+01 
    1.7750312883972317E+01 
    2.0747708057700116E+01 
    9.5039963276264015E+00 
    1.3733899921359736E+01 
    1.9597551533874334E+01 
    3.6052762703515917E+00 
    1.3557778015155092E+01 
    2.0694945262470185E+01 
    1.2822731807594748E+01 
    1.4949463151518740E+01 
    8.1574867389478030E+00 
    1.8987902203248861E+01 
    2.3635387942783055E+01 
    1.6927932338895857E+01 
    1.2828396969584928E+01 
    1.1241708002248650E+01 
    1.4465518523428598E+01 
    1.3307985539216537E+01 
    8.9088131028381614E+00 
    2.0752484698165482E+01 
    1.9520566072210208E+01 
    1.8968765037285280E+01 
    1.4087635665071437E+01 
    1.1494343702409068E+01 
    1.3109118000052682E+01 
    2.0154201198555381E+01 
    1.1883812112251858E+01 
    1.3440834559668593E+01 
    1.2141168918084489E+01 
    1.5963157546623069E+01 
    2.3621041503477755E+01 
    1.8946204676674956E+01 
    1.1356806477643493E+01 
    1.9890736529190885E+01 
    1.9775502077121367E+01 
    1.9898659364973454E+01 
    2.1385207611735652E+01 
    2.2119219527298746E+01 
    1.9932816545755621E+01 
    1.3427896382913310E+01 
    1.4656750406815881E+01 
    1.9644927104819722E+01 
    2.0448505483219510E+01 
    9.3191291345855998E+00 
    1.8988987653339571E+01 
    2.0078248447488171E+01 
    9.0646480028162628E+00 
    2.1292300204688509E+01 
    2.1238211894439321E+01 
    1.8485092042393461E+01 
    1.3820797479066689E+01 
    3.3558080736611595E+00 
    2.0705289691501932E+01 
    1.3635067523916202E+01 
    2.0924317525587160E+01 
    1.2719275759456066E+01 
    2.0360896882598084E+01 
    1.1646405233643822E+00 
    1.7742726355196272E+01 
    1.2779041179482496E+01 
    1.1428434090854095E+01 
    1.1074997682365877E+01 
    1.3248469062851221E+01 
    1.4741229964710348E+01 
    1.4075650966565721E+01 
    8.8611015361142762E+00 
    2.0462864737113637E+01 
    1.9644095923657687E+01 
    1.5715925574881165E+01 
    1.3698768674122082E+01 
    1.8120678360932976E+00 
    1.0032162453630553E+01 
    6.6916467312871832E+00 
    2.0761850541976361E+01 
    1.5114170236983044E+01 
    1.9510116735594789E+01 
    1.9745788270095865E+01 
    1.1998215938543705E+01 
    1.5857778383512683E+01 
    1.8941414345424363E+01 
    2.1217577112602498E+01 
    8.1144332671587875E+00 
    1.7051697770697103E+01 
    1.3992192912792133E+01 
    7.1420087653824487E+00 
    1.1996868160120604E+01 
    1.6663326140335212E+01 
    1.9686581211429917E+01 
    1.3309999223628925E+01 
    1.9863076420557704E+01 
    1.9485257974192976E+01 
    1.9409143076053176E+01 
    1.3114183143066787E+01 
    1.1286280930079057E+01 
    1.8985372130055374E+01 
    1.1531280335339037E+01 
    1.3407366842323821E+01 
    1.1254414338892213E+01 
    1.3392447917825509E+01 
    1.9759754740829774E+01 
    8.0560156890451982E+00 
    1.1857145428967351E+01 
    2.0616837901417604E+01 
    1.3124623071003134E+01 
    1.4970069870266041E+01 
    8.2641491025106824E+00 
    1.1629117292917574E+01 
    1.9448163310821961E+01 
    1.9949907511024300E+01 
    6.7399748865593470E+00 
    1.3140767401537776E+01 
    1.1314739290262390E+01 
    2.1809907053992625E+01 
    2.1044799928499806E+01 
    2.2163075205128496E+01 
    1.3165578500764317E+01 
    1.9717955712974014E+01 
    1.8849386048488501E+01 
    1.2983357938957274E+01 
    1.8964474203346086E+01 
    1.3699162145844092E+01 
    7.2592437082234786E+00 
    1.3624689651876125E+01 
    2.0617064882104565E+01 
    1.8957557155620442E+01 
    8.7601198098928492E+00 
    1.9004711113134512E+01 
    1.4778821678093646E+01 
    1.3528124623031802E+01 
    1.2920152095412496E+01 
    1.8716910420415701E+01 
    1.4242260675469591E+01 
    1.8989927586664376E+01 
    1.3146309789075730E+01 
    7.5530491581945123E+00 
    1.3498656091247186E+01 
    1.1096492676625790E+01 
    1.6961645297639965E+01 
    2.0890522324653762E+01 
    1.8990107314907327E+01 
    2.0684692082567064E+01 
    1.3051633504387389E+01 
    8.5331767200260007E+00 
    8.6612236096833115E+00 
    1.3785747813111335E+01 
    1.3373678324599737E+01 
    1.8341185534484130E+00 
    1.8072960235195357E+01 
    2.1445117813826428E+01 
    1.2746619343842855E+01 
    7.5729423678462195E+00 
    1.5686261054339793E+01 
    1.8994888078326053E+01 
    9.1427555196910202E+00 
    6.0121227066102572E+00 
    1.3354980460672930E+01 
    1.9155674087625279E+01 
    2.0342021449673652E+01 
    1.9959497377009875E+01 
    1.9955666809958249E+01 
    8.9228536120687192E+00 
    1.3523352946039862E+01 
    1.8444088980435691E+01 
    1.0273039376175117E+01 
    1.9625169362324918E+01 
    1.6184594124061221E+01 
    8.7917710650171887E+00 
    1.9114942193427677E+01 
    2.0784993781523827E+01 
    1.9268460848583562E+01 
    8.7716934852978508E+00 
    1.3433154458601935E+01 
    9.7726447062950434E+00 
    1.2631307137910481E+01 
    1.8986956317600271E+01 
    1.8969615664174498E+01 
    8.8174826175368199E+00 
    2.0419738266120948E+01 
    1.4149771569108564E+01 
    1.9063279120366211E+01 
    2.0519668049425913E+01 
    1.9024237698914892E+01 
    1.7294066274389760E+01 
    2.1900259914298942E+01 
    1.2658496251108270E+01 
    2.0636448918397278E+01 
    1.9082451266609159E+01 
    2.0754662088817955E+01 
    2.0402452258573504E+01 
    1.2809364197274594E+01 
    1.3251657180529381E+01 
    1.2735698771250897E+01 
    1.6503749071457385E+01 
    4.8694442603932400E+00 
    1.3697347153457669E+01 
    2.2060987597216588E+01 
    1.3705903720344432E+01 
    1.3971557900615895E+01 
    2.0711276837320870E+01 
    2.1044195185572619E+01 
    1.2497243137811358E+01 
    1.9009988937696860E+01 
    1.8972746603019431E+01 
    1.3953617011047314E+01 
    2.0320813683506366E+01 
    9.2650794434918282E+00 
    5.8631166759542115E+00 
    1.4357847060202969E+01 
    1.3722175484511771E+01 
    1.8957371352972473E+01 
    8.1519494396333272E+00 
    1.9841354850071905E+01 
    5.9756857217810575E+00 
    1.3643146922837319E+01 
    1.2800937000269583E+01 
    1.3405422237776197E+01 
    2.3679305964764048E+01 
    4.7258150295786878E+00 
    1.3581546712770228E+01 
    1.6620050652579305E+01 
    1.2911134908269837E+01 
    9.8831987162282111E+00 
    2.0130200158323944E+01 
    2.3138937587817470E+01 
    2.0341692267931368E+01 
    1.3494460169064572E+01 
    7.0902018549846604E+00 
    2.2961796210452750E+01 
    1.9616975232497158E+01 
    9.3886358213399728E+00 
    1.3032495859373991E+01 
    2.1359218183761225E+01 
    4.0048908303244053E+00 
    1.3796024783994552E+01 
    2.0425295993078198E+01 
    1.3423750399235610E+01 
    1.1576134995597897E+01 
    1.3637366009865772E+01 
    1.8537325272294442E+01 
    1.3402569711650690E+01 
    6.2681015298084510E+00 
    1.1515344262577338E+00 
    9.7661568753487629E+00 
    2.1690252794096669E+01 
    1.2735640771330599E+01 
    1.5376684433403256E+01 
    1.4672337839512752E+01 
    1.7062585425709031E+01 
    1.3439847825158878E+01 
    1.9464816350333468E+01 
    2.3695901944292409E+01 
    1.6056712370048537E+01 
    2.0592230915496948E+01 
    6.6994040776396491E-01 
    1.8969866423528511E+01 
    7.0312151351621699E+00 
    2.2277113118277853E+01 
    1.3600675193359585E+01 
    1.1819281049572814E+01 
    1.0005473922100999E+01 
    6.6012603820917191E+00 
    1.5022478827191081E+01 
    1.0398592150922832E+01 
    1.6798974188268250E+01 
    2.8149083653619069E+00 
    1.4832414711051054E+01 
    1.8834438703916568E+01 
    7.8467919662936643E+00 
    1.9715306733436776E+01 
    2.1963418406228570E+01 
    1.9528591604225291E+01 
    1.3404386428201100E+01 
    1.3398102227197310E+01 
    1.3590498893938745E+01 
    7.1711372398965318E+00 
    1.2312665876895974E+01 
    1.2067526952345485E+01 
    1.3575013157458596E+01 
    1.2629219645991991E+01 
    8.5964991185939299E-01 
    8.1340515868815366E+00 
    1.3178621388236614E+01 
    1.3538575288799834E+01 
    1.7341652351452073E+01 
    2.6169634246062774E+00 
    1.3896055323087221E+01 
    1.3732175475320171E+01 
    4.5399684292290594E+00 
    1.9295046009175067E+01 
    1.1547720954923911E+01 
    1.3559170071100819E+01 
    1.9598009044065787E+01 
    6.6204330606547268E+00 
    1.9453253319093033E+01 
    1.1739443478124972E+01 
    1.1788185866482361E+00 
    1.2822971626627112E+01 
    2.0500496182491901E+01 
    1.8979048465322059E+01 
    1.9016471618091632E+01 
    1.4072368877800942E+01 
    1.3646599584707634E+01 
    1.1531015017479286E+01 
    8.9103442832880333E+00 
    1.9774552776380784E+01 
    1.3023796180812358E+01 
    8.6641541892237246E+00 
    1.9003441716920662E+01 
    2.0159759936829072E+01 
    1.3818394310775652E+01 
    1.3184745436982460E+01 
    2.3549503788028364E+01 
    1.3954999516051858E+01 
    1.9823401533913405E+01 
    1.0844121869124793E+01 
    2.3726348650175723E+01 
    8.6105464517044474E+00 
    1.2112614623101674E+01 
    9.7031165993626409E+00 
    1.4287368181722073E+01 
    1.1270314147511726E+01 
    2.3707735304867253E+01 
    1.4023961201725335E+01 
    1.8511598337156130E+01 
    8.8590262717876822E+00 
    1.3433510146497053E+01 
    1.9567529596116636E+01 
    1.1310138709457176E+01 
    9.3152504961276943E+00 
    1.5331868737578596E+01 
    1.9791991716665734E+01 
    9.5605928570352798E+00 
    1.2834434779805113E+01 
    1.3231861289905199E+01 
    1.8932203148853677E+01 
    1.2949191949214619E+01 
    1.9896838802105609E+01 
    2.0799578811154419E+01 
    1.1569701818413838E+01 
    1.1297864344091529E+01 
    1.0441450287572557E+01 
    1.9168592556594206E+01 
    1.3754049133965147E+01 
    2.3186410546904373E+01 
    1.7533107654618107E+01 
    1.9493177647130281E+01 
    2.2801105778908958E+01 
    2.1969830695849076E+01 
    1.3489392077573703E+01 
    1.3553145245169684E+01 
    1.8504232161597422E+01 
    1.9035524662308347E+01 
    2.0064536926446547E+01 
    1.9646668849916292E+01 
    2.3580374847415751E+01 
    1.3954304913581819E+01 
    1.1736655721130489E+01 
    1.3916149640233117E+01 
    2.0659257965522830E+01 
    1.3603626329499411E+01 
    7.6403709964057667E+00 
    1.3380922794739128E+01 
    2.1322273267332946E+01 
    1.3782035682954245E+01 
    1.1744464833500363E+01 
    1.3158880351598084E+01 
    2.1476005208467683E+01 
    1.9262898604214353E+01 
    1.1010073309206405E+01 
    2.1661263166350558E+01 
    1.3523577278490182E+01 
    2.0055663938363555E+01 
    2.1488476152480615E+01 
    1.4398749226532670E+01 
    6.6404005336577532E+00 
    1.5026439358850135E+01 
    6.8767882966063176E+00 
    1.3663736864541537E+01 
    1.3428827453836263E+01 
    1.5922796459130014E+01 
    7.2943655473887086E+00 
    1.7066262382966890E+01 
    1.3448718219848997E+01 
    1.9632516538075809E+01 
    1.4635407824906297E+01 
    1.0658282222426326E+01 
    1.2971816911732871E+01 
    1.4288168060659325E+01 
    1.4103002249662509E+01 
    2.0922826471594011E+01 
    1.1099539070662592E+01 
    1.0865105415077025E+01 
    7.7078918853901195E+00 
    2.0123586926390328E+01 
    1.3036629922817637E+01 
    1.8889615638599377E+01 
    1.3391825033670692E+01 
    8.5279819513758888E+00 
    1.9277737606342626E+01 
    1.3364008831079918E+01 
    9.4324694180118822E+00 
    1.0114990272139043E+01 
    1.0556756722705439E+01 
    1.9679091977757068E+01 
    1.3577849253549491E+01 
    2.0605764930919129E+01 
    1.3316770606728380E+01 
    1.3243574217702960E+01 
    1.2718184062514370E+01 
    1.9415600315985341E+01 
    1.3138861292853923E+01 
    1.0613381275193509E+01 
    2.1960227689761584E+01 
    1.9540284853115004E+01 
    9.0345833304981031E+00 
    3.3043601104173947E+00 
    1.3563290248960719E+01 
    1.2564083821870794E+01 
    1.1280575716208542E+01 
    1.2423563335919136E+01 
    1.9325113539177291E+01 
    1.3138484510331217E+01 
    1.1792917549661388E+01 
    1.9076488837497436E+01 
    8.9527131543969549E+00 
    1.8449862343035186E+01 
    1.2093709562211405E+01 
    1.0496435903203926E+01 
    1.1416964812417783E+01 
    2.0184544214222658E+01 
    1.3408458770951485E+01 
    1.3418614921636655E+01 
    7.3954318282039475E+00 
    8.0645026193804359E+00 
    1.7423067002307945E+01 
    1.3430474561506376E+01 
    1.3619290967763487E+01 
    2.1650023051893911E+01 
    1.0871000380133886E+01 
    1.3445214952207591E+01 
    9.2878012941303663E+00 
    9.6095588135183529E+00 
    1.9353072833007978E+01 
    1.2983803280148990E+01 
    9.0253643451696899E+00 
    1.4090288058541878E+01 
    1.3316005104736739E+01 
    1.9378111385142081E+01 
    2.1775144872892199E+01 
    1.2469010830348777E+00 
    1.3570229232360372E+01 
    1.3720697986008046E+01 
    1.9514598938640134E+01 
    1.2922166264350851E+01 
    1.3375218770566132E+01 
    2.1006011571239046E+01 
    1.1467192845909199E+01 
    9.1208772863485645E+00 
    1.6346143461399745E+01 
    1.8998916754253301E+01 
    2.0745859287040421E+01 
    2.1175090614948580E+01 
    1.3345806941384573E+01 
    1.3557728358719555E+01 
    1.5093450998987148E+01 
    8.5565351852011222E+00 
    1.9228285346259891E+01 
    9.9602816111549295E+00 
    8.9351539811658647E+00 
    1.7054654728445389E+01 
    1.5914803482648518E+01 
    8.7511834689733856E+00 
    1.9058456522426418E+01 
    2.0726394917867921E+01 
    1.3976962032102758E+01 
    2.1914911748083682E+01 
    1.9114826677997495E+01 
    1.2989062076507976E+01 
    2.0216637074444023E+01 
    9.6089763792041261E+00 
    1.9022395806430339E+01 
    1.3568533207674253E+01 
    1.3516431100741334E+01 
    2.1890953145869396E+01 
    1.3090509804121346E+01 
    1.6643047397576730E+01 
    1.1390735984843213E+01 
    2.0913506888863772E+01 
    1.8852656980902342E+01 
    1.1952234567990804E+01 
    1.8979514939365945E+01 
    1.2101380175879706E+01 
    1.3383881426220388E+01 
    2.0662741230556293E+01 
    1.9619663210808092E+01 
    2.0730538543848333E+01 
    1.9516953369229945E+01 
    1.2333659038930282E+01 
    1.2628396843205696E+01 
    2.0743724422032404E+01 
    1.2816119695018937E+01 
    1.8689130867917100E+01 
    1.3068399164126076E+01 
    4.9242466423138209E+00 
    9.0377587669700272E+00 
    8.3512796300039707E+00 
    2.0668526894469377E+01 
    2.1788058422490899E+01 
    1.8997611290854387E+01 
    1.5574041012803120E+01 
    1.9468719912772595E+01 
    1.9071690410890639E+01 
    2.0089247227108640E+01 
    7.1239425025789425E+00 
    4.5736222835010505E+00 
    1.5255363169226809E+01 
    1.3133971647850844E+01 
    1.9343252096417928E+01 
    1.9338801658228224E+01 
    1.3744632438454618E+01 
    1.9403989353749282E+01 
    1.3549575638688225E+01 
    1.3440811610504062E+01 
    6.4041557394569359E+00 
    4.5448807470630337E+00 
    2.1468134160951301E+01 
    1.0267562687457689E+01 
    1.1883216791399292E+01 
    1.3618300377471941E+01 
    2.3554960557306821E+01 
    1.3733037153582719E+01 
    1.3977335671245838E+01 
    5.2544393585526787E+00 
    1.3732836998007466E+01 
    1.3750672372752168E+01 
    1.9762127012888620E+01 
    1.1423150875539903E+01 
    1.2827057807572388E+01 
    2.1705599509827621E+01 
    1.3581972018146510E+01 
    1.9019373964203854E+01 
    1.9389125606663967E+01 
    1.6737151055069447E+01 
    1.1262699636422187E+01 
    1.9512430312816576E+01 
    1.3306970353580665E+01 
    1.9298498345223734E+01 
    1.8905899954072023E+01 
    2.0699115620240981E+01 
    1.9523067902804971E+01 
    1.7778858234513901E+01 
    1.3565735231792980E+01 
    8.6878717348587102E+00 
    2.3402324425888217E+01 
    1.0215302866857799E+01 
    2.0622500998780961E+01 
    1.3562175257654086E+01 
    1.0943510577733392E+01 
    6.2603819381717640E+00 
    1.3797263362760518E+01 
    1.9496076135203243E+01 
    1.9474591488890820E+01 
    1.3359767344048286E+01 
    1.3554194884641602E+01 
    2.1976758474732534E+01 
    2.1091033974974447E+01 
    1.3758621458246663E+01 
    4.2584033365328331E+00 
    1.7643063205090712E+01 
    2.3701979301542107E+01 
    1.3570279741631779E+01 
    1.6130826167684379E+01 
    1.2922286900343794E+01 
    2.3223745504025118E+01 
    2.1207968852927607E+01 
    2.0848280360150309E+01 
    1.3787363752542161E+01 
    5.8772748255601277E+00 
    1.2865514753732745E+01 
    1.2953252449360759E+01 
    1.3003888720138205E+01 
    4.6767588149590500E+00 