# vtk DataFile Version 2.0
Pressure Field Data 
ASCII 
DATASET UNSTRUCTURED_GRID 

POINTS 2860 double 

    0.0000000000000000E+00     0.0000000000000000E+00     0.0000000000000000E+00 
    1.0000000000000000E+00     0.0000000000000000E+00     0.0000000000000000E+00 
    1.0000000000000000E+00     1.0000000000000000E+00     0.0000000000000000E+00 
    0.0000000000000000E+00     1.0000000000000000E+00     0.0000000000000000E+00 
    2.5000000000000000E-01     2.5000000000000000E-01     0.0000000000000000E+00 
    7.5000000000000000E-01     2.5000000000000000E-01     0.0000000000000000E+00 
    7.5000000000000000E-01     7.5000000000000000E-01     0.0000000000000000E+00 
    2.5000000000000000E-01     7.5000000000000000E-01     0.0000000000000000E+00 
    3.1249999999942091E-02     0.0000000000000000E+00     0.0000000000000000E+00 
    6.2499999999873469E-02     0.0000000000000000E+00     0.0000000000000000E+00 
    9.3749999999826514E-02     0.0000000000000000E+00     0.0000000000000000E+00 
    1.2499999999977961E-01     0.0000000000000000E+00     0.0000000000000000E+00 
    1.5624999999968961E-01     0.0000000000000000E+00     0.0000000000000000E+00 
    1.8749999999959971E-01     0.0000000000000000E+00     0.0000000000000000E+00 
    2.1874999999950970E-01     0.0000000000000000E+00     0.0000000000000000E+00 
    2.4999999999941969E-01     0.0000000000000000E+00     0.0000000000000000E+00 
    2.8124999999932920E-01     0.0000000000000000E+00     0.0000000000000000E+00 
    3.1249999999923850E-01     0.0000000000000000E+00     0.0000000000000000E+00 
    3.4374999999914790E-01     0.0000000000000000E+00     0.0000000000000000E+00 
    3.7499999999905720E-01     0.0000000000000000E+00     0.0000000000000000E+00 
    4.0624999999896660E-01     0.0000000000000000E+00     0.0000000000000000E+00 
    4.3749999999887590E-01     0.0000000000000000E+00     0.0000000000000000E+00 
    4.6874999999878530E-01     0.0000000000000000E+00     0.0000000000000000E+00 
    4.9999999999869471E-01     0.0000000000000000E+00     0.0000000000000000E+00 
    5.3124999999877620E-01     0.0000000000000000E+00     0.0000000000000000E+00 
    5.6249999999885780E-01     0.0000000000000000E+00     0.0000000000000000E+00 
    5.9374999999893940E-01     0.0000000000000000E+00     0.0000000000000000E+00 
    6.2499999999902101E-01     0.0000000000000000E+00     0.0000000000000000E+00 
    6.5624999999910261E-01     0.0000000000000000E+00     0.0000000000000000E+00 
    6.8749999999918421E-01     0.0000000000000000E+00     0.0000000000000000E+00 
    7.1874999999926570E-01     0.0000000000000000E+00     0.0000000000000000E+00 
    7.4999999999934730E-01     0.0000000000000000E+00     0.0000000000000000E+00 
    7.8124999999942890E-01     0.0000000000000000E+00     0.0000000000000000E+00 
    8.1249999999951039E-01     0.0000000000000000E+00     0.0000000000000000E+00 
    8.4374999999959199E-01     0.0000000000000000E+00     0.0000000000000000E+00 
    8.7499999999967359E-01     0.0000000000000000E+00     0.0000000000000000E+00 
    9.0624999999975520E-01     0.0000000000000000E+00     0.0000000000000000E+00 
    9.3749999999983680E-01     0.0000000000000000E+00     0.0000000000000000E+00 
    9.6874999999991840E-01     0.0000000000000000E+00     0.0000000000000000E+00 
    1.0000000000000000E+00     3.1249999999942091E-02     0.0000000000000000E+00 
    1.0000000000000000E+00     6.2499999999873469E-02     0.0000000000000000E+00 
    1.0000000000000000E+00     9.3749999999826514E-02     0.0000000000000000E+00 
    1.0000000000000000E+00     1.2499999999977961E-01     0.0000000000000000E+00 
    1.0000000000000000E+00     1.5624999999968961E-01     0.0000000000000000E+00 
    1.0000000000000000E+00     1.8749999999959971E-01     0.0000000000000000E+00 
    1.0000000000000000E+00     2.1874999999950970E-01     0.0000000000000000E+00 
    1.0000000000000000E+00     2.4999999999941969E-01     0.0000000000000000E+00 
    1.0000000000000000E+00     2.8124999999932920E-01     0.0000000000000000E+00 
    1.0000000000000000E+00     3.1249999999923850E-01     0.0000000000000000E+00 
    1.0000000000000000E+00     3.4374999999914790E-01     0.0000000000000000E+00 
    1.0000000000000000E+00     3.7499999999905720E-01     0.0000000000000000E+00 
    1.0000000000000000E+00     4.0624999999896660E-01     0.0000000000000000E+00 
    1.0000000000000000E+00     4.3749999999887590E-01     0.0000000000000000E+00 
    1.0000000000000000E+00     4.6874999999878530E-01     0.0000000000000000E+00 
    1.0000000000000000E+00     4.9999999999869471E-01     0.0000000000000000E+00 
    1.0000000000000000E+00     5.3124999999877620E-01     0.0000000000000000E+00 
    1.0000000000000000E+00     5.6249999999885780E-01     0.0000000000000000E+00 
    1.0000000000000000E+00     5.9374999999893940E-01     0.0000000000000000E+00 
    1.0000000000000000E+00     6.2499999999902101E-01     0.0000000000000000E+00 
    1.0000000000000000E+00     6.5624999999910261E-01     0.0000000000000000E+00 
    1.0000000000000000E+00     6.8749999999918421E-01     0.0000000000000000E+00 
    1.0000000000000000E+00     7.1874999999926570E-01     0.0000000000000000E+00 
    1.0000000000000000E+00     7.4999999999934730E-01     0.0000000000000000E+00 
    1.0000000000000000E+00     7.8124999999942890E-01     0.0000000000000000E+00 
    1.0000000000000000E+00     8.1249999999951039E-01     0.0000000000000000E+00 
    1.0000000000000000E+00     8.4374999999959199E-01     0.0000000000000000E+00 
    1.0000000000000000E+00     8.7499999999967359E-01     0.0000000000000000E+00 
    1.0000000000000000E+00     9.0624999999975520E-01     0.0000000000000000E+00 
    1.0000000000000000E+00     9.3749999999983680E-01     0.0000000000000000E+00 
    1.0000000000000000E+00     9.6874999999991840E-01     0.0000000000000000E+00 
    9.6875000000003686E-01     1.0000000000000000E+00     0.0000000000000000E+00 
    9.3750000000011691E-01     1.0000000000000000E+00     0.0000000000000000E+00 
    9.0625000000015765E-01     1.0000000000000000E+00     0.0000000000000000E+00 
    8.7500000000017863E-01     1.0000000000000000E+00     0.0000000000000000E+00 
    8.4375000000028044E-01     1.0000000000000000E+00     0.0000000000000000E+00 
    8.1250000000040856E-01     1.0000000000000000E+00     0.0000000000000000E+00 
    7.8125000000054956E-01     1.0000000000000000E+00     0.0000000000000000E+00 
    7.5000000000066480E-01     1.0000000000000000E+00     0.0000000000000000E+00 
    7.1875000000086831E-01     1.0000000000000000E+00     0.0000000000000000E+00 
    6.8750000000102829E-01     1.0000000000000000E+00     0.0000000000000000E+00 
    6.5625000000114431E-01     1.0000000000000000E+00     0.0000000000000000E+00 
    6.2500000000129829E-01     1.0000000000000000E+00     0.0000000000000000E+00 
    5.9375000000147926E-01     1.0000000000000000E+00     0.0000000000000000E+00 
    5.6250000000168354E-01     1.0000000000000000E+00     0.0000000000000000E+00 
    5.3125000000188671E-01     1.0000000000000000E+00     0.0000000000000000E+00 
    5.0000000000205835E-01     1.0000000000000000E+00     0.0000000000000000E+00 
    4.6875000000192979E-01     1.0000000000000000E+00     0.0000000000000000E+00 
    4.3750000000180111E-01     1.0000000000000000E+00     0.0000000000000000E+00 
    4.0625000000167238E-01     1.0000000000000000E+00     0.0000000000000000E+00 
    3.7500000000154382E-01     1.0000000000000000E+00     0.0000000000000000E+00 
    3.4375000000141509E-01     1.0000000000000000E+00     0.0000000000000000E+00 
    3.1250000000128642E-01     1.0000000000000000E+00     0.0000000000000000E+00 
    2.8125000000115769E-01     1.0000000000000000E+00     0.0000000000000000E+00 
    2.5000000000102918E-01     1.0000000000000000E+00     0.0000000000000000E+00 
    2.1875000000090050E-01     1.0000000000000000E+00     0.0000000000000000E+00 
    1.8750000000077180E-01     1.0000000000000000E+00     0.0000000000000000E+00 
    1.5625000000064329E-01     1.0000000000000000E+00     0.0000000000000000E+00 
    1.2500000000051459E-01     1.0000000000000000E+00     0.0000000000000000E+00 
    9.3750000000385914E-02     1.0000000000000000E+00     0.0000000000000000E+00 
    6.2500000000257239E-02     1.0000000000000000E+00     0.0000000000000000E+00 
    3.1250000000128557E-02     1.0000000000000000E+00     0.0000000000000000E+00 
    0.0000000000000000E+00     9.6875000000003686E-01     0.0000000000000000E+00 
    0.0000000000000000E+00     9.3750000000011691E-01     0.0000000000000000E+00 
    0.0000000000000000E+00     9.0625000000015765E-01     0.0000000000000000E+00 
    0.0000000000000000E+00     8.7500000000017863E-01     0.0000000000000000E+00 
    0.0000000000000000E+00     8.4375000000028044E-01     0.0000000000000000E+00 
    0.0000000000000000E+00     8.1250000000040856E-01     0.0000000000000000E+00 
    0.0000000000000000E+00     7.8125000000054956E-01     0.0000000000000000E+00 
    0.0000000000000000E+00     7.5000000000066480E-01     0.0000000000000000E+00 
    0.0000000000000000E+00     7.1875000000086831E-01     0.0000000000000000E+00 
    0.0000000000000000E+00     6.8750000000102829E-01     0.0000000000000000E+00 
    0.0000000000000000E+00     6.5625000000114431E-01     0.0000000000000000E+00 
    0.0000000000000000E+00     6.2500000000129829E-01     0.0000000000000000E+00 
    0.0000000000000000E+00     5.9375000000147926E-01     0.0000000000000000E+00 
    0.0000000000000000E+00     5.6250000000168354E-01     0.0000000000000000E+00 
    0.0000000000000000E+00     5.3125000000188671E-01     0.0000000000000000E+00 
    0.0000000000000000E+00     5.0000000000205835E-01     0.0000000000000000E+00 
    0.0000000000000000E+00     4.6875000000192979E-01     0.0000000000000000E+00 
    0.0000000000000000E+00     4.3750000000180111E-01     0.0000000000000000E+00 
    0.0000000000000000E+00     4.0625000000167238E-01     0.0000000000000000E+00 
[...]
CELL_DATA 2795 
SCALARS Pressure double 1 
LOOKUP_TABLE default 

    5.8391236013785814E+00 
    1.3421914466285084E+01 
    9.4751502088320354E+00 
    9.0775688959813170E+00 
    7.1964570635307679E+00 
    1.3302374957340522E+01 
    1.3987514554393591E+01 
    5.2098006097116105E+00 
    1.0025242580069969E+01 
    7.6569405751072415E+00 
    6.5221653914901276E+00 
    1.3062073894305005E+01 
    1.3331875522791304E+01 
    1.3273268813136937E+01 
    8.7424140183359977E+00 
    5.1222861098085621E+00 
    8.3421115018324912E+00 
    6.9496993801846720E+00 
    1.2723042133939057E+01 
    9.4657803698734000E+00 
    9.3598964111301655E+00 
    1.3212401656386849E+01 
    8.8250757363442105E+00 
    3.4244658463760508E-01 
    1.3053598220022744E+01 
    1.3305876150122824E+01 
    1.4017391079192048E+01 
    6.2688291152022293E+00 
    1.2987503781496763E+01 
    1.4013754031228018E+01 
    9.5155941674106987E+00 
    9.6918637601031232E+00 
    6.7755331008707778E+00 
    9.4371005994047845E+00 
    3.0212283841266281E+00 
    8.3472080167572731E+00 
    9.4270299693885313E+00 
    1.4051981773090464E+01 
    1.3965988712819616E+01 
    1.3074180431729106E+01 
    7.1288836208019832E+00 
    1.3028457390879829E+01 
    7.1314950366323027E-01 
    9.3138824683852945E+00 
    1.3790416614839565E+01 
    1.3630975483148807E+01 
    1.3052024136197083E+01 
    1.0354246576795795E+01 
    1.3120466729801082E+01 
    8.5378923174198533E+00 
    8.1268230274463917E+00 
    9.6585437180587839E+00 
    9.2055167884036866E+00 
    8.3910607536928037E+00 
    9.5838489347806899E+00 
    1.2526835074466261E+01 
    1.1300716402726739E+01 
    7.2358249813247335E+00 
    1.3216059114966564E+01 
    1.3144022121364026E+01 
    9.0789682789902670E+00 
    9.1103322254226757E+00 
    8.9849471383520161E+00 
    1.3920642910539508E+01 
    1.4163167587724084E+01 
    8.3517869220997607E+00 
    9.6564706726721248E+00 
    1.2967630519867452E+01 
    1.1099624583326662E+01 
    9.1511597484908158E+00 
    1.4169764668664811E+01 
    1.3156691983189660E+01 
    8.2322870618902080E+00 
    1.3725131550141693E+01 
    9.8175921317367365E+00 
    1.2912117236621187E+01 
    1.4062183731218848E+01 
    9.8120754694433785E+00 
    5.9559655719611282E+00 
    9.6756264270925207E+00 
    1.3974269254597907E+01 
    1.4200215277032573E+01 
    8.3611525283963442E+00 
    9.5865813911593669E+00 
    1.4241076832176773E+01 
    9.4304269102079079E+00 
    8.9062292421818476E+00 
    1.1488151054374532E+01 
    5.6784098389942859E+00 
    8.1486232747727669E+00 
    9.5861617013262990E+00 
    1.0162156067233258E+01 
    1.5665621218737291E+01 
    6.9910377426799748E+00 
    9.6646736308461154E+00 
    1.3031295265905918E+01 
    1.3286109292441893E+01 
    6.1456660324301522E+00 
    9.3039725135652631E+00 
    9.6163602928023586E+00 
    1.3305336649136843E+01 
    9.6191995108583850E+00 
    1.3241199054402655E+01 
    3.7323553563108640E+00 
    6.3405364379932401E+00 
    9.8909337006028988E+00 
    1.3430041915095829E+01 
    8.3131111394241550E+00 
    8.8707041484878797E+00 
    9.6054688985952463E+00 
    8.8745967663885281E+00 
    1.0926880175114249E+01 
    8.6229042790464607E+00 
    8.2404624867370924E+00 
    6.4683515598868340E+00 
    1.1230957014678571E+01 
    9.6916424085036290E+00 
    1.3837006706470326E+01 
    8.3138849224414635E+00 
    9.0612378797005970E+00 
    1.3146080865455096E+01 
    7.5369344003936325E+00 
    1.3571330286467880E+01 
    9.5081025017026874E+00 
    8.9931027811288704E+00 
    1.3288045127426198E+01 
    9.6894226107012642E+00 
    1.4070802897936192E+01 
    1.1498975073113822E+01 
    1.2385462276344546E+01 
    1.4033391057394001E+01 
    7.0054120311814252E+00 
    9.9116185892099260E+00 
    1.3290143651478244E+01 
    2.7990495232566204E+00 
    9.5628421127087631E+00 
    1.4001407408077549E+01 
    9.0216666855143757E+00 
    1.0431103936286556E+01 
    6.0950578453043303E+00 
    1.3029879046275873E+01 
    1.6149076300502060E+01 
    1.1937695189392940E+01 
    9.0195428936510122E+00 
    8.0536278866237261E+00 
    1.0258247793867753E+01 
    9.5251622828564653E+00 
    6.5915492170525551E+00 
    1.4029589898885476E+01 
    1.3379588462472681E+01 
    1.3032902559379377E+01 
    1.0162404709435227E+01 
    8.2050379805712055E+00 
    9.3587157805385921E+00 
    1.3751229993477468E+01 
    8.4441103684122094E+00 
    9.4659105855674834E+00 
    8.6001270795373959E+00 
    1.0988281670556338E+01 
    1.6137429699730831E+01 
    1.3024946231330881E+01 
    8.1591827647910264E+00 
    1.3469698779764654E+01 
    1.3391237550874429E+01 
    1.3467304725510086E+01 
    1.4433366119180491E+01 
    1.4959357039863022E+01 
    1.3628852011586138E+01 
    9.6477128172797375E+00 
    1.0309115679837415E+01 
    1.3464065206413609E+01 
    1.3847291053347124E+01 
    6.8825125615526499E+00 
    1.3051662954149039E+01 
    1.3715071688374820E+01 
    6.7002131187036857E+00 
    1.4347900941350280E+01 
    1.4336710201783223E+01 
    1.2788529319637188E+01 
    9.9737982711755659E+00 
    2.4572032991524244E+00 
    1.4002143051582379E+01 
    9.8327933861735843E+00 
    1.4119836638494419E+01 
    8.9556989095241040E+00 
    1.3845042109549759E+01 
    8.7302071402433756E-01 
    1.2403254017511044E+01 
    9.1536986517055823E+00 
    8.1662817600554458E+00 
    7.9552195681694213E+00 
    9.4783575023582713E+00 
    1.0601563829327967E+01 
    9.8381709567024132E+00 
    6.5656725018400159E+00 
    1.3842972849781791E+01 
    1.3313517656536636E+01 
    1.1218847084701158E+01 
    9.8845185835812686E+00 
    1.4308356716790944E+00 
    7.3330760906253953E+00 
    5.0620115465805506E+00 
    1.4024597411047575E+01 
    1.0759680310869587E+01 
    1.3365179664950590E+01 
    1.3376200660959059E+01 
    8.5172754758010196E+00 
    1.1266109593377005E+01 
    1.3028720869736041E+01 
    1.4319717864699705E+01 
    6.0720476084366402E+00 
    1.1760734650714227E+01 
    9.8717516758997306E+00 
    5.4005842884893420E+00 
    8.5109151075159009E+00 
    1.1762677574704083E+01 
    1.3340137852456818E+01 
    9.5332491766247998E+00 
    1.3445695037614852E+01 
    1.3221894250579854E+01 
    1.3173835445228047E+01 
    9.3652967775500748E+00 
    8.1095773896307044E+00 
    1.3040500023214335E+01 
    8.2277148569907510E+00 
    9.6235075404016790E+00 
    8.0626208266808721E+00 
    9.4117828939010568E+00 
    1.3384580789164236E+01 
    5.9604919026901495E+00 
    8.4242040724338416E+00 
    1.3940876065845064E+01 
    9.3785407231476619E+00 
    1.0649761318725847E+01 
    6.1162249104266264E+00 
    8.2874636524418932E+00 
    1.3201039851803509E+01 
    1.3499023282993649E+01 
    4.9814220322737182E+00 
    9.3821563040199436E+00 
    8.1010398959911107E+00 
    1.4730346679354707E+01 
    1.4207850440015520E+01 
    1.4985222566051849E+01 
    9.4024449731320257E+00 
    1.3359487000776527E+01 
    1.2988612600374760E+01 
    9.2791099737074649E+00 
    1.3033222454804678E+01 
    9.8856914412024715E+00 
    5.4708792290063153E+00 
    9.6158253326099601E+00 
    1.3928703638099035E+01 
    1.3030210840760921E+01 
    6.4879716214131093E+00 
    1.3058225953327129E+01 
    1.0598124418274516E+01 
    9.5441995256179162E+00 
    9.0960977608889522E+00 
    1.2904944950514539E+01 
    1.0095040721667713E+01 
    1.3045497138193252E+01 
    9.2549381825736496E+00 
    5.6703122982210790E+00 
    9.6931057317365017E+00 
    7.9639249726649410E+00 
    1.1939061724703613E+01 
    1.4117025416353449E+01 
    1.3039015983906197E+01 
    1.3995143307178273E+01 
    9.3285618132548382E+00 
    6.3166245800178622E+00 
    6.4072113080579669E+00 
    9.7307534707886898E+00 
    9.6002890004774422E+00 
    1.3579430966751997E+00 
    1.2574625176994358E+01 
    1.4461190290604721E+01 
    8.9679587193096353E+00 
    5.7027152518910524E+00 
    1.0945511359464735E+01 
    1.3056903104399137E+01 
    6.7737938732648812E+00 
    4.5889038510690296E+00 
    9.5744639907052811E+00 
    1.3145859507065486E+01 
    1.3751420594166273E+01 
    1.3645489088602419E+01 
    1.3502879269395239E+01 
    6.6079502380487423E+00 
    9.5374523924348953E+00 
    1.2596506206019486E+01 
    7.5159278966959153E+00 
    1.3319583123934793E+01 
    1.1484702491464191E+01 
    6.5062814613270614E+00 
    1.3160698524707914E+01 
    1.4019426894982011E+01 
    1.3166713415400128E+01 
    6.5204150787891901E+00 
    9.6523670503111099E+00 
    7.1720210821973236E+00 
    9.1055764724628787E+00 
    1.3048765526578496E+01 
    1.3037564333992323E+01 
    6.5587452076904196E+00 
    1.3882860815719575E+01 
    1.0183532410514289E+01 
    1.3072372402228076E+01 
    1.3853414202305762E+01 
    1.3057908569596636E+01 
    1.2169854563001575E+01 
    1.4782228893843101E+01 
    8.9280131664435469E+00 
    1.3965973290503539E+01 
    1.3101995298640079E+01 
    1.4035447512781674E+01 
    1.3876339538300030E+01 
    9.0237518893455118E+00 
    9.4676062781667643E+00 
    8.9586418174068179E+00 
    1.1705588127519963E+01 
    3.7438714548813752E+00 
    9.6626038627361446E+00 
    1.4905657896153187E+01 
    9.8866661752337954E+00 
    1.0065614553787752E+01 
    1.4009508274756945E+01 
    1.4233220186027811E+01 
    8.8704944265262906E+00 
    1.3062340458102105E+01 
    1.3033991474993369E+01 
    1.0053827908911664E+01 
    1.3833327267668757E+01 
    6.8357324834284778E+00 
    4.3335171461986723E+00 
    1.0321802097277089E+01 
    9.9008361646578891E+00 
    1.3039762455143851E+01 
    6.1286138760920288E+00 
    1.3564598502468309E+01 
    4.4119636406836298E+00 
    9.8346802068277093E+00 
    9.0670774937153666E+00 
    9.6272943742064232E+00 
    1.6188487575428358E+01 
    3.6383049648267396E+00 
    9.5802454494665206E+00 
    1.1421805936229116E+01 
    9.2339146122478120E+00 
    7.2265730950446825E+00 
    1.3674145391401236E+01 
    1.5751846282494192E+01 
    1.3815273604216639E+01 
    9.5220096708234987E+00 
    5.3718658412376010E+00 
    1.5607620778524090E+01 
    1.3302520463661690E+01 
    6.9244742338214103E+00 
    9.1596083536414401E+00 
    1.4417628282046230E+01 
    3.0934478340290714E+00 
    9.9486702603116655E+00 
    1.3783947570206475E+01 
    9.6412057230429600E+00 
    8.3938059892365047E+00 
    9.6195562047169467E+00 
    1.2809325991546668E+01 
    9.6203472224434687E+00 
    4.7830437058192743E+00 
    8.4381729726946908E-01 
    7.1646153581847853E+00 
    1.4627728712083004E+01 
    8.9580863258321610E+00 
    1.0949227976589869E+01 
    1.0418025580852813E+01 
    1.2011192471454882E+01 
    9.6552514050683858E+00 
    1.3215301815817877E+01 
    1.6202659977029420E+01 
    1.1399504067049195E+01 
    1.3939804791647953E+01 
    5.0846921845135273E-01 
    1.3039479869266513E+01 
    5.2934575445961629E+00 
    1.5071393294475284E+01 
    9.5937741310521076E+00 
    8.5245859757474278E+00 
    7.3167645463018269E+00 
    5.0212830856579274E+00 
    1.0772751480504315E+01 
    7.5909947260876560E+00 
    1.1838582411340511E+01 
    2.0543120694038657E+00 
    1.0629178327761975E+01 
    1.2976177704638191E+01 
    5.8125862017295900E+00 
    1.3508578234442005E+01 
    1.4878749823372129E+01 
    1.3361624716836671E+01 
    9.4624967917162408E+00 
    9.6223115735313751E+00 
    9.5864999378847369E+00 
    5.4430673264954574E+00 
    8.7043543891812014E+00 
    8.5555081789487488E+00 
    9.5756734826683747E+00 
    8.8927414409106245E+00 
    6.4204711104207712E-01 
    6.0791167581510077E+00 
    9.2706497374837351E+00 
    9.5512406512165686E+00 
    1.2164728303759176E+01 
    2.0352237441012448E+00 
    1.0015473599680114E+01 
    9.9054331684428245E+00 
    3.4988805395775260E+00 
    1.3235947680690041E+01 
    8.2459662558745332E+00 
    9.7621144402176299E+00 
    1.3298391852247345E+01 
    5.0399364115316949E+00 
    1.3348486097091197E+01 
    8.3563134412672735E+00 
    9.3393982659331787E-01 
    9.0176221560201153E+00 
    1.3894619657916111E+01 
    1.3039416752291510E+01 
    1.3057491860008524E+01 
    9.9402523378111294E+00 
    9.8391132657189164E+00 
    8.2262064386359928E+00 
    6.6016389811441032E+00 
    1.3402574159016698E+01 
    9.1576312894421417E+00 
    6.4386262818659548E+00 
    1.3052995805969317E+01 
    1.3712072609818733E+01 
    9.7618264006436171E+00 
    9.4243221199983740E+00 
    1.6083443448565891E+01 
    1.0054639533831660E+01 
    1.3421472521751957E+01 
    7.8085395765541072E+00 
    1.6231216862873378E+01 
    6.3697592786195587E+00 
    8.6255249482754053E+00 
    7.1435015108322011E+00 
    1.0273038008691554E+01 
    8.1825143611523412E+00 
    1.6214816210670929E+01 
    1.0100106600276746E+01 
    1.2747553848511275E+01 
    6.5529930191580119E+00 
    9.6528887749428840E+00 
    1.3270474253603332E+01 
    8.2144897954949023E+00 
    6.8625917015516906E+00 
    1.0618382119906626E+01 
    1.3491374932448510E+01 
    7.0328472594457656E+00 
    9.0864890980053161E+00 
    9.4516930452766577E+00 
    1.3016123122443380E+01 
    9.2605564677800238E+00 
    1.3465567168373465E+01 
    1.4063353451243355E+01 
    8.2526665439073259E+00 
    8.0834202157515005E+00 
    7.6285716100834451E+00 
    1.3150843897469413E+01 
    9.9174496858757344E+00 
    1.5790618124116342E+01 
    1.2380539912258476E+01 
    1.3230919695518415E+01 
    1.5483508742823803E+01 
    1.4885843700408618E+01 
    9.7015780403422784E+00 
    9.5608725171269970E+00 
    1.2819260480874119E+01 
    1.3075398538851735E+01 
    1.3568270478864754E+01 
    1.3321855357740347E+01 
    1.6103436707782230E+01 
    1.0054202770033452E+01 
    8.3485625918806292E+00 
    1.0049431393610860E+01 
    1.3979921427014226E+01 
    9.8056728626237906E+00 
    5.6714058854970659E+00 
    9.4468302703820299E+00 
    1.4385718745241190E+01 
    9.9397534016978657E+00 
    8.3590026026722466E+00 
    9.3932891716683606E+00 
    1.4493002543665717E+01 
    1.3082642075427147E+01 
    7.9222888741033213E+00 
    1.4625555600597915E+01 
    9.7344831987502136E+00 
    1.3565128201817577E+01 
    1.4505444150552030E+01 
    1.0178922221154483E+01 
    5.0432819284186134E+00 
    1.0587607859966345E+01 
    5.2193569615857029E+00 
    9.8559477955599597E+00 
    9.6415345616714738E+00 
    1.1145656146419178E+01 
    5.5201785692752106E+00 
    1.1830302788480646E+01 
    9.6654992967746498E+00 
    1.3312591999450575E+01 
    1.0152384907674104E+01 
    7.7276598444641822E+00 
    9.2737546732814700E+00 
    1.0124331046566054E+01 
    1.0153478208738109E+01 
    1.4108234112366427E+01 
    7.9690603946906799E+00 
    7.8298990157265305E+00 
    5.8095138636708237E+00 
    1.3594419425775406E+01 
    9.3128247186372644E+00 
    1.2885019874696242E+01 
    9.6108221101164020E+00 
    6.3627298170427702E+00 
    1.3109397768024621E+01 
    9.5855997574703729E+00 
    6.9492789505297852E+00 
    7.3717765173724583E+00 
    7.6388574902363517E+00 
    1.3341245856876405E+01 
    9.5776186903293929E+00 
    1.3950639201216463E+01 
    9.5440466692574599E+00 
    9.4820194380613056E+00 
    9.0067094136493839E+00 
    1.3188218375805000E+01 
    9.4001635699191990E+00 
    7.6791456979396102E+00 
    1.4873939642289136E+01 
    1.3264688568171351E+01 
    6.6764955651154168E+00 
    2.5691038677215134E+00 
    9.5672169915874505E+00 
    9.0158678578010800E+00 
    8.0765488682309030E+00 
    8.8165799634939699E+00 
    1.3232804985366572E+01 
    9.2832242968475960E+00 
    8.4028426783680867E+00 
    1.3096132966243410E+01 
    6.6162196146772869E+00 
    1.2781083087059432E+01 
    8.7123398113245063E+00 
    7.6101778105832407E+00 
    8.1561336054005853E+00 
    1.3646814046619884E+01 
    9.6307000179754745E+00 
    9.6393273558621271E+00 
    5.6022871792068720E+00 
    6.0642200333126270E+00 
    1.2149421283321985E+01 
    9.6500395570433728E+00 
    9.6066374098796565E+00 
    1.4611383887574762E+01 
    7.8316468983551166E+00 
    9.6632974596274632E+00 
    6.8441117532108375E+00 
    7.0608177917170947E+00 
    1.3181672809609259E+01 
    9.2919651775748537E+00 
    6.6976090608354193E+00 
    1.0169894505904891E+01 
    9.5277753876809488E+00 
    1.3184491337419571E+01 
    1.4702040219923335E+01 
    9.8540106413671558E-01 
    9.5720111586515486E+00 
    9.8991527024334989E+00 
    1.3245833858326190E+01 
    9.0888219094582965E+00 
    9.6044287533800858E+00 
    1.4158669574373477E+01 
    8.1904544903324279E+00 
    6.7583850878721412E+00 
    1.1671167843244580E+01 
    1.3052473168540216E+01 
    1.4034199620112810E+01 
    1.4296605519224972E+01 
    9.4178970628360723E+00 
    9.5638240553929030E+00 
    1.0839131514449514E+01 
    6.3404820307201808E+00 
    1.3173950643139436E+01 
    7.2913911810334833E+00 
    6.6061809183929716E+00 
    1.2084368285069297E+01 
    1.1365568995532879E+01 
    6.4774106929521658E+00 
    1.3086654040212943E+01 
    1.4020629056884323E+01 
    1.0069161165753989E+01 
    1.4801371552218988E+01 
    1.3117810428669911E+01 
    9.1563735136975009E+00 
    1.3768872626494918E+01 
    7.0649084309888703E+00 
    1.3070109017950889E+01 
    9.5710176791445285E+00 
    9.5328531631223807E+00 
    1.4776680811552046E+01 
    9.3448057335617136E+00 
    1.1809582459754006E+01 
    8.1411802476532760E+00 
    1.4134738030489510E+01 
    1.2981826494421519E+01 
    8.5014371433494205E+00 
    1.3029479156292707E+01 
    8.7260127304734052E+00 
    9.6149493724724149E+00 
    1.3981757264068133E+01 
    1.3315878839020598E+01 
    1.4023732371291231E+01 
    1.3248810755993635E+01 
    8.7095573707720888E+00 
    8.9214443308791704E+00 
    1.4030357777782523E+01 
    9.0425226120642659E+00 
    1.2918220616012189E+01 
    9.3354199735812831E+00 
    3.7743884116284305E+00 
    6.6770483897512865E+00 
    6.1790916275505312E+00 
    1.3985133350374902E+01 
    1.4708038905510668E+01 
    1.3046753714882851E+01 
    1.1160809343727310E+01 
    1.3319844229481815E+01 
    1.3093709097200366E+01 
    1.3650648860816503E+01 
    5.4082591282929666E+00 
    3.5192454385169403E+00 
    1.0962950633278545E+01 
    9.2451564374963908E+00 
    1.3234171194842297E+01 
    1.3231776971255435E+01 
    9.9190480783851314E+00 
    1.3267124872616574E+01 
    9.5583043432082615E+00 
    9.4831161998927112E+00 
    4.8803374399310790E+00 
    3.5056911137419564E+00 
    1.4489755296679997E+01 
    7.5019845889592469E+00 
    8.4438167764265035E+00 
    9.8139996748874729E+00 
    1.6084917917234705E+01 
    9.9084246691323337E+00 
    9.8877441354985489E+00 
    3.9880781482614323E+00 
    9.9094067382970739E+00 
    9.9228828083902112E+00 
    1.3537953314106016E+01 
    8.1611137600234720E+00 
    9.2024773837154470E+00 
    1.4653628963947165E+01 
    9.5801389427198753E+00 
    1.3061914211803131E+01 
    1.3309479360413006E+01 
    1.1899452668839857E+01 
    8.1523035476754995E+00 
    1.3248244519509422E+01 
    9.3785669309253983E+00 
    1.3251231818650654E+01 
    1.3003183858191024E+01 
    1.4003572566326136E+01 
    1.3247195645052418E+01 
    1.2445809292516200E+01 
    9.5691648939715090E+00 
    6.4277411304212322E+00 
    1.5958808585792440E+01 
    7.4417847343525363E+00 
    1.3937662676430801E+01 
    9.5666295895763653E+00 
    7.8727625099095881E+00 
    4.7130257103566127E+00 
    9.9570193079065117E+00 
    1.3235896312907673E+01 
    1.3232057741378547E+01 
    9.5954303566711960E+00 
    9.5609241503371720E+00 
    1.4856412935033454E+01 
    1.4241196169124766E+01 
    9.9260993147720722E+00 
    3.2750831308926149E+00 
    1.2409844972423615E+01 
    1.6212587150475390E+01 
    9.5724158088274187E+00 
    1.1522143098620973E+01 
    9.0862789247962503E+00 
    1.5817110004348732E+01 
    1.4317810455481327E+01 
    1.4059904822587432E+01 
    9.9467080045395022E+00 
    4.3953984795648369E+00 
    9.0447332436741767E+00 
    9.1112766592146350E+00 
    9.1534529759282801E+00 
    3.5642637693074226E+00 