# vtk DataFile Version 2.0
Pressure Field Data 
ASCII 
DATASET UNSTRUCTURED_GRID 

POINTS 2860 double 

    0.0000000000000000E+00     0.0000000000000000E+00     0.0000000000000000E+00 
    1.0000000000000000E+00     0.0000000000000000E+00     0.0000000000000000E+00 
    1.0000000000000000E+00     1.0000000000000000E+00     0.0000000000000000E+00 
    0.0000000000000000E+00     1.0000000000000000E+00     0.0000000000000000E+00 
    2.5000000000000000E-01     2.5000000000000000E-01     0.0000000000000000E+00 
    7.5000000000000000E-01     2.5000000000000000E-01     0.0000000000000000E+00 
    7.5000000000000000E-01     7.5000000000000000E-01     0.0000000000000000E+00 
    2.5000000000000000E-01     7.5000000000000000E-01     0.0000000000000000E+00 
    3.1249999999942091E-02     0.0000000000000000E+00     0.0000000000000000E+00 
    6.2499999999873469E-02     0.0000000000000000E+00     0.0000000000000000E+00 
    9.3749999999826514E-02     0.0000000000000000E+00     0.0000000000000000E+00 
    1.2499999999977961E-01     0.0000000000000000E+00     0.0000000000000000E+00 
    1.5624999999968961E-01     0.0000000000000000E+00     0.0000000000000000E+00 
    1.8749999999959971E-01     0.0000000000000000E+00     0.0000000000000000E+00 
    2.1874999999950970E-01     0.0000000000000000E+00     0.0000000000000000E+00 
    2.4999999999941969E-01     0.0000000000000000E+00     0.0000000000000000E+00 
    2.8124999999932920E-01     0.0000000000000000E+00     0.0000000000000000E+00 
    3.1249999999923850E-01     0.0000000000000000E+00     0.0000000000000000E+00 
    3.4374999999914790E-01     0.0000000000000000E+00     0.0000000000000000E+00 
    3.7499999999905720E-01     0.0000000000000000E+00     0.0000000000000000E+00 
    4.0624999999896660E-01     0.0000000000000000E+00     0.0000000000000000E+00 
    4.3749999999887590E-01     0.0000000000000000E+00     0.0000000000000000E+00 
    4.6874999999878530E-01     0.0000000000000000E+00     0.0000000000000000E+00 
    4.9999999999869471E-01     0.0000000000000000E+00     0.0000000000000000E+00 
    5.3124999999877620E-01     0.0000000000000000E+00     0.0000000000000000E+00 
    5.6249999999885780E-01     0.0000000000000000E+00     0.0000000000000000E+00 
    5.9374999999893940E-01     0.0000000000000000E+00     0.0000000000000000E+00 
    6.2499999999902101E-01     0.0000000000000000E+00     0.0000000000000000E+00 
    6.5624999999910261E-01     0.0000000000000000E+00     0.0000000000000000E+00 
    6.8749999999918421E-01     0.0000000000000000E+00     0.0000000000000000E+00 
    7.1874999999926570E-01     0.0000000000000000E+00     0.0000000000000000E+00 
    7.4999999999934730E-01     0.0000000000000000E+00     0.0000000000000000E+00 
    7.8124999999942890E-01     0.0000000000000000E+00     0.0000000000000000E+00 
    8.1249999999951039E-01     0.0000000000000000E+00     0.0000000000000000E+00 
    8.4374999999959199E-01     0.0000000000000000E+00     0.0000000000000000E+00 
    8.7499999999967359E-01     0.0000000000000000E+00     0.0000000000000000E+00 
    9.0624999999975520E-01     0.0000000000000000E+00     0.0000000000000000E+00 
    9.3749999999983680E-01     0.0000000000000000E+00     0.0000000000000000E+00 
    9.6874999999991840E-01     0.0000000000000000E+00     0.0000000000000000E+00 
    1.0000000000000000E+00     3.1249999999942091E-02     0.0000000000000000E+00 
    1.0000000000000000E+00     6.2499999999873469E-02     0.0000000000000000E+00 
    1.0000000000000000E+00     9.3749999999826514E-02     0.0000000000000000E+00 
    1.0000000000000000E+00     1.2499999999977961E-01     0.0000000000000000E+00 
    1.0000000000000000E+00     1.5624999999968961E-01     0.0000000000000000E+00 
    1.0000000000000000E+00     1.8749999999959971E-01     0.0000000000000000E+00 
    1.0000000000000000E+00     2.1874999999950970E-01     0.0000000000000000E+00 
    1.0000000000000000E+00     2.4999999999941969E-01     0.0000000000000000E+00 
    1.0000000000000000E+00     2.8124999999932920E-01     0.0000000000000000E+00 
    1.0000000000000000E+00     3.1249999999923850E-01     0.0000000000000000E+00 
    1.0000000000000000E+00     3.4374999999914790E-01     0.0000000000000000E+00 
    1.0000000000000000E+00     3.7499999999905720E-01     0.0000000000000000E+00 
    1.0000000000000000E+00     4.0624999999896660E-01     0.0000000000000000E+00 
    1.0000000000000000E+00     4.3749999999887590E-01     0.0000000000000000E+00 
    1.0000000000000000E+00     4.6874999999878530E-01     0.0000000000000000E+00 
    1.0000000000000000E+00     4.9999999999869471E-01     0.0000000000000000E+00 
    1.0000000000000000E+00     5.3124999999877620E-01     0.0000000000000000E+00 
    1.0000000000000000E+00     5.6249999999885780E-01     0.0000000000000000E+00 
    1.0000000000000000E+00     5.9374999999893940E-01     0.0000000000000000E+00 
    1.0000000000000000E+00     6.2499999999902101E-01     0.0000000000000000E+00 
    1.0000000000000000E+00     6.5624999999910261E-01     0.0000000000000000E+00 
    1.0000000000000000E+00     6.8749999999918421E-01     0.0000000000000000E+00 
    1.0000000000000000E+00     7.1874999999926570E-01     0.0000000000000000E+00 
    1.0000000000000000E+00     7.4999999999934730E-01     0.0000000000000000E+00 
    1.0000000000000000E+00     7.8124999999942890E-01     0.0000000000000000E+00 
    1.0000000000000000E+00     8.1249999999951039E-01     0.0000000000000000E+00 
    1.0000000000000000E+00     8.4374999999959199E-01     0.0000000000000000E+00 
    1.0000000000000000E+00     8.7499999999967359E-01     0.0000000000000000E+00 
    1.0000000000000000E+00     9.0624999999975520E-01     0.0000000000000000E+00 
    1.0000000000000000E+00     9.3749999999983680E-01     0.0000000000000000E+00 
    1.0000000000000000E+00     9.6874999999991840E-01     0.0000000000000000E+00 
    9.6875000000003686E-01     1.0000000000000000E+00     0.0000000000000000E+00 
    9.3750000000011691E-01     1.0000000000000000E+00     0.0000000000000000E+00 
    9.0625000000015765E-01     1.0000000000000000E+00     0.0000000000000000E+00 
    8.7500000000017863E-01     1.0000000000000000E+00     0.0000000000000000E+00 
    8.4375000000028044E-01     1.0000000000000000E+00     0.0000000000000000E+00 
    8.1250000000040856E-01     1.0000000000000000E+00     0.0000000000000000E+00 
    7.8125000000054956E-01     1.0000000000000000E+00     0.0000000000000000E+00 
    7.5000000000066480E-01     1.0000000000000000E+00     0.0000000000000000E+00 
    7.1875000000086831E-01     1.0000000000000000E+00     0.0000000000000000E+00 
    6.8750000000102829E-01     1.0000000000000000E+00     0.0000000000000000E+00 
    6.5625000000114431E-01     1.0000000000000000E+00     0.0000000000000000E+00 
    6.2500000000129829E-01     1.0000000000000000E+00     0.0000000000000000E+00 
    5.9375000000147926E-01     1.0000000000000000E+00     0.0000000000000000E+00 
    5.6250000000168354E-01     1.0000000000000000E+00     0.0000000000000000E+00 
    5.3125000000188671E-01     1.0000000000000000E+00     0.0000000000000000E+00 
    5.0000000000205835E-01     1.0000000000000000E+00     0.0000000000000000E+00 
    4.6875000000192979E-01     1.0000000000000000E+00     0.0000000000000000E+00 
    4.3750000000180111E-01     1.0000000000000000E+00     0.0000000000000000E+00 
    4.0625000000167238E-01     1.0000000000000000E+00     0.0000000000000000E+00 
    3.7500000000154382E-01     1.0000000000000000E+00     0.0000000000000000E+00 
    3.4375000000141509E-01     1.0000000000000000E+00     0.0000000000000000E+00 
    3.1250000000128642E-01     1.0000000000000000E+00     0.0000000000000000E+00 
    2.8125000000115769E-01     1.0000000000000000E+00     0.0000000000000000E+00 
    2.5000000000102918E-01     1.0000000000000000E+00     0.0000000000000000E+00 
    2.1875000000090050E-01     1.0000000000000000E+00     0.0000000000000000E+00 
    1.8750000000077180E-01     1.0000000000000000E+00     0.0000000000000000E+00 
    1.5625000000064329E-01     1.0000000000000000E+00     0.0000000000000000E+00 
    1.2500000000051459E-01     1.0000000000000000E+00     0.0000000000000000E+00 
    9.3750000000385914E-02     1.0000000000000000E+00     0.0000000000000000E+00 
    6.2500000000257239E-02     1.0000000000000000E+00     0.0000000000000000E+00 
    3.1250000000128557E-02     1.0000000000000000E+00     0.0000000000000000E+00 
    0.0000000000000000E+00     9.6875000000003686E-01     0.0000000000000000E+00 
    0.0000000000000000E+00     9.3750000000011691E-01     0.0000000000000000E+00 
    0.0000000000000000E+00     9.0625000000015765E-01     0.0000000000000000E+00 
    0.0000000000000000E+00     8.7500000000017863E-01     0.0000000000000000E+00 
    0.0000000000000000E+00     8.4375000000028044E-01     0.0000000000000000E+00 
    0.0000000000000000E+00     8.1250000000040856E-01     0.0000000000000000E+00 
    0.0000000000000000E+00     7.8125000000054956E-01     0.0000000000000000E+00 
    0.0000000000000000E+00     7.5000000000066480E-01     0.0000000000000000E+00 
    0.0000000000000000E+00     7.1875000000086831E-01     0.0000000000000000E+00 
    0.0000000000000000E+00     6.8750000000102829E-01     0.0000000000000000E+00 
    0.0000000000000000E+00     6.5625000000114431E-01     0.0000000000000000E+00 
    0.0000000000000000E+00     6.2500000000129829E-01     0.0000000000000000E+00 
    0.0000000000000000E+00     5.9375000000147926E-01     0.0000000000000000E+00 
    0.0000000000000000E+00     5.6250000000168354E-01     0.0000000000000000E+00 
    0.0000000000000000E+00     5.3125000000188671E-01     0.0000000000000000E+00 
    0.0000000000000000E+00     5.0000000000205835E-01     0.0000000000000000E+00 
    0.0000000000000000E+00     4.6875000000192979E-01     0.0000000000000000E+00 
    0.0000000000000000E+00     4.3750000000180111E-01     0.0000000000000000E+00 
    0.0000000000000000E+00     4.0625000000167238E-01     0.0000000000000000E+00 
[...]
CELL_DATA 2795 
SCALARS Pressure double 1 
LOOKUP_TABLE default 

    6.8169290244101175E+00 
    1.5452729352422161E+01 
    1.0877529819051054E+01 
    1.0500139616378990E+01 
    8.3629563765212040E+00 
    1.5308225198330803E+01 
    1.6077399875348654E+01 
    6.0979552970534465E+00 
    1.1425924143754910E+01 
    8.7915242184234241E+00 
    7.5086784732483967E+00 
    1.5034629948449618E+01 
    1.5359072800565411E+01 
    1.5275211108343079E+01 
    1.0048127590366251E+01 
    5.9986807915160556E+00 
    9.6638162247566406E+00 
    7.9915612895989847E+00 
    1.4644908373773600E+01 
    1.0863104825609147E+01 
    1.0759158154414576E+01 
    1.5205707729540658E+01 
    1.0214320395773493E+01 
    3.9988777316125024E-01 
    1.5037780472170828E+01 
    1.5323935040175844E+01 
    1.6109917811195540E+01 
    7.2265184188549441E+00 
    1.4949672870346602E+01 
    1.6103163648165147E+01 
    1.0952832331976213E+01 
    1.1073285640878392E+01 
    7.8303706936832285E+00 
    1.0840490462533852E+01 
    3.5230167115198969E+00 
    9.6693526120976312E+00 
    1.0827996590920771E+01 
    1.6144414319875334E+01 
    1.6053046621587686E+01 
    1.5048169906074758E+01 
    8.3229349257440397E+00 
    1.5013890005598631E+01 
    8.3137694483315705E-01 
    1.0760024841046038E+01 
    1.5866061854463844E+01 
    1.5666339525581526E+01 
    1.5023293841104072E+01 
    1.1837109211333315E+01 
    1.5094482283792471E+01 
    9.8843885137358800E+00 
    9.4205107535534225E+00 
    1.1038622025415469E+01 
    1.0648056108270453E+01 
    9.7214730247764560E+00 
    1.1023160691047647E+01 
    1.4419335397285289E+01 
    1.2858672933914750E+01 
    8.4078080173248644E+00 
    1.5210419404789741E+01 
    1.5127342038306038E+01 
    1.0477393591514524E+01 
    1.0468471919130542E+01 
    1.0395907750571213E+01 
    1.6000890318066570E+01 
    1.6272833250927324E+01 
    9.6757638468385618E+00 
    1.1037386565429284E+01 
    1.4895397621739114E+01 
    1.2734175761937031E+01 
    1.0519616096439943E+01 
    1.6275032986612246E+01 
    1.5159471192579916E+01 
    9.5395985416037732E+00 
    1.5779098346828293E+01 
    1.1262444218834101E+01 
    1.4878413662331049E+01 
    1.6156076670862571E+01 
    1.1337018014985819E+01 
    7.0272569762872568E+00 
    1.1055558940816374E+01 
    1.6062711530075752E+01 
    1.6305643076879154E+01 
    9.6892942774433504E+00 
    1.0977220902368128E+01 
    1.6353092354441753E+01 
    1.0828839394351826E+01 
    1.0306543058543996E+01 
    1.3192802268979053E+01 
    6.6756444558916295E+00 
    9.4446992144281676E+00 
    1.0975673718329848E+01 
    1.1591488950359725E+01 
    1.7864459809016839E+01 
    8.1296175127424473E+00 
    1.1045268111617492E+01 
    1.4999758088725656E+01 
    1.5307380467157671E+01 
    7.1729507106327155E+00 
    1.0695962210838132E+01 
    1.1007283454835799E+01 
    1.5329177575131217E+01 
    1.1003352777953637E+01 
    1.5256349379155992E+01 
    4.3670086032620299E+00 
    7.3021591548774234E+00 
    1.1263589678303738E+01 
    1.5460953311093418E+01 
    9.6316456705534517E+00 
    1.0242486978465980E+01 
    1.0984711090653787E+01 
    1.0270175488654543E+01 
    1.2426550269758053E+01 
    9.9678370395526095E+00 
    9.5493007298595156E+00 
    7.6161170626985175E+00 
    1.2965922378691213E+01 
    1.1076716354429209E+01 
    1.5908513779724668E+01 
    9.5313417431535612E+00 
    1.0479436125083838E+01 
    1.5147404499393534E+01 
    8.7671826437762483E+00 
    1.5621219198758325E+01 
    1.0903355234735391E+01 
    1.0405120234275801E+01 
    1.5309639152787780E+01 
    1.1067881101971922E+01 
    1.6168106098275103E+01 
    1.3209560123826233E+01 
    1.4251284170252854E+01 
    1.6127438230322984E+01 
    8.1458933645825624E+00 
    1.1289810135206853E+01 
    1.5308834363315901E+01 
    3.2677861781869333E+00 
    1.1001201023771747E+01 
    1.6092173216614917E+01 
    1.0435111288689511E+01 
    1.2049527564607633E+01 
    7.1829043566497885E+00 
    1.4997472190446313E+01 
    1.8366718509470854E+01 
    1.3722656759438353E+01 
    1.0435088228990640E+01 
    9.3380447643306432E+00 
    1.1677017965880975E+01 
    1.0920185429597572E+01 
    7.5878176595518836E+00 
    1.6123461235775270E+01 
    1.5356626633195301E+01 
    1.5001535315546262E+01 
    1.1614702945350924E+01 
    9.5116139497029444E+00 
    1.0756687098934163E+01 
    1.5809780934864570E+01 
    9.7807874301099265E+00 
    1.0937044875939774E+01 
    9.9581518079173570E+00 
    1.2686615028908989E+01 
    1.8354600303785794E+01 
    1.4992580842419306E+01 
    9.5069089465756527E+00 
    1.5512575741158217E+01 
    1.5418424091098789E+01 
    1.5502215707734893E+01 
    1.6560064492603292E+01 
    1.7121700828524173E+01 
    1.5662544378321035E+01 
    1.1029160314031941E+01 
    1.1894584086751356E+01 
    1.5482260097090348E+01 
    1.5921201646507752E+01 
    7.9185306568011002E+00 
    1.5022916534436449E+01 
    1.5770327279058284E+01 
    7.7105461588586568E+00 
    1.6474166567892610E+01 
    1.6454717656274006E+01 
    1.4719459825359340E+01 
    1.1373365101562053E+01 
    2.8744024352719948E+00 
    1.6093478994726546E+01 
    1.1202395895275620E+01 
    1.6220464104803817E+01 
    1.0360402205405682E+01 
    1.5919232248441002E+01 
    1.0242703683334424E+00 
    1.4267273934718576E+01 
    1.0514638956120210E+01 
    9.4642907128563891E+00 
    9.2258024851813882E+00 
    1.0872574827586064E+01 
    1.2043127575303540E+01 
    1.1373406876185886E+01 
    7.7528361433123480E+00 
    1.5915400798217169E+01 
    1.5333512193331840E+01 
    1.2866295351024601E+01 
    1.1256205104940964E+01 
    1.6662210309056420E+00 
    8.5179634700498212E+00 
    5.9455276044950862E+00 
    1.6114028947202780E+01 
    1.2163668866113419E+01 
    1.5374891608408518E+01 
    1.5403747611714515E+01 
    9.8635725884412793E+00 
    1.2753743432792975E+01 
    1.4996593630551336E+01 
    1.6436957270059342E+01 
    7.1294250404568054E+00 
    1.3568316717358776E+01 
    1.1382889908235711E+01 
    6.3410416336750739E+00 
    9.8563712331543165E+00 
    1.3417820147017370E+01 
    1.5363278569585308E+01 
    1.0925201280317664E+01 
    1.5479190568121382E+01 
    1.5232648928801570E+01 
    1.5178437522382477E+01 
    1.0762151133870468E+01 
    9.3937819988574809E+00 
    1.5009872959469153E+01 
    9.5353973690717790E+00 
    1.1009657833584782E+01 
    9.3472356024714731E+00 
    1.0883128204112394E+01 
    1.5413574458623522E+01 
    6.8692536647809765E+00 
    9.7576858317800390E+00 
    1.6024793829479993E+01 
    1.0772769982342822E+01 
    1.2062810371136809E+01 
    7.0471595930504849E+00 
    9.6021546370277182E+00 
    1.5209463160141279E+01 
    1.5537775802633703E+01 
    5.7537564136012875E+00 
    1.0781006253877093E+01 
    9.4026301344776986E+00 
    1.6879144013602748E+01 
    1.6314538855371634E+01 
    1.7150454942304062E+01 
    1.0800993877073353E+01 
    1.5384934033879597E+01 
    1.4949445716746176E+01 
    1.0666937471681626E+01 
    1.5001974290922874E+01 
    1.1256987451898237E+01 
    6.4376037060878613E+00 
    1.1079193094596276E+01 
    1.6009381454018982E+01 
    1.4998569148156317E+01 
    7.4713489893522276E+00 
    1.5030400595043917E+01 
    1.2063341698717755E+01 
    1.0980299316474317E+01 
    1.0512684967923594E+01 
    1.4855015208224462E+01 
    1.1516250894612005E+01 
    1.5015633541488807E+01 
    1.0689343767579601E+01 
    6.6854602155923848E+00 
    1.1082759699960974E+01 
    9.2377467486968623E+00 
    1.3728948186680098E+01 
    1.6218857919168574E+01 
    1.5007980839432154E+01 
    1.6085595865188218E+01 
    1.0718171652964612E+01 
    7.2762586495427781E+00 
    7.3786316436381085E+00 
    1.1171895699402178E+01 
    1.0984138193822337E+01 
    1.5931534663396683E+00 
    1.4469976612295316E+01 
    1.6593392494310706E+01 
    1.0375838789700980E+01 
    6.6949229531921173E+00 
    1.2632339243054849E+01 
    1.5028777993799444E+01 
    7.8864429584519371E+00 
    5.3727434402428189E+00 
    1.0964264583894701E+01 
    1.5108804925459083E+01 
    1.5814671495623463E+01 
    1.5693895276352775E+01 
    1.5541081011104849E+01 
    7.7434155737578116E+00 
    1.0974896145330282E+01 
    1.4522925427080127E+01 
    8.6309547536087639E+00 
    1.5345256054067313E+01 
    1.3020101315153500E+01 
    7.4894097194176625E+00 
    1.5141470612919246E+01 
    1.6117020797313529E+01 
    1.5169123122907736E+01 
    7.5936743593714358E+00 
    1.1033548780809118E+01 
    8.3356352118344006E+00 
    1.0422558897514204E+01 
    1.5019650244813459E+01 
    1.5006917883146786E+01 
    7.6375511070353852E+00 
    1.5961328942182385E+01 
    1.1593741690960895E+01 
    1.5040351072634330E+01 
    1.5929667794484276E+01 
    1.5027355642775502E+01 
    1.3987291980466013E+01 
    1.6937438264808531E+01 
    1.0324956517221320E+01 
    1.6052993961631607E+01 
    1.5068288729403870E+01 
    1.6129934411136219E+01 
    1.5954050851221753E+01 
    1.0432346866383376E+01 
    1.0868168758773368E+01 
    1.0365873527578010E+01 
    1.3442311000300435E+01 
    4.3833725233818441E+00 
    1.1105307489451928E+01 
    1.7067091025464588E+01 
    1.1259728003296670E+01 
    1.1460402122844108E+01 
    1.6101629676938924E+01 
    1.6343060711748297E+01 
    1.0241267479358545E+01 
    1.5035088985288768E+01 
    1.5002709740013582E+01 
    1.1447026683954880E+01 
    1.5906564119213741E+01 
    7.8652745229075727E+00 
    5.0183936031123721E+00 
    1.1749690026801455E+01 
    1.1274213217130272E+01 
    1.5008984295045753E+01 
    7.1500703496318501E+00 
    1.5605128396869359E+01 
    5.1053427671548155E+00 
    1.1208053435985258E+01 
    1.0457751094486714E+01 
    1.1010444511446337E+01 
    1.8406609386856434E+01 
    4.2528049166488078E+00 
    1.1019244878278331E+01 
    1.3185301322465536E+01 
    1.0615574714284978E+01 
    8.4849217299392912E+00 
    1.5726468058480171E+01 
    1.7954486058340652E+01 
    1.5885716752823599E+01 
    1.0956041333346949E+01 
    6.3003094301520042E+00 
    1.7802497654207301E+01 
    1.5322809779328207E+01 
    8.1672394645237176E+00 
    1.0594707019826510E+01 
    1.6542633708549580E+01 
    3.6210290197444408E+00 
    1.1328544425329330E+01 
    1.5856200722691810E+01 
    1.1024532977918810E+01 
    9.6207921190816545E+00 
    1.1060778234443047E+01 
    1.4744496101308860E+01 
    1.1006267860383659E+01 
    5.6052285801489035E+00 
    9.9815805545230607E-01 
    8.2444999165329644E+00 
    1.6773808314495746E+01 
    1.0365363713624424E+01 
    1.2362106229025260E+01 
    1.1828892133504057E+01 
    1.3735158867837150E+01 
    1.1037896363688052E+01 
    1.5225788360043914E+01 
    1.8421192305818280E+01 
    1.3095474301208588E+01 
    1.6023880826950304E+01 
    5.9494859809477407E-01 
    1.5009090947135050E+01 
    6.2397737108928055E+00 
    1.7241297089932388E+01 
    1.1033459392205186E+01 
    9.7947277123282195E+00 
    8.4997794720573481E+00 
    5.8770742745327516E+00 
    1.2338844627074360E+01 
    8.7330344199123715E+00 
    1.3614318861504289E+01 
    2.4143505926607682E+00 
    1.2101312720182474E+01 
    1.4935923490856400E+01 
    6.7045510905387831E+00 
    1.5517228024289809E+01 
    1.7033128331499686E+01 
    1.5345009721108317E+01 
    1.0891052161886810E+01 
    1.1004851695858752E+01 
    1.1025894279339447E+01 
    6.3665009239581574E+00 
    1.0077110169052585E+01 
    9.9077746224879277E+00 
    1.1014403624044112E+01 
    1.0290553005413740E+01 
    7.5479664738534447E-01 
    7.1813466851759360E+00 
    1.0719503812521344E+01 
    1.0987919382601071E+01 
    1.3992027742822389E+01 
    2.3806214804767238E+00 
    1.1403782805921882E+01 
    1.1280172452327692E+01 
    4.0956184669520539E+00 
    1.5198011711798419E+01 
    9.5561428820647656E+00 
    1.1138246494269676E+01 
    1.5319645534362182E+01 
    5.9022750435510520E+00 
    1.5324220345994785E+01 
    9.6809994562425619E+00 
    1.0885214430806471E+00 
    1.0432443373475218E+01 
    1.5975129231841901E+01 
    1.5008887168523643E+01 
    1.5028217180511451E+01 
    1.1383856683247469E+01 
    1.1210973786610978E+01 
    9.5323394559489660E+00 
    7.8071390761274904E+00 
    1.5437260245284245E+01 
    1.0590633518915832E+01 
    7.5949309326187873E+00 
    1.5023841310634193E+01 
    1.5764785081305668E+01 
    1.1196752730660691E+01 
    1.0819748968642919E+01 
    1.8297192670552899E+01 
    1.1447998280979842E+01 
    1.5454994540976596E+01 
    9.0655550876953299E+00 
    1.8449963537166230E+01 
    7.3358915037381385E+00 
    9.9697874628599639E+00 
    8.2138130152780935E+00 
    1.1695885067324200E+01 
    9.4037583550719415E+00 
    1.8433188083790998E+01 
    1.1499516374841708E+01 
    1.4683344016720245E+01 
    7.5438880638092884E+00 
    1.1033584103497224E+01 
    1.5286638841473229E+01 
    9.4419056680884150E+00 
    8.0849503183723588E+00 
    1.2267397802116292E+01 
    1.5521686795935016E+01 
    8.0849382551356879E+00 
    1.0480134720168715E+01 
    1.0852164919150258E+01 
    1.4982575461545487E+01 
    1.0641450403005086E+01 
    1.5499804666294221E+01 
    1.6160368387034168E+01 
    9.5630376208142600E+00 
    9.3739741576273854E+00 
    8.7576200225164467E+00 
    1.5133469949010170E+01 
    1.1299184986995382E+01 
    1.7994478725324594E+01 
    1.4118559357810021E+01 
    1.5243313064654531E+01 
    1.7672322861461211E+01 
    1.7039949046128790E+01 
    1.1079860360605309E+01 
    1.0998435155946652E+01 
    1.4751776212413654E+01 
    1.5049958621896746E+01 
    1.5621410445564846E+01 
    1.5344832522453691E+01 
    1.8319534791563125E+01 
    1.1447492321413128E+01 
    9.6718675307360105E+00 
    1.1440712332145401E+01 
    1.6068723060451390E+01 
    1.1175337303413210E+01 
    6.5490708156653472E+00 
    1.0874019490683253E+01 
    1.6509665703651795E+01 
    1.1318271825545828E+01 
    9.6837591263660556E+00 
    1.0793528865072567E+01 
    1.6625077130811043E+01 
    1.5075109207180178E+01 
    9.2188919728195948E+00 
    1.6767166630043672E+01 
    1.1108519973830775E+01 
    1.5610501720166774E+01 
    1.6638463799474202E+01 
    1.1695384156697061E+01 
    5.9098750769713568E+00 
    1.2185701476752596E+01 
    6.1170447682408282E+00 
    1.1225404477325522E+01 
    1.1027399780882785E+01 
    1.2845820772904270E+01 
    6.4687437088800879E+00 
    1.3638847662854740E+01 
    1.1045824233712253E+01 
    1.5334217410996200E+01 
    1.1733727875818484E+01 
    9.0560933461674846E+00 
    1.0661365876760497E+01 
    1.1547774371607687E+01 
    1.1559250397829469E+01 
    1.6210561029936393E+01 
    9.2404029172399103E+00 
    9.0828615809570579E+00 
    6.8045224736664496E+00 
    1.5648964273500599E+01 
    1.0704987253198906E+01 
    1.4850284862626088E+01 
    1.0997372489215074E+01 
    7.4400042021056034E+00 
    1.5105738805026887E+01 
    1.0973478540921757E+01 
    8.1006469238101229E+00 
    8.5718055610894677E+00 
    8.8704547880878035E+00 
    1.5366965664194018E+01 
    1.1016493119439826E+01 
    1.6036475597202653E+01 
    1.0933245325372116E+01 
    1.0872321182463855E+01 
    1.0394261953439226E+01 
    1.5195199131784220E+01 
    1.0788701829745865E+01 
    8.9124547805225784E+00 
    1.7028178711614466E+01 
    1.5281844171294642E+01 
    7.6837924939031108E+00 
    3.0021826834953416E+00 
    1.1005566347054751E+01 
    1.0364172233821218E+01 
    9.3621277072493019E+00 
    1.0184533483888544E+01 
    1.5228976493898790E+01 
    1.0696873577229221E+01 
    9.7303675549275592E+00 
    1.5073332582606925E+01 
    7.6166238821540952E+00 
    1.4709463613367790E+01 
    1.0004011598910555E+01 
    8.8943428264089714E+00 
    9.4528663262092660E+00 
    1.5700406247301251E+01 
    1.1013199828730771E+01 
    1.1021402205122948E+01 
    6.5481361629936510E+00 
    7.0750337096368945E+00 
    1.3969570378220439E+01 
    1.1031195524973635E+01 
    1.1047361294866072E+01 
    1.6753036814436044E+01 
    9.0866242837102380E+00 
    1.1043434048246384E+01 
    7.8774586154695854E+00 
    8.1269158988574102E+00 
    1.5188042896296515E+01 
    1.0670396362976220E+01 
    7.7963145029566654E+00 
    1.1609412290877339E+01 
    1.0924740928826280E+01 
    1.5191188820191744E+01 
    1.6849605201694914E+01 
    1.1412868624604304E+00 
    1.1010707260807580E+01 
    1.1272469489972135E+01 
    1.5260211624518282E+01 
    1.0509521898857050E+01 
    1.0986515532320714E+01 
    1.6268018164966939E+01 
    9.4925126271367315E+00 
    7.8665982521114515E+00 
    1.3264024417333289E+01 
    1.5023641331462683E+01 
    1.6127889806873949E+01 
    1.6410766532309484E+01 
    1.0845092004381266E+01 
    1.1001699399558458E+01 
    1.2393264600097034E+01 
    7.3037705868576017E+00 
    1.5162434506693282E+01 
    8.4705570705641353E+00 
    7.6041176017735221E+00 
    1.3817572710608779E+01 
    1.3022189276027103E+01 
    7.4582014742472555E+00 
    1.5061689416739062E+01 
    1.6113378825008521E+01 
    1.1464429745790357E+01 
    1.6955765074985489E+01 
    1.5097562205159941E+01 
    1.0571465186989055E+01 
    1.5835190111808181E+01 
    8.1288172871156892E+00 
    1.5043890335915737E+01 
    1.1009537161816480E+01 
    1.0969810284954880E+01 
    1.6931224832189372E+01 
    1.0742196133226679E+01 
    1.3547787700872917E+01 
    9.4375034304714323E+00 
    1.6238129912419843E+01 
    1.4942873566567602E+01 
    9.8425812589683552E+00 
    1.4997287097725611E+01 
    1.0033258631600214E+01 
    1.0994770635626494E+01 
    1.6070485239091461E+01 
    1.5340850575616530E+01 
    1.6116646435299199E+01 
    1.5263710375044731E+01 
    1.0082610873199593E+01 
    1.0312145418681048E+01 
    1.6124213579385057E+01 
    1.0446340144932657E+01 
    1.4865247352396345E+01 
    1.0728907898916891E+01 
    4.4110147747386836E+00 
    7.6827376696692555E+00 
    7.1189882632854076E+00 
    1.6074388548583990E+01 
    1.6856740586102877E+01 
    1.5016645001468646E+01 
    1.2662201740668516E+01 
    1.5327378137949550E+01 
    1.5070861899481075E+01 
    1.5700030348692810E+01 
    6.3299876342351045E+00 
    4.1107807414234587E+00 
    1.2433791451189457E+01 
    1.0677018333039879E+01 
    1.5230971812931291E+01 
    1.5228265721495948E+01 
    1.1301077889167027E+01 
    1.5268400992919897E+01 
    1.0995738527607616E+01 
    1.0920096094227064E+01 
    5.7149147319044911E+00 
    4.0986996106161682E+00 
    1.6621081949576975E+01 
    8.6300379793901900E+00 
    9.7805095806569859E+00 
    1.1187436351757052E+01 
    1.8299514541807270E+01 
    1.1282379645108289E+01 
    1.1347667586190388E+01 
    4.6663337616144664E+00 
    1.1283632151892999E+01 
    1.1299679306109384E+01 
    1.5561012349960439E+01 
    9.4601496331165151E+00 
    1.0558442140854259E+01 
    1.6797630683752672E+01 
    1.1019429611939675E+01 
    1.5033490618346498E+01 
    1.5295306570371093E+01 
    1.3501862448068286E+01 
    9.3787737549575745E+00 
    1.5263324729775038E+01 
    1.0809181216879166E+01 
    1.5215700713393774E+01 
    1.4967817378431857E+01 
    1.6094714431448292E+01 
    1.5261321600427367E+01 
    1.4307205937878265E+01 
    1.1007509582079258E+01 
    7.4016698091904267E+00 
    1.8169109033510637E+01 
    8.6417718794522393E+00 
    1.6019004465582821E+01 
    1.1004837643694538E+01 
    9.1345437514221786E+00 
    5.4881573700883584E+00 
    1.1341232393148958E+01 
    1.5249106534858823E+01 
    1.5245380619239562E+01 
    1.0975325548332115E+01 
    1.0998828860507118E+01 
    1.7013019256604121E+01 
    1.6351036453386566E+01 
    1.1302204470404988E+01 
    3.8233987027705645E+00 
    1.4223682085163421E+01 
    1.8430273865365756E+01 
    1.1010920377315019E+01 
    1.3069695650628617E+01 
    1.0508569770183788E+01 
    1.8021032776984260E+01 
    1.6435246967327860E+01 
    1.6160278791894164E+01 
    1.1325236839623729E+01 
    5.1056097452342026E+00 
    1.0463350809141220E+01 
    1.0534031143669234E+01 
    1.0575100994866121E+01 
    4.1657268466443780E+00 