# vtk DataFile Version 2.0
Pressure Field Data 
ASCII 
DATASET UNSTRUCTURED_GRID 

POINTS 2860 double 

    0.0000000000000000E+00     0.0000000000000000E+00     0.0000000000000000E+00 
    1.0000000000000000E+00     0.0000000000000000E+00     0.0000000000000000E+00 
    1.0000000000000000E+00     1.0000000000000000E+00     0.0000000000000000E+00 
    0.0000000000000000E+00     1.0000000000000000E+00     0.0000000000000000E+00 
    2.5000000000000000E-01     2.5000000000000000E-01     0.0000000000000000E+00 
    7.5000000000000000E-01     2.5000000000000000E-01     0.0000000000000000E+00 
    7.5000000000000000E-01     7.5000000000000000E-01     0.0000000000000000E+00 
    2.5000000000000000E-01     7.5000000000000000E-01     0.0000000000000000E+00 
    3.1249999999942091E-02     0.0000000000000000E+00     0.0000000000000000E+00 
    6.2499999999873469E-02     0.0000000000000000E+00     0.0000000000000000E+00 
    9.3749999999826514E-02     0.0000000000000000E+00     0.0000000000000000E+00 
    1.2499999999977961E-01     0.0000000000000000E+00     0.0000000000000000E+00 
    1.5624999999968961E-01     0.0000000000000000E+00     0.0000000000000000E+00 
    1.8749999999959971E-01     0.0000000000000000E+00     0.0000000000000000E+00 
    2.1874999999950970E-01     0.0000000000000000E+00     0.0000000000000000E+00 
    2.4999999999941969E-01     0.0000000000000000E+00     0.0000000000000000E+00 
    2.8124999999932920E-01     0.0000000000000000E+00     0.0000000000000000E+00 
    3.1249999999923850E-01     0.0000000000000000E+00     0.0000000000000000E+00 
    3.4374999999914790E-01     0.0000000000000000E+00     0.0000000000000000E+00 
    3.7499999999905720E-01     0.0000000000000000E+00     0.0000000000000000E+00 
    4.0624999999896660E-01     0.0000000000000000E+00     0.0000000000000000E+00 
    4.3749999999887590E-01     0.0000000000000000E+00     0.0000000000000000E+00 
    4.6874999999878530E-01     0.0000000000000000E+00     0.0000000000000000E+00 
    4.9999999999869471E-01     0.0000000000000000E+00     0.0000000000000000E+00 
    5.3124999999877620E-01     0.0000000000000000E+00     0.0000000000000000E+00 
    5.6249999999885780E-01     0.0000000000000000E+00     0.0000000000000000E+00 
    5.9374999999893940E-01     0.0000000000000000E+00     0.0000000000000000E+00 
    6.2499999999902101E-01     0.0000000000000000E+00     0.0000000000000000E+00 
    6.5624999999910261E-01     0.0000000000000000E+00     0.0000000000000000E+00 
    6.8749999999918421E-01     0.0000000000000000E+00     0.0000000000000000E+00 
    7.1874999999926570E-01     0.0000000000000000E+00     0.0000000000000000E+00 
    7.4999999999934730E-01     0.0000000000000000E+00     0.0000000000000000E+00 
    7.8124999999942890E-01     0.0000000000000000E+00     0.0000000000000000E+00 
    8.1249999999951039E-01     0.0000000000000000E+00     0.0000000000000000E+00 
    8.4374999999959199E-01     0.0000000000000000E+00     0.0000000000000000E+00 
    8.7499999999967359E-01     0.0000000000000000E+00     0.0000000000000000E+00 
    9.0624999999975520E-01     0.0000000000000000E+00     0.0000000000000000E+00 
    9.3749999999983680E-01     0.0000000000000000E+00     0.0000000000000000E+00 
    9.6874999999991840E-01     0.0000000000000000E+00     0.0000000000000000E+00 
    1.0000000000000000E+00     3.1249999999942091E-02     0.0000000000000000E+00 
    1.0000000000000000E+00     6.2499999999873469E-02     0.0000000000000000E+00 
    1.0000000000000000E+00     9.3749999999826514E-02     0.0000000000000000E+00 
    1.0000000000000000E+00     1.2499999999977961E-01     0.0000000000000000E+00 
    1.0000000000000000E+00     1.5624999999968961E-01     0.0000000000000000E+00 
    1.0000000000000000E+00     1.8749999999959971E-01     0.0000000000000000E+00 
    1.0000000000000000E+00     2.1874999999950970E-01     0.0000000000000000E+00 
    1.0000000000000000E+00     2.4999999999941969E-01     0.0000000000000000E+00 
    1.0000000000000000E+00     2.8124999999932920E-01     0.0000000000000000E+00 
    1.0000000000000000E+00     3.1249999999923850E-01     0.0000000000000000E+00 
    1.0000000000000000E+00     3.4374999999914790E-01     0.0000000000000000E+00 
    1.0000000000000000E+00     3.7499999999905720E-01     0.0000000000000000E+00 
    1.0000000000000000E+00     4.0624999999896660E-01     0.0000000000000000E+00 
    1.0000000000000000E+00     4.3749999999887590E-01     0.0000000000000000E+00 
    1.0000000000000000E+00     4.6874999999878530E-01     0.0000000000000000E+00 
    1.0000000000000000E+00     4.9999999999869471E-01     0.0000000000000000E+00 
    1.0000000000000000E+00     5.3124999999877620E-01     0.0000000000000000E+00 
    1.0000000000000000E+00     5.6249999999885780E-01     0.0000000000000000E+00 
    1.0000000000000000E+00     5.9374999999893940E-01     0.0000000000000000E+00 
    1.0000000000000000E+00     6.2499999999902101E-01     0.0000000000000000E+00 
    1.0000000000000000E+00     6.5624999999910261E-01     0.0000000000000000E+00 
    1.0000000000000000E+00     6.8749999999918421E-01     0.0000000000000000E+00 
    1.0000000000000000E+00     7.1874999999926570E-01     0.0000000000000000E+00 
    1.0000000000000000E+00     7.4999999999934730E-01     0.0000000000000000E+00 
    1.0000000000000000E+00     7.8124999999942890E-01     0.0000000000000000E+00 
    1.0000000000000000E+00     8.1249999999951039E-01     0.0000000000000000E+00 
    1.0000000000000000E+00     8.4374999999959199E-01     0.0000000000000000E+00 
    1.0000000000000000E+00     8.7499999999967359E-01     0.0000000000000000E+00 
    1.0000000000000000E+00     9.0624999999975520E-01     0.0000000000000000E+00 
    1.0000000000000000E+00     9.3749999999983680E-01     0.0000000000000000E+00 
    1.0000000000000000E+00     9.6874999999991840E-01     0.0000000000000000E+00 
    9.6875000000003686E-01     1.0000000000000000E+00     0.0000000000000000E+00 
    9.3750000000011691E-01     1.0000000000000000E+00     0.0000000000000000E+00 
    9.0625000000015765E-01     1.0000000000000000E+00     0.0000000000000000E+00 
    8.7500000000017863E-01     1.0000000000000000E+00     0.0000000000000000E+00 
    8.4375000000028044E-01     1.0000000000000000E+00     0.0000000000000000E+00 
    8.1250000000040856E-01     1.0000000000000000E+00     0.0000000000000000E+00 
    7.8125000000054956E-01     1.0000000000000000E+00     0.0000000000000000E+00 
    7.5000000000066480E-01     1.0000000000000000E+00     0.0000000000000000E+00 
    7.1875000000086831E-01     1.0000000000000000E+00     0.0000000000000000E+00 
    6.8750000000102829E-01     1.0000000000000000E+00     0.0000000000000000E+00 
    6.5625000000114431E-01     1.0000000000000000E+00     0.0000000000000000E+00 
    6.2500000000129829E-01     1.0000000000000000E+00     0.0000000000000000E+00 
    5.9375000000147926E-01     1.0000000000000000E+00     0.0000000000000000E+00 
    5.6250000000168354E-01     1.0000000000000000E+00     0.0000000000000000E+00 
    5.3125000000188671E-01     1.0000000000000000E+00     0.0000000000000000E+00 
    5.0000000000205835E-01     1.0000000000000000E+00     0.0000000000000000E+00 
    4.6875000000192979E-01     1.0000000000000000E+00     0.0000000000000000E+00 
    4.3750000000180111E-01     1.0000000000000000E+00     0.0000000000000000E+00 
    4.0625000000167238E-01     1.0000000000000000E+00     0.0000000000000000E+00 
    3.7500000000154382E-01     1.0000000000000000E+00     0.0000000000000000E+00 
    3.4375000000141509E-01     1.0000000000000000E+00     0.0000000000000000E+00 
    3.1250000000128642E-01     1.0000000000000000E+00     0.0000000000000000E+00 
    2.8125000000115769E-01     1.0000000000000000E+00     0.0000000000000000E+00 
    2.5000000000102918E-01     1.0000000000000000E+00     0.0000000000000000E+00 
    2.1875000000090050E-01     1.0000000000000000E+00     0.0000000000000000E+00 
    1.8750000000077180E-01     1.0000000000000000E+00     0.0000000000000000E+00 
    1.5625000000064329E-01     1.0000000000000000E+00     0.0000000000000000E+00 
    1.2500000000051459E-01     1.0000000000000000E+00     0.0000000000000000E+00 
    9.3750000000385914E-02     1.0000000000000000E+00     0.0000000000000000E+00 
    6.2500000000257239E-02     1.0000000000000000E+00     0.0000000000000000E+00 
    3.1250000000128557E-02     1.0000000000000000E+00     0.0000000000000000E+00 
    0.0000000000000000E+00     9.6875000000003686E-01     0.0000000000000000E+00 
    0.0000000000000000E+00     9.3750000000011691E-01     0.0000000000000000E+00 
    0.0000000000000000E+00     9.0625000000015765E-01     0.0000000000000000E+00 
    0.0000000000000000E+00     8.7500000000017863E-01     0.0000000000000000E+00 
    0.0000000000000000E+00     8.4375000000028044E-01     0.0000000000000000E+00 
    0.0000000000000000E+00     8.1250000000040856E-01     0.0000000000000000E+00 
    0.0000000000000000E+00     7.8125000000054956E-01     0.0000000000000000E+00 
    0.0000000000000000E+00     7.5000000000066480E-01     0.0000000000000000E+00 
    0.0000000000000000E+00     7.1875000000086831E-01     0.0000000000000000E+00 
    0.0000000000000000E+00     6.8750000000102829E-01     0.0000000000000000E+00 
    0.0000000000000000E+00     6.5625000000114431E-01     0.0000000000000000E+00 
    0.0000000000000000E+00     6.2500000000129829E-01     0.0000000000000000E+00 
    0.0000000000000000E+00     5.9375000000147926E-01     0.0000000000000000E+00 
    0.0000000000000000E+00     5.6250000000168354E-01     0.0000000000000000E+00 
    0.0000000000000000E+00     5.3125000000188671E-01     0.0000000000000000E+00 
    0.0000000000000000E+00     5.0000000000205835E-01     0.0000000000000000E+00 
    0.0000000000000000E+00     4.6875000000192979E-01     0.0000000000000000E+00 
    0.0000000000000000E+00     4.3750000000180111E-01     0.0000000000000000E+00 
    0.0000000000000000E+00     4.0625000000167238E-01     0.0000000000000000E+00 
[...]
CELL_DATA 2795 
SCALARS Pressure double 1 
LOOKUP_TABLE default 

    6.3883329907958561E+00 
    1.4582062613319355E+01 
    1.0270787391238313E+01 
    9.8812052089079572E+00 
    7.8522549401954347E+00 
    1.4447366914968566E+01 
    1.5182247524361655E+01 
    5.7086199659452586E+00 
    1.0831237382477751E+01 
    8.3050812124893358E+00 
    7.0889087524664216E+00 
    1.4187202427878619E+01 
    1.4490148804095675E+01 
    1.4415993137176033E+01 
    9.4851726194088499E+00 
    5.6147069561638023E+00 
    9.0863789774353112E+00 
    7.5469658015050456E+00 
    1.3818416401378334E+01 
    1.0258678886982146E+01 
    1.0153906251424322E+01 
    1.4350081055134401E+01 
    9.6093865981676814E+00 
    3.7560176918312155E-01 
    1.4189616636913447E+01 
    1.4458587759344685E+01 
    1.5213626817808917E+01 
    6.8164727833814887E+00 
    1.4106514256727353E+01 
    1.5208232624285277E+01 
    1.0323482629436253E+01 
    1.0473627338856645E+01 
    7.3689725670992763E+00 
    1.0233483747149920E+01 
    3.3110126659687116E+00 
    9.0920317430411579E+00 
    1.0221997912382781E+01 
    1.5248229030114629E+01 
    1.5158987827686033E+01 
    1.4200164461671973E+01 
    7.7974971510385052E+00 
    1.4162264401450578E+01 
    7.8142369589830996E-01 
    1.0132085953353579E+01 
    1.4976842925686187E+01 
    1.4798986319097027E+01 
    1.4176387650312995E+01 
    1.1199854597533104E+01 
    1.4248034090001239E+01 
    9.2959272092396006E+00 
    8.8552757025264963E+00 
    1.0439380016062552E+01 
    1.0020918893939548E+01 
    9.1392031312184479E+00 
    1.0392189839998558E+01 
    1.3604974968007507E+01 
    1.2204872744939498E+01 
    7.8947267424109118E+00 
    1.4354255503324833E+01 
    1.4275838163441881E+01 
    9.8662469568848028E+00 
    9.8815512709836053E+00 
    9.7818761646557864E+00 
    1.5109754556569554E+01 
    1.5369496843185926E+01 
    9.0968566825601194E+00 
    1.0438481888238258E+01 
    1.4072340946482582E+01 
    1.2029780489453479E+01 
    9.9281530170867764E+00 
    1.5373481324268001E+01 
    1.4300987585251399E+01 
    8.9687923043016724E+00 
    1.4902427735891532E+01 
    1.0624600245531074E+01 
    1.4036582334532525E+01 
    1.5259261838428147E+01 
    1.0676929283255685E+01 
    6.5597892328888898E+00 
    1.0456911419319603E+01 
    1.5168142847194531E+01 
    1.5404056496800413E+01 
    9.1100014072389239E+00 
    1.0375311048638897E+01 
    1.5448790126980336E+01 
    1.0223939648786654E+01 
    9.6969860706996975E+00 
    1.2458899761603112E+01 
    6.2404850829006486E+00 
    8.8785540787288557E+00 
    1.0374475006816441E+01 
    1.0994046411049130E+01 
    1.6924126258280285E+01 
    7.6310285883877862E+00 
    1.0446550413761083E+01 
    1.4153977289456909E+01 
    1.4441154508411472E+01 
    6.7222430719202109E+00 
    1.0093918123509315E+01 
    1.0405008339146697E+01 
    1.4461684815521739E+01 
    1.0404140690217295E+01 
    1.4392904730513683E+01 
    4.0915520542889716E+00 
    6.8930429713757322E+00 
    1.0676766735384021E+01 
    1.4590224295858057E+01 
    9.0559862972510388E+00 
    9.6427600538263771E+00 
    1.0387253412586690E+01 
    9.6625604600454675E+00 
    1.1781380388836519E+01 
    9.3800972692984939E+00 
    8.9776479351233665E+00 
    7.1081499381865862E+00 
    1.2218255578887984E+01 
    1.0475726453042052E+01 
    1.5020971762184306E+01 
    9.0073037718472069E+00 
    9.8620811724504289E+00 
    1.4289152312035249E+01 
    8.2269540674490731E+00 
    1.4742648788596046E+01 
    1.0299812367800326E+01 
    9.7906131769831504E+00 
    1.4443146086379038E+01 
    1.0469084211658666E+01 
    1.5269880596774483E+01 
    1.2472284320551616E+01 
    1.3448270756871462E+01 
    1.5230523095382880E+01 
    7.6464646881792335E+00 
    1.0703576600177303E+01 
    1.4443304322219134E+01 
    3.0660120742245942E+00 
    1.0370817557367921E+01 
    1.5196595172586534E+01 
    9.8197812253026200E+00 
    1.1350650207102630E+01 
    6.7025295265830573E+00 
    1.4152005359733765E+01 
    1.7418523437668796E+01 
    1.2954474177269264E+01 
    9.8190990327655321E+00 
    8.7765764515101097E+00 
    1.1030840024930658E+01 
    1.0316653916074230E+01 
    7.1635365151065331E+00 
    1.5226639593495539E+01 
    1.4512860689890847E+01 
    1.4155676067113751E+01 
    1.0996912586416503E+01 
    8.9398454011280553E+00 
    1.0152027950107916E+01 
    1.4930605132173939E+01 
    9.1976211184631911E+00 
    1.0299047612516640E+01 
    9.3662464649664443E+00 
    1.1953445051206048E+01 
    1.7406600290530729E+01 
    1.4147159376312642E+01 
    8.9108141642814029E+00 
    1.4637098634013642E+01 
    1.4549261557459740E+01 
    1.4629824467986134E+01 
    1.5649661713880114E+01 
    1.6196503589190169E+01 
    1.4796424508740694E+01 
    1.0430232042845638E+01 
    1.1211791373254677E+01 
    1.4620783564816007E+01 
    1.5032848080863664E+01 
    7.4762882621939433E+00 
    1.4176053884788283E+01 
    1.4892137485891272E+01 
    7.2803951464668746E+00 
    1.5563975124280116E+01 
    1.5547916754518614E+01 
    1.3889306193659628E+01 
    1.0775660943602023E+01 
    2.6987307270758270E+00 
    1.5197709804564301E+01 
    1.0609106965338311E+01 
    1.5320860671083498E+01 
    9.7486682591047735E+00 
    1.5031985263579424E+01 
    9.6013418474743406E-01 
    1.3465715964549377E+01 
    9.9264835157951268E+00 
    8.8974175347125186E+00 
    8.6703567672183777E+00 
    1.0269466184461614E+01 
    1.1424494580912555E+01 
    1.0708085199114825E+01 
    7.2251208639317834E+00 
    1.5027544114787100E+01 
    1.4467391503595403E+01 
    1.2158972933712974E+01 
    1.0671214906610503E+01 
    1.5659428059383762E+00 
    7.9993281674609715E+00 
    5.5586824766410761E+00 
    1.5219067801241325E+01 
    1.1534180170100660E+01 
    1.4515219655669426E+01 
    1.4534488003887372E+01 
    9.2764673994771680E+00 
    1.2139785610201788E+01 
    1.4151137787632395E+01 
    1.5530475174899051E+01 
    6.6636454174421305E+00 
    1.2791509207139631E+01 
    1.0730507072608518E+01 
    5.9322009728163865E+00 
    9.2697372202219963E+00 
    1.2741476556399590E+01 
    1.4495850401685709E+01 
    1.0323110806852563E+01 
    1.4607409344030808E+01 
    1.4370422062252565E+01 
    1.4318747786294649E+01 
    1.0157991475062477E+01 
    8.8325987899420539E+00 
    1.4163666298540987E+01 
    8.9637905051851785E+00 
    1.0409347145766572E+01 
    8.7859219562706592E+00 
    1.0244305018867253E+01 
    1.4543721783713840E+01 
    6.4835671230586991E+00 
    9.1760797989534808E+00 
    1.5132123527561181E+01 
    1.0169749777948763E+01 
    1.1429918395965759E+01 
    6.6520581953777409E+00 
    9.0283291677285167E+00 
    1.4348218751443772E+01 
    1.4663798978112517E+01 
    5.4260503564728504E+00 
    1.0175950259308186E+01 
    8.8311555721563426E+00 
    1.5959577512869513E+01 
    1.5412427225304453E+01 
    1.6224051943262843E+01 
    1.0196049935436768E+01 
    1.4516546756771310E+01 
    1.4107059521663363E+01 
    1.0066714305632322E+01 
    1.4156085589837547E+01 
    1.0670724773800776E+01 
    6.0184963433553911E+00 
    1.0445473279790018E+01 
    1.5118041868650621E+01 
    1.4152846415204319E+01 
    7.0521066510259116E+00 
    1.4183144930623405E+01 
    1.1437030501972668E+01 
    1.0350887559535117E+01 
    9.8954135720189846E+00 
    1.4016835072831970E+01 
    1.0875609190099395E+01 
    1.4169141326114627E+01 
    1.0065589584812310E+01 
    6.2406552210795798E+00 
    1.0479755920669579E+01 
    8.6804246073471134E+00 
    1.2957854149788846E+01 
    1.5318752186492320E+01 
    1.4161903484672857E+01 
    1.5190172105377556E+01 
    1.0117233697860307E+01 
    6.8685349985682773E+00 
    6.9656851730703275E+00 
    1.0536230781365065E+01 
    1.0385107027970156E+01 
    1.4936704809025574E+00 
    1.3654830447627560E+01 
    1.5680712856870644E+01 
    9.7629796381480070E+00 
    6.2596669461354884E+00 
    1.1906934388978833E+01 
    1.4181694448557495E+01 
    7.3987249382421822E+00 
    5.0299039201930231E+00 
    1.0363091400490411E+01 
    1.4263150117899375E+01 
    1.4930541366845492E+01 
    1.4818054692024772E+01 
    1.4667312663642690E+01 
    7.2431742674199286E+00 
    1.0345163269924630E+01 
    1.3695915592361892E+01 
    8.1532741704655791E+00 
    1.4476984253800028E+01 
    1.2395437342774613E+01 
    7.0710141488856157E+00 
    1.4292117128380827E+01 
    1.5218767232617216E+01 
    1.4312290282645627E+01 
    7.1234967632602046E+00 
    1.0434684120488438E+01 
    7.8261833240864194E+00 
    9.8533795828749202E+00 
    1.4172917012977114E+01 
    1.4160793658109393E+01 
    7.1649346188318628E+00 
    1.5071985238095152E+01 
    1.0991229159390393E+01 
    1.4193931486436224E+01 
    1.5040155411258770E+01 
    1.4180823608898208E+01 
    1.3206540146247512E+01 
    1.6015211188199963E+01 
    9.7161152483469273E+00 
    1.5158949085388771E+01 
    1.4221848602336062E+01 
    1.5232848492770993E+01 
    1.5064877101698762E+01 
    9.8185585234617800E+00 
    1.0262303555605088E+01 
    9.7533497723280380E+00 
    1.2696159610495666E+01 
    4.1051665765131489E+00 
    1.0472081477485480E+01 
    1.6142269342843072E+01 
    1.0672063342245375E+01 
    1.0864470007015530E+01 
    1.5205531543777649E+01 
    1.5439610108555367E+01 
    9.6418825017492242E+00 
    1.4187618772951698E+01 
    1.4156804505081345E+01 
    1.0851779689815256E+01 
    1.5019111205312502E+01 
    7.4268932603701208E+00 
    4.7280016217829468E+00 
    1.1139583626194399E+01 
    1.0687942345798211E+01 
    1.4163023708388824E+01 
    6.7022003011372222E+00 
    1.4731661747161745E+01 
    4.8127832790696230E+00 
    1.0617612667116859E+01 
    9.8493258466139473E+00 
    1.0411435680323384E+01 
    1.7458202414674957E+01 
    3.9868972748495835E+00 
    1.0388417743471253E+01 
    1.2425109893585393E+01 
    1.0018136646510568E+01 
    7.9280277371752224E+00 
    1.4846604965679482E+01 
    1.7012571196037467E+01 
    1.4999787080478701E+01 
    1.0327590798240770E+01 
    5.8949514646942101E+00 
    1.6863755147810490E+01 
    1.4456617898698431E+01 
    7.6090128112212332E+00 
    9.9707015889328527E+00 
    1.5632933320954178E+01 
    3.3923374068022016E+00 
    1.0738742051987364E+01 
    1.4968351681974383E+01 
    1.0424876954967637E+01 
    9.0924021007471865E+00 
    1.0428720793455243E+01 
    1.3921728217638670E+01 
    1.0406302566080157E+01 
    5.2451909710162887E+00 
    9.3282794058934160E-01 
    7.7833581737609716E+00 
    1.5855386310632403E+01 
    9.7528480779895936E+00 
    1.1742500372246548E+01 
    1.1183646742303551E+01 
    1.3023371986695238E+01 
    1.0438162658579598E+01 
    1.4363731081861101E+01 
    1.7472614650101356E+01 
    1.2363915088778592E+01 
    1.5131039526085482E+01 
    5.5833402597389703E-01 
    1.4162875883228846E+01 
    5.8225485946764772E+00 
    1.6312949557714937E+01 
    1.0402222018647654E+01 
    9.2473430741387830E+00 
    7.9819457046323832E+00 
    5.5021214776335281E+00 
    1.1665475857407243E+01 
    8.2432550840879557E+00 
    1.2848831392697729E+01 
    2.2632199051366371E+00 
    1.1472401961237601E+01 
    1.4093864667760291E+01 
    6.3252634701407624E+00 
    1.4662607508308882E+01 
    1.6111253196302705E+01 
    1.4497789015149742E+01 
    1.0265156790819754E+01 
    1.0406096202020649E+01 
    1.0394859015244462E+01 
    5.9616262319503850E+00 
    9.4790361167326989E+00 
    9.3181890114405324E+00 
    1.0383725518929033E+01 
    9.6817396335285668E+00 
    7.0695470851737496E-01 
    6.6980043199451451E+00 
    1.0090046771082408E+01 
    1.0358227619184714E+01 
    1.3205395320577171E+01 
    2.2317568150005362E+00 
    1.0810553193898595E+01 
    1.0692272116393891E+01 
    3.8365063331527143E+00 
    1.4354050383579711E+01 
    8.9843625397470515E+00 
    1.0543666062764617E+01 
    1.4453094451977327E+01 
    5.5243563390275234E+00 
    1.4481102092861100E+01 
    9.1028608896262995E+00 
    1.0228538153936237E+00 
    9.8167199472503697E+00 
    1.5084115233343830E+01 
    1.4162683651465596E+01 
    1.4181280035628099E+01 
    1.0743178464485277E+01 
    1.0620238519556796E+01 
    8.9621192546131372E+00 
    7.2700939931003985E+00 
    1.4565111983332018E+01 
    9.9675759897745699E+00 
    7.0774003445292690E+00 
    1.4177024416936094E+01 
    1.4887785978582730E+01 
    1.0561395865797248E+01 
    1.0216145417155193E+01 
    1.7350595804932862E+01 
    1.0852667084192699E+01 
    1.4583254669409611E+01 
    8.5147621826545894E+00 
    1.7501291173322453E+01 
    6.9251574725874150E+00 
    9.3822436637376629E+00 
    7.7573744431520879E+00 
    1.1087985704801168E+01 
    8.8789679956625172E+00 
    1.7484671676329768E+01 
    1.0901614228863190E+01 
    1.3857134524354271E+01 
    7.1223889697035139E+00 
    1.0434461488920691E+01 
    1.4422150106738304E+01 
    8.9148771576581272E+00 
    7.5425206593749481E+00 
    1.1554749372029118E+01 
    1.4650915442284232E+01 
    7.6356391088839999E+00 
    9.8704811865665274E+00 
    1.0246382986933405E+01 
    1.4137631423327996E+01 
    1.0044363514778999E+01 
    1.4627679487327363E+01 
    1.5262239123693181E+01 
    8.9906131407231697E+00 
    8.8091588328830319E+00 
    8.2735539052203038E+00 
    1.4282704776573683E+01 
    1.0698211254184184E+01 
    1.7052048376313273E+01 
    1.3386265049529127E+01 
    1.4380444576247241E+01 
    1.6736108238658904E+01 
    1.6118181869649142E+01 
    1.0480825827814947E+01 
    1.0368330644220073E+01 
    1.3921441431368127E+01 
    1.4201764361840027E+01 
    1.4741584417714895E+01 
    1.4477528313705402E+01 
    1.7371983221738532E+01 
    1.0852194495971847E+01 
    9.0945097958921490E+00 
    1.0847240567020732E+01 
    1.5173969769251883E+01 
    1.0580910346752809E+01 
    6.1768394266510294E+00 
    1.0248771964040300E+01 
    1.5600405661609292E+01 
    1.0729139474292468E+01 
    9.1056941085653840E+00 
    1.0187848949311917E+01 
    1.5712446129784926E+01 
    1.4220429817110640E+01 
    8.6475259612460462E+00 
    1.5850587944772821E+01 
    1.0509902545239436E+01 
    1.4733771515734967E+01 
    1.5725452997992175E+01 
    1.1043128718573975E+01 
    5.5305191187599254E+00 
    1.1501437446150245E+01 
    5.7246281999263378E+00 
    1.0638372426164970E+01 
    1.0426847208805087E+01 
    1.2118254104833841E+01 
    6.0527960578574769E+00 
    1.2864193560695277E+01 
    1.0446452379148337E+01 
    1.4467472423330419E+01 
    1.1048865995543210E+01 
    8.4670825303586223E+00 
    1.0061282518053973E+01 
    1.0903349368806369E+01 
    1.0958663728314246E+01 
    1.5310254675506528E+01 
    8.6847881930354394E+00 
    8.5350195031031806E+00 
    6.3673675021819323E+00 
    1.4768478669300691E+01 
    1.0102842850583174E+01 
    1.4007485436844039E+01 
    1.0397436415148432E+01 
    6.9664335361657415E+00 
    1.4249692310141356E+01 
    1.0373115671748163E+01 
    7.5950451849313065E+00 
    8.0456273859750880E+00 
    8.3311135081917751E+00 
    1.4498518670743088E+01 
    1.0385743255429023E+01 
    1.5142961722634995E+01 
    1.0332238003916823E+01 
    1.0270852367594658E+01 
    9.7876138431510373E+00 
    1.4334638566141637E+01 
    1.0188120601541456E+01 
    8.3728958982273092E+00 
    1.6106363343304711E+01 
    1.4417033347018906E+01 
    7.2551502834043369E+00 
    2.8154999185355716E+00 
    1.0375124152518488E+01 
    9.7818445282548154E+00 
    8.8005376721900745E+00 
    9.5867376718412647E+00 
    1.4372192361910120E+01 
    1.0078148441034768E+01 
    9.1510038341023314E+00 
    1.4224089564536813E+01 
    7.1908520691365689E+00 
    1.3880561384991594E+01 
    9.4468734316194514E+00 
    8.3269671558496157E+00 
    8.8866130646620576E+00 
    1.4820269515502693E+01 
    1.0414324120319732E+01 
    1.0422411097118468E+01 
    6.1334335329916074E+00 
    6.6319570270617030E+00 
    1.3200535099375092E+01 
    1.0432184266659272E+01 
    1.0415557347125398E+01 
    1.5836433579182708E+01 
    8.5376124875357426E+00 
    1.0444454122369086E+01 
    7.4370071897665850E+00 
    7.6713394010249516E+00 
    1.4328418030786063E+01 
    1.0074405502139893E+01 
    7.3149791541240710E+00 
    1.1006053973640261E+01 
    1.0320243352825756E+01 
    1.4331124471227472E+01 
    1.5930546685550592E+01 
    1.0756240160077410E+00 
    1.0380088054085851E+01 
    1.0685811956631364E+01 
    1.4396535238931850E+01 
    9.8910455884042214E+00 
    1.0388079203181332E+01 
    1.5364830352765322E+01 
    8.9237850555405540E+00 
    7.3810208996423317E+00 
    1.2592241844389175E+01 
    1.4176752392877184E+01 
    1.5231105664091494E+01 
    1.5505562353916828E+01 
    1.0220214466111223E+01 
    1.0371454973413435E+01 
    1.1732923519927146E+01 
    6.8939212015692917E+00 
    1.4308627515079868E+01 
    7.9543852892194815E+00 
    7.1795639119404742E+00 
    1.3082530162159376E+01 
    1.2314791610519212E+01 
    7.0409809897168696E+00 
    1.4213273402944496E+01 
    1.5216991518893945E+01 
    1.0868291590622375E+01 
    1.6033869264906734E+01 
    1.4247412025777898E+01 
    9.9538992462125933E+00 
    1.4950249173256221E+01 
    7.6750877968761850E+00 
    1.4196024280473186E+01 
    1.0378989681272380E+01 
    1.0340287956607680E+01 
    1.6009272408239010E+01 
    1.0137752721577680E+01 
    1.2803724576171907E+01 
    8.8708139593625077E+00 
    1.5337372732797860E+01 
    1.4100213491871596E+01 
    9.2568479275340323E+00 
    1.4151731136698361E+01 
    9.4701456177137242E+00 
    1.0396969659871900E+01 
    1.5175741660468759E+01 
    1.4472833835203641E+01 
    1.5220186686971569E+01 
    1.4399832307864884E+01 
    9.4844370677125287E+00 
    9.7054666014492614E+00 
    1.5227381711757726E+01 
    9.8338749680955075E+00 
    1.4029045142660543E+01 
    1.0126237049494275E+01 
    4.1358425850047222E+00 
    7.2543184034853647E+00 
    6.7193421187313884E+00 
    1.5179439805649452E+01 
    1.5937210612348515E+01 
    1.4170170958893051E+01 
    1.2014663750109360E+01 
    1.4466588175607832E+01 
    1.4221628225601281E+01 
    1.4821369009925236E+01 
    5.9258920640070425E+00 
    3.8554047898033956E+00 
    1.1802330062131555E+01 
    1.0053253162298770E+01 
    1.4373798061875064E+01 
    1.4371216372904847E+01 
    1.0711811358197329E+01 
    1.4409423168350493E+01 
    1.0365709495007593E+01 
    1.0294836037028842E+01 
    5.3493568070892481E+00 
    3.8420663603520793E+00 
    1.5708760697608906E+01 
    8.1471896474105918E+00 
    9.1974359903532612E+00 
    1.0594938122616263E+01 
    1.7352574286642692E+01 
    1.0695691023829209E+01 
    1.0714636195604033E+01 
    4.3726681461580466E+00 
    1.0697445833169699E+01 
    1.0712577109101796E+01 
    1.4698497820996062E+01 
    8.8930281226898167E+00 
    9.9723841474568715E+00 
    1.5880052369672665E+01 
    1.0388502822680183E+01 
    1.4186294113287790E+01 
    1.4448758869934936E+01 
    1.2811355558902259E+01 
    8.8513396504388453E+00 
    1.4399397612347419E+01 
    1.0183766236275527E+01 
    1.4373614272468798E+01 
    1.4123623803268481E+01 
    1.5198990409493216E+01 
    1.4397713689321813E+01 
    1.3508180138454048E+01 
    1.0377043112754805E+01 
    6.9873597794717979E+00 
    1.7223966436648634E+01 
    8.1166741422541016E+00 
    1.5127414538219528E+01 
    1.0374448873039901E+01 
    8.5832582309031551E+00 
    5.1513706567425324E+00 
    1.0751354129276361E+01 
    1.4385933746187892E+01 
    1.4382284237155197E+01 
    1.0377768221155288E+01 
    1.0368613946970095E+01 
    1.6090228367017623E+01 
    1.5447635618290860E+01 
    1.0714635236917815E+01 
    3.5871234510916117E+00 
    1.3450830668217190E+01 
    1.7482038020008911E+01 
    1.0380358697736566E+01 
    1.2403338735837069E+01 
    9.8896184763678026E+00 
    1.7078536104197539E+01 
    1.5528700923832709E+01 
    1.5260839456363213E+01 
    1.0736820305219194E+01 
    4.8044519301245456E+00 
    9.8460514187459793E+00 
    9.9146901149829834E+00 
    9.9555007637546691E+00 
    3.9065757986225447E+00 