# vtk DataFile Version 2.0
Pressure Field Data 
ASCII 
DATASET UNSTRUCTURED_GRID 

POINTS 2860 double 

    0.0000000000000000E+00     0.0000000000000000E+00     0.0000000000000000E+00 
    1.0000000000000000E+00     0.0000000000000000E+00     0.0000000000000000E+00 
    1.0000000000000000E+00     1.0000000000000000E+00     0.0000000000000000E+00 
    0.0000000000000000E+00     1.0000000000000000E+00     0.0000000000000000E+00 
    2.5000000000000000E-01     2.5000000000000000E-01     0.0000000000000000E+00 
    7.5000000000000000E-01     2.5000000000000000E-01     0.0000000000000000E+00 
    7.5000000000000000E-01     7.5000000000000000E-01     0.0000000000000000E+00 
    2.5000000000000000E-01     7.5000000000000000E-01     0.0000000000000000E+00 
    3.1249999999942091E-02     0.0000000000000000E+00     0.0000000000000000E+00 
    6.2499999999873469E-02     0.0000000000000000E+00     0.0000000000000000E+00 
    9.3749999999826514E-02     0.0000000000000000E+00     0.0000000000000000E+00 
    1.2499999999977961E-01     0.0000000000000000E+00     0.0000000000000000E+00 
    1.5624999999968961E-01     0.0000000000000000E+00     0.0000000000000000E+00 
    1.8749999999959971E-01     0.0000000000000000E+00     0.0000000000000000E+00 
    2.1874999999950970E-01     0.0000000000000000E+00     0.0000000000000000E+00 
    2.4999999999941969E-01     0.0000000000000000E+00     0.0000000000000000E+00 
    2.8124999999932920E-01     0.0000000000000000E+00     0.0000000000000000E+00 
    3.1249999999923850E-01     0.0000000000000000E+00     0.0000000000000000E+00 
    3.4374999999914790E-01     0.0000000000000000E+00     0.0000000000000000E+00 
    3.7499999999905720E-01     0.0000000000000000E+00     0.0000000000000000E+00 
    4.0624999999896660E-01     0.0000000000000000E+00     0.0000000000000000E+00 
    4.3749999999887590E-01     0.0000000000000000E+00     0.0000000000000000E+00 
    4.6874999999878530E-01     0.0000000000000000E+00     0.0000000000000000E+00 
    4.9999999999869471E-01     0.0000000000000000E+00     0.0000000000000000E+00 
    5.3124999999877620E-01     0.0000000000000000E+00     0.0000000000000000E+00 
    5.6249999999885780E-01     0.0000000000000000E+00     0.0000000000000000E+00 
    5.9374999999893940E-01     0.0000000000000000E+00     0.0000000000000000E+00 
    6.2499999999902101E-01     0.0000000000000000E+00     0.0000000000000000E+00 
    6.5624999999910261E-01     0.0000000000000000E+00     0.0000000000000000E+00 
    6.8749999999918421E-01     0.0000000000000000E+00     0.0000000000000000E+00 
    7.1874999999926570E-01     0.0000000000000000E+00     0.0000000000000000E+00 
    7.4999999999934730E-01     0.0000000000000000E+00     0.0000000000000000E+00 
    7.8124999999942890E-01     0.0000000000000000E+00     0.0000000000000000E+00 
    8.1249999999951039E-01     0.0000000000000000E+00     0.0000000000000000E+00 
    8.4374999999959199E-01     0.0000000000000000E+00     0.0000000000000000E+00 
    8.7499999999967359E-01     0.0000000000000000E+00     0.0000000000000000E+00 
    9.0624999999975520E-01     0.0000000000000000E+00     0.0000000000000000E+00 
    9.3749999999983680E-01     0.0000000000000000E+00     0.0000000000000000E+00 
    9.6874999999991840E-01     0.0000000000000000E+00     0.0000000000000000E+00 
    1.0000000000000000E+00     3.1249999999942091E-02     0.0000000000000000E+00 
    1.0000000000000000E+00     6.2499999999873469E-02     0.0000000000000000E+00 
    1.0000000000000000E+00     9.3749999999826514E-02     0.0000000000000000E+00 
    1.0000000000000000E+00     1.2499999999977961E-01     0.0000000000000000E+00 
    1.0000000000000000E+00     1.5624999999968961E-01     0.0000000000000000E+00 
    1.0000000000000000E+00     1.8749999999959971E-01     0.0000000000000000E+00 
    1.0000000000000000E+00     2.1874999999950970E-01     0.0000000000000000E+00 
    1.0000000000000000E+00     2.4999999999941969E-01     0.0000000000000000E+00 
    1.0000000000000000E+00     2.8124999999932920E-01     0.0000000000000000E+00 
    1.0000000000000000E+00     3.1249999999923850E-01     0.0000000000000000E+00 
    1.0000000000000000E+00     3.4374999999914790E-01     0.0000000000000000E+00 
    1.0000000000000000E+00     3.7499999999905720E-01     0.0000000000000000E+00 
    1.0000000000000000E+00     4.0624999999896660E-01     0.0000000000000000E+00 
    1.0000000000000000E+00     4.3749999999887590E-01     0.0000000000000000E+00 
    1.0000000000000000E+00     4.6874999999878530E-01     0.0000000000000000E+00 
    1.0000000000000000E+00     4.9999999999869471E-01     0.0000000000000000E+00 
    1.0000000000000000E+00     5.3124999999877620E-01     0.0000000000000000E+00 
    1.0000000000000000E+00     5.6249999999885780E-01     0.0000000000000000E+00 
    1.0000000000000000E+00     5.9374999999893940E-01     0.0000000000000000E+00 
    1.0000000000000000E+00     6.2499999999902101E-01     0.0000000000000000E+00 
    1.0000000000000000E+00     6.5624999999910261E-01     0.0000000000000000E+00 
    1.0000000000000000E+00     6.8749999999918421E-01     0.0000000000000000E+00 
    1.0000000000000000E+00     7.1874999999926570E-01     0.0000000000000000E+00 
    1.0000000000000000E+00     7.4999999999934730E-01     0.0000000000000000E+00 
    1.0000000000000000E+00     7.8124999999942890E-01     0.0000000000000000E+00 
    1.0000000000000000E+00     8.1249999999951039E-01     0.0000000000000000E+00 
    1.0000000000000000E+00     8.4374999999959199E-01     0.0000000000000000E+00 
    1.0000000000000000E+00     8.7499999999967359E-01     0.0000000000000000E+00 
    1.0000000000000000E+00     9.0624999999975520E-01     0.0000000000000000E+00 
    1.0000000000000000E+00     9.3749999999983680E-01     0.0000000000000000E+00 
    1.0000000000000000E+00     9.6874999999991840E-01     0.0000000000000000E+00 
    9.6875000000003686E-01     1.0000000000000000E+00     0.0000000000000000E+00 
    9.3750000000011691E-01     1.0000000000000000E+00     0.0000000000000000E+00 
    9.0625000000015765E-01     1.0000000000000000E+00     0.0000000000000000E+00 
    8.7500000000017863E-01     1.0000000000000000E+00     0.0000000000000000E+00 
    8.4375000000028044E-01     1.0000000000000000E+00     0.0000000000000000E+00 
    8.1250000000040856E-01     1.0000000000000000E+00     0.0000000000000000E+00 
    7.8125000000054956E-01     1.0000000000000000E+00     0.0000000000000000E+00 
    7.5000000000066480E-01     1.0000000000000000E+00     0.0000000000000000E+00 
    7.1875000000086831E-01     1.0000000000000000E+00     0.0000000000000000E+00 
    6.8750000000102829E-01     1.0000000000000000E+00     0.0000000000000000E+00 
    6.5625000000114431E-01     1.0000000000000000E+00     0.0000000000000000E+00 
    6.2500000000129829E-01     1.0000000000000000E+00     0.0000000000000000E+00 
    5.9375000000147926E-01     1.0000000000000000E+00     0.0000000000000000E+00 
    5.6250000000168354E-01     1.0000000000000000E+00     0.0000000000000000E+00 
    5.3125000000188671E-01     1.0000000000000000E+00     0.0000000000000000E+00 
    5.0000000000205835E-01     1.0000000000000000E+00     0.0000000000000000E+00 
    4.6875000000192979E-01     1.0000000000000000E+00     0.0000000000000000E+00 
    4.3750000000180111E-01     1.0000000000000000E+00     0.0000000000000000E+00 
    4.0625000000167238E-01     1.0000000000000000E+00     0.0000000000000000E+00 
    3.7500000000154382E-01     1.0000000000000000E+00     0.0000000000000000E+00 
    3.4375000000141509E-01     1.0000000000000000E+00     0.0000000000000000E+00 
    3.1250000000128642E-01     1.0000000000000000E+00     0.0000000000000000E+00 
    2.8125000000115769E-01     1.0000000000000000E+00     0.0000000000000000E+00 
    2.5000000000102918E-01     1.0000000000000000E+00     0.0000000000000000E+00 
    2.1875000000090050E-01     1.0000000000000000E+00     0.0000000000000000E+00 
    1.8750000000077180E-01     1.0000000000000000E+00     0.0000000000000000E+00 
    1.5625000000064329E-01     1.0000000000000000E+00     0.0000000000000000E+00 
    1.2500000000051459E-01     1.0000000000000000E+00     0.0000000000000000E+00 
    9.3750000000385914E-02     1.0000000000000000E+00     0.0000000000000000E+00 
    6.2500000000257239E-02     1.0000000000000000E+00     0.0000000000000000E+00 
    3.1250000000128557E-02     1.0000000000000000E+00     0.0000000000000000E+00 
    0.0000000000000000E+00     9.6875000000003686E-01     0.0000000000000000E+00 
    0.0000000000000000E+00     9.3750000000011691E-01     0.0000000000000000E+00 
    0.0000000000000000E+00     9.0625000000015765E-01     0.0000000000000000E+00 
    0.0000000000000000E+00     8.7500000000017863E-01     0.0000000000000000E+00 
    0.0000000000000000E+00     8.4375000000028044E-01     0.0000000000000000E+00 
    0.0000000000000000E+00     8.1250000000040856E-01     0.0000000000000000E+00 
    0.0000000000000000E+00     7.8125000000054956E-01     0.0000000000000000E+00 
    0.0000000000000000E+00     7.5000000000066480E-01     0.0000000000000000E+00 
    0.0000000000000000E+00     7.1875000000086831E-01     0.0000000000000000E+00 
    0.0000000000000000E+00     6.8750000000102829E-01     0.0000000000000000E+00 
    0.0000000000000000E+00     6.5625000000114431E-01     0.0000000000000000E+00 
    0.0000000000000000E+00     6.2500000000129829E-01     0.0000000000000000E+00 
    0.0000000000000000E+00     5.9375000000147926E-01     0.0000000000000000E+00 
    0.0000000000000000E+00     5.6250000000168354E-01     0.0000000000000000E+00 
    0.0000000000000000E+00     5.3125000000188671E-01     0.0000000000000000E+00 
    0.0000000000000000E+00     5.0000000000205835E-01     0.0000000000000000E+00 
    0.0000000000000000E+00     4.6875000000192979E-01     0.0000000000000000E+00 
    0.0000000000000000E+00     4.3750000000180111E-01     0.0000000000000000E+00 
    0.0000000000000000E+00     4.0625000000167238E-01     0.0000000000000000E+00 
[...]
CELL_DATA 2795 
SCALARS Pressure double 1 
LOOKUP_TABLE default 

    6.5052451140579084E+00 
    1.4813555078334234E+01 
    1.0434180787059141E+01 
    1.0046886733576587E+01 
    7.9900210719464049E+00 
    1.4676125848191571E+01 
    1.5420107258733864E+01 
    5.8156072846585802E+00 
    1.0990698460104506E+01 
    8.4384465981670704E+00 
    7.2054877115426121E+00 
    1.4412386473319042E+01 
    1.4721224506196094E+01 
    1.4644323906377934E+01 
    9.6378300896460303E+00 
    5.7204497539137460E+00 
    9.2410571388839848E+00 
    7.6698299112669011E+00 
    1.4037910847091611E+01 
    1.0421523624694977E+01 
    1.0316893096225952E+01 
    1.4577466436138415E+01 
    9.7714186059108084E+00 
    3.8247547193781506E-01 
    1.4415745517985103E+01 
    1.4688694940686842E+01 
    1.5451779086283334E+01 
    6.9300022440808471E+00 
    1.4330548507272752E+01 
    1.5446073658293969E+01 
    1.0491447331815557E+01 
    1.0635208518371645E+01 
    7.4942644557349416E+00 
    1.0396937351165121E+01 
    3.3709470483764346E+00 
    9.2467420786835675E+00 
    1.0385202743900306E+01 
    1.5486400655078047E+01 
    1.5396547327077171E+01 
    1.4425498089907341E+01 
    7.9392164287492895E+00 
    1.4388807422711434E+01 
    7.9557052482284230E-01 
    1.0300194812076045E+01 
    1.5213197996545688E+01 
    1.5030331555462746E+01 
    1.4401435068590802E+01 
    1.1369083770864769E+01 
    1.4473158499371996E+01 
    9.4532912097079205E+00 
    9.0069236132480874E+00 
    1.0601091972156730E+01 
    1.0188743672150954E+01 
    9.2949430237997799E+00 
    1.0560511872870450E+01 
    1.3821185927618307E+01 
    1.2381331995384473E+01 
    8.0331026423011362E+00 
    1.4581769978185953E+01 
    1.4502135705010252E+01 
    1.0029682729922635E+01 
    1.0039963666075929E+01 
    9.9462837651019864E+00 
    1.5346601137065056E+01 
    1.5609545741758749E+01 
    9.2518244491937711E+00 
    1.0600089305933453E+01 
    1.4291907059099559E+01 
    1.2216524145370828E+01 
    1.0087745801895283E+01 
    1.5613018888447355E+01 
    1.4529380457128866E+01 
    9.1218968030584389E+00 
    1.5136001274371495E+01 
    1.0794537397743733E+01 
    1.4260869741658082E+01 
    1.5497597789647845E+01 
    1.0853435920490643E+01 
    6.6929727534716106E+00 
    1.0618415403493586E+01 
    1.5405846387814046E+01 
    1.5643643165004800E+01 
    9.2653886247764916E+00 
    1.0537570441939708E+01 
    1.5689076734878062E+01 
    1.0386882154223725E+01 
    9.8602272830472710E+00 
    1.2653698033494319E+01 
    6.3626151327599612E+00 
    9.0304416503972842E+00 
    1.0536589843395998E+01 
    1.1156565091272345E+01 
    1.7173857384145073E+01 
    7.7657203009153548E+00 
    1.0608077040227505E+01 
    1.4378729451070331E+01 
    1.4671562960094926E+01 
    6.8448990368038052E+00 
    1.0256104156053512E+01 
    1.0567292926652284E+01 
    1.4692392114992739E+01 
    1.0565811690985814E+01 
    1.4622625346476664E+01 
    4.1681541652105452E+00 
    7.0067148375276309E+00 
    1.0832912464600607E+01 
    1.4821729704336839E+01 
    9.2103119245088401E+00 
    9.8032597571150273E+00 
    1.0548492352576602E+01 
    9.8252945520717567E+00 
    1.1953795824272255E+01 
    9.5375591824969792E+00 
    9.1309317915298642E+00 
    7.2458568434935833E+00 
    1.2417600247032210E+01 
    1.0637675699230375E+01 
    1.5256877530864482E+01 
    9.1501021627997368E+00 
    1.0027329051125447E+01 
    1.4517425070317003E+01 
    8.3722944768115450E+00 
    1.4976210392883553E+01 
    1.0462462088132529E+01 
    9.9551417326772196E+00 
    1.4673602700770161E+01 
    1.0630704742645182E+01 
    1.5508563479774843E+01 
    1.2667732929305252E+01 
    1.3661393771605725E+01 
    1.5468840753776682E+01 
    7.7813763421440392E+00 
    1.0860622185096130E+01 
    1.4673470253635280E+01 
    3.1225440035768366E+00 
    1.0539002453844287E+01 
    1.5434556820732237E+01 
    9.9845042357009355E+00 
    1.1537285350836214E+01 
    6.8343575502581961E+00 
    1.4376698041617798E+01 
    1.7670311478545255E+01 
    1.3158422356861896E+01 
    9.9840135950176379E+00 
    8.9272504216780035E+00 
    1.1201450098273011E+01 
    1.0479299550095902E+01 
    7.2812876598138905E+00 
    1.5464944598792703E+01 
    1.4737082295669111E+01 
    1.4380449813408434E+01 
    1.1163210928204094E+01 
    9.0930132898745946E+00 
    1.0314874206634213E+01 
    1.5164713263520934E+01 
    9.3539145877172842E+00 
    1.0469811599651509E+01 
    9.5248737187995776E+00 
    1.2148959182769186E+01 
    1.7658337172336044E+01 
    1.4371810845064154E+01 
    9.0703766221087978E+00 
    1.4869881883784082E+01 
    1.4780360977025556E+01 
    1.4861763675237844E+01 
    1.5891558521574254E+01 
    1.6442274750165041E+01 
    1.5027487774607112E+01 
    1.0591846912438776E+01 
    1.1394433628232164E+01 
    1.4850381079534163E+01 
    1.5268984856039214E+01 
    7.5985338017601958E+00 
    1.4401089825039637E+01 
    1.5125922203940991E+01 
    7.3997287122344275E+00 
    1.5805824576598329E+01 
    1.5788869693904159E+01 
    1.4109802760073244E+01 
    1.0935312691638373E+01 
    2.7485539849161476E+00 
    1.5435738507917687E+01 
    1.0766758626451857E+01 
    1.5559927954186696E+01 
    9.9124490281664102E+00 
    1.5268007273609200E+01 
    9.7824208882635966E-01 
    1.3678622159609679E+01 
    1.0085216742957853E+01 
    9.0495071765525807E+00 
    8.8195039579095074E+00 
    1.0432001262837016E+01 
    1.1590201401449837E+01 
    1.0885870748100899E+01 
    7.3687473162312118E+00 
    1.5263537074380100E+01 
    1.4697704793252015E+01 
    1.2347311212102003E+01 
    1.0827046248468610E+01 
    1.5943935882867222E+00 
    8.1391058509306013E+00 
    5.6662990021239379E+00 
    1.5456918269015688E+01 
    1.1696680236639731E+01 
    1.4744111876845452E+01 
    1.4765620439518862E+01 
    9.4338720462171732E+00 
    1.2303721657915625E+01 
    1.4375795314733761E+01 
    1.5771344966327797E+01 
    6.7906115206755944E+00 
    1.2998595936479822E+01 
    1.0905191802929895E+01 
    6.0476056182201514E+00 
    9.4269954068575039E+00 
    1.2928189620993049E+01 
    1.4726504890873063E+01 
    1.0485426963320656E+01 
    1.4839192678759515E+01 
    1.4599726088723408E+01 
    1.4547386366919387E+01 
    1.0320723639912623E+01 
    8.9832884452844830E+00 
    1.4388530818933168E+01 
    9.1169898693612978E+00 
    1.0571251130541471E+01 
    8.9365709882187723E+00 
    1.0415192655008534E+01 
    1.4775010378702390E+01 
    6.5910712574238035E+00 
    9.3320329360579848E+00 
    1.5369359338152057E+01 
    1.0332213275631830E+01 
    1.1593870535386513E+01 
    6.7622198538009481E+00 
    9.1822348009810835E+00 
    1.4577267855594982E+01 
    1.4896153962121481E+01 
    5.5175319721973484E+00 
    1.0338908215841650E+01 
    8.9842057820333281E+00 
    1.6203874705363464E+01 
    1.5652151462184740E+01 
    1.6470138435882173E+01 
    1.0358990260880564E+01 
    1.4747451435027894E+01 
    1.4330905228248566E+01 
    1.0228441331292009E+01 
    1.4380864444446647E+01 
    1.0826691732433373E+01 
    6.1386818717367744E+00 
    1.0615145655157209E+01 
    1.5354942964369576E+01 
    1.4377579973909874E+01 
    7.1684260100271278E+00 
    1.4408285444507500E+01 
    1.1604431038628144E+01 
    1.0518825004412152E+01 
    1.0060580669554412E+01 
    1.4239516738493219E+01 
    1.1044970944433656E+01 
    1.4394078976521920E+01 
    1.0232473886751279E+01 
    6.3675682831581408E+00 
    1.0642020298572474E+01 
    8.8300221076087215E+00 
    1.3162344724848404E+01 
    1.5557922767901708E+01 
    1.4386738815145645E+01 
    1.5428097477861794E+01 
    1.0279163462068373E+01 
    6.9821008603470851E+00 
    7.0805540440592045E+00 
    1.0705636544967261E+01 
    1.0546723907566991E+01 
    1.5217836319286837E+00 
    1.3871292007728634E+01 
    1.5923207613193513E+01 
    9.9270690285344898E+00 
    6.3797839854998086E+00 
    1.2100715970124082E+01 
    1.4406790542925028E+01 
    7.5307245581801983E+00 
    5.1244554831898759E+00 
    1.0525204058277474E+01 
    1.4487506028934604E+01 
    1.5165552610914972E+01 
    1.5051154415774118E+01 
    1.4899609886993144E+01 
    7.3786085712774705E+00 
    1.0513202888251197E+01 
    1.3916029505296640E+01 
    8.2844388786905192E+00 
    1.4707892418938064E+01 
    1.2565738080533000E+01 
    7.1871862812385858E+00 
    1.4517995994619829E+01 
    1.5457499447492051E+01 
    1.4540500592974231E+01 
    7.2509751087161840E+00 
    1.0596276271770762E+01 
    7.9636288782470439E+00 
    1.0007513955560668E+01 
    1.4397918682878066E+01 
    1.4385633844123774E+01 
    7.2930497436198030E+00 
    1.5308484658011878E+01 
    1.1151969231509549E+01 
    1.4418852877316249E+01 
    1.5276578528739707E+01 
    1.4405763646394607E+01 
    1.3414137827652413E+01 
    1.6260206250479076E+01 
    9.8791127789377686E+00 
    1.5396504654619884E+01 
    1.4446526756567218E+01 
    1.5471214992927987E+01 
    1.5301302016259655E+01 
    9.9828341923960782E+00 
    1.0425489969749872E+01 
    9.9173584622841648E+00 
    1.2894646321519904E+01 
    4.1824407849068894E+00 
    1.0640913803525917E+01 
    1.6387942278390273E+01 
    1.0828453189702410E+01 
    1.1023340385235018E+01 
    1.5443639995436204E+01 
    1.5679644361570713E+01 
    9.8022862138217857E+00 
    1.4412816784160613E+01 
    1.4381591421128691E+01 
    1.1010459604327695E+01 
    1.5255062806954479E+01 
    7.5484167970530818E+00 
    4.8091513797360328E+00 
    1.1302500632331252E+01 
    1.0844144440082733E+01 
    1.4387820246609255E+01 
    6.8240967161905344E+00 
    1.4964022349907083E+01 
    4.8950018593467588E+00 
    1.0775094104026378E+01 
    1.0012006823549987E+01 
    1.0573062418631670E+01 
    1.7710044887643559E+01 
    4.0609485946885320E+00 
    1.0556703533598025E+01 
    1.2627658433962594E+01 
    1.0179178535953568E+01 
    8.0779592027750198E+00 
    1.5080400799751597E+01 
    1.7262714775428179E+01 
    1.5235442292498382E+01 
    1.0495287979160883E+01 
    6.0079445703659422E+00 
    1.7113068943431738E+01 
    1.4686956959323703E+01 
    7.7603069452065201E+00 
    1.0137721366425563E+01 
    1.5874645962561178E+01 
    3.4561393743128912E+00 
    1.0895821985822296E+01 
    1.5204341181026644E+01 
    1.0586639405095889E+01 
    9.2362930882521983E+00 
    1.0597297850415687E+01 
    1.4142061593018438E+01 
    1.0568143225166517E+01 
    5.3446114549568984E+00 
    9.5134487091258502E-01 
    7.9105436326570615E+00 
    1.6099388178618401E+01 
    9.9168581543032825E+00 
    1.1902926823443591E+01 
    1.1352738333900428E+01 
    1.3218387728638801E+01 
    1.0599903751873928E+01 
    1.4592998868320169E+01 
    1.7724501796740448E+01 
    1.2557693534574710E+01 
    1.5368276008973218E+01 
    5.6868440490374028E-01 
    1.4387738901164365E+01 
    5.9398298290280414E+00 
    1.6559544668128922E+01 
    1.0570602920307641E+01 
    9.3958875646382438E+00 
    8.1215127629473987E+00 
    5.6052073319476339E+00 
    1.1844408729037218E+01 
    8.3774482353083393E+00 
    1.3051734328931101E+01 
    2.3062022515121017E+00 
    1.1640382868486343E+01 
    1.4317605273773074E+01 
    6.4307604243893195E+00 
    1.4890627257060943E+01 
    1.6356133328393160E+01 
    1.4722930294696660E+01 
    1.0432216091567863E+01 
    1.0567658786807289E+01 
    1.0563194862238211E+01 
    6.0726289684140999E+00 
    9.6392679254057576E+00 
    9.4761846649364134E+00 
    1.0551975982250340E+01 
    9.8447585010606016E+00 
    7.2046377781151683E-01 
    6.8358415880923031E+00 
    1.0258518331555353E+01 
    1.0526234173975372E+01 
    1.3414142614422238E+01 
    2.2735800604752603E+00 
    1.0968643050076373E+01 
    1.0848763955113229E+01 
    3.9086266256638789E+00 
    1.4577790965836734E+01 
    9.1378022401707284E+00 
    1.0703118613299232E+01 
    1.4683533740163639E+01 
    5.6283995962048854E+00 
    1.4705378956199288E+01 
    9.2578551845042032E+00 
    1.0416259965746735E+00 
    9.9815623676272800E+00 
    1.5320950719499974E+01 
    1.4387547020424572E+01 
    1.4406320376298490E+01 
    1.0913645691632480E+01 
    1.0777076480382728E+01 
    9.1150924236286528E+00 
    7.4170632677464621E+00 
    1.4797012215486490E+01 
    1.0134360674203281E+01 
    7.2198767742911132E+00 
    1.4402042558498866E+01 
    1.5121349136769068E+01 
    1.0730427542623428E+01 
    1.0378773110911165E+01 
    1.7601963846241198E+01 
    1.1011365152666128E+01 
    1.4815035609569707E+01 
    8.6627090521521950E+00 
    1.7753202506965788E+01 
    7.0393870849568199E+00 
    9.5396475562150638E+00 
    7.8835120049564820E+00 
    1.1250190137139878E+01 
    9.0221371876157566E+00 
    1.7736542212804213E+01 
    1.1061036740484969E+01 
    1.4077849512244228E+01 
    7.2395209242093568E+00 
    1.0596139166450753E+01 
    1.4652042982611368E+01 
    9.0587974589861808E+00 
    7.6890045931165014E+00 
    1.1744875814359084E+01 
    1.4882318276337072E+01 
    7.7596628606900033E+00 
    1.0033482026672724E+01 
    1.0409546520436487E+01 
    1.4362156563875462E+01 
    1.0205314802543585E+01 
    1.4859547113828580E+01 
    1.5500881230280324E+01 
    9.1440698728878012E+00 
    8.9606049470826417E+00 
    8.4063150179781800E+00 
    1.4508833252876689E+01 
    1.0858706205364916E+01 
    1.7302326823007046E+01 
    1.3583005770166253E+01 
    1.4609921648900286E+01 
    1.6984761342731673E+01 
    1.6363034365090808E+01 
    1.0642190166314696E+01 
    1.0536440212271595E+01 
    1.4142076340129098E+01 
    1.4427155336131134E+01 
    1.4975490626820292E+01 
    1.4708158572885626E+01 
    1.7623602950839505E+01 
    1.1010884315195700E+01 
    9.2493566839382577E+00 
    1.1005691027059886E+01 
    1.5411716442415450E+01 
    1.0738745167313716E+01 
    6.2810872088240890E+00 
    1.0415670396945471E+01 
    1.5842003744787990E+01 
    1.0886043498363295E+01 
    9.2606965772203491E+00 
    1.0350962244478721E+01 
    1.5954926867574287E+01 
    1.4447755159667130E+01 
    8.8006863905528157E+00 
    1.6094102207598489E+01 
    1.0670975930426069E+01 
    1.4966845381761951E+01 
    1.5968031458290421E+01 
    1.1217757355194705E+01 
    5.6351283080492127E+00 
    1.1684758730044740E+01 
    5.8333824365881730E+00 
    1.0793654290447773E+01 
    1.0588772338043926E+01 
    1.2313010095929091E+01 
    6.1672592172238359E+00 
    1.3071065098337446E+01 
    1.0608115056281216E+01 
    1.4697956213600236E+01 
    1.1231727149366806E+01 
    8.6251606199275574E+00 
    1.0222985804144027E+01 
    1.1074141446081121E+01 
    1.1118900548860827E+01 
    1.5549507126596179E+01 
    8.8339824994294229E+00 
    8.6822297388688199E+00 
    6.4868465757419500E+00 
    1.5002544555164613E+01 
    1.0265048724197477E+01 
    1.4231783609858386E+01 
    1.0559272723240396E+01 
    7.0949990660088877E+00 
    1.4477408077783389E+01 
    1.0535044011125818E+01 
    7.7316679076759982E+00 
    8.1874016187598784E+00 
    8.4761865215154284E+00 
    1.4729447141376783E+01 
    1.0554011291422775E+01 
    1.5380383869814004E+01 
    1.0494300841758045E+01 
    1.0432994329108386E+01 
    9.9498779619125806E+00 
    1.4563521069685171E+01 
    1.0350004272498554E+01 
    8.5180016213433429E+00 
    1.6351230902551528E+01 
    1.4647023699722840E+01 
    7.3741398099728492E+00 
    2.8678229024368100E+00 
    1.0543320159699121E+01 
    9.9391765080382690E+00 
    8.9512725419623571E+00 
    9.7467669934443002E+00 
    1.4599886130634856E+01 
    1.0243435882784873E+01 
    9.3063876840582456E+00 
    1.4449757828348741E+01 
    7.3090425288871659E+00 
    1.4100753763795030E+01 
    9.5978610692528790E+00 
    8.4793720162053674E+00 
    9.0385626872828571E+00 
    1.5054234724175434E+01 
    1.0575920368966997E+01 
    1.0584040473427336E+01 
    6.2469034858259631E+00 
    6.7526112661772677E+00 
    1.3407937408026971E+01 
    1.0593827074491172E+01 
    1.0584084543064996E+01 
    1.6079954969915939E+01 
    8.6851183918352266E+00 
    1.0606102389972490E+01 
    7.5589380996411188E+00 
    7.7969881086625401E+00 
    1.4557167845336117E+01 
    1.0235116513622090E+01 
    7.4453217806125469E+00 
    1.1170251738491725E+01 
    1.0483099410031940E+01 
    1.4559938842351494E+01 
    1.6174710756455362E+01 
    1.0943282455963894E+00 
    1.0548326982738772E+01 
    1.0842030568866631E+01 
    1.4626225923105983E+01 
    1.0056572586867725E+01 
    1.0549554710299390E+01 
    1.5604843549335088E+01 
    9.0763301776925012E+00 
    7.5124538844759128E+00 
    1.2772605636782034E+01 
    1.4401793732508832E+01 
    1.5469384963805810E+01 
    1.5746096988229787E+01 
    1.0387051778313886E+01 
    1.0539599942431071E+01 
    1.1910770588191419E+01 
    7.0079597237984492E+00 
    1.4535512352605382E+01 
    8.0935332544733125E+00 
    7.2974904981998137E+00 
    1.3279911677225044E+01 
    1.2504192036370235E+01 
    7.1569773379466977E+00 
    1.4438705476126266E+01 
    1.5455168220209908E+01 
    1.1027219183818614E+01 
    1.6278776209909925E+01 
    1.4473328691494627E+01 
    1.0119053737963716E+01 
    1.5185491928261643E+01 
    7.8005153139747589E+00 
    1.4421328793307092E+01 
    1.0547210092768616E+01 
    1.0508275183205354E+01 
    1.6254195228532872E+01 
    1.0300534611698023E+01 
    1.3002273686586516E+01 
    9.0227891588261251E+00 
    1.5576710236238490E+01 
    1.4324110924170068E+01 
    9.4135961797707921E+00 
    1.4376438984532037E+01 
    9.6230139932569525E+00 
    1.0558296180632350E+01 
    1.5413482316751844E+01 
    1.4703669447867501E+01 
    1.5458381482068454E+01 
    1.4629578050925449E+01 
    9.6447110086911341E+00 
    9.8678602650834861E+00 
    1.5465678556121519E+01 
    9.9977422998353127E+00 
    1.4251292647247581E+01 
    1.0288588761948352E+01 
    4.2124898654601273E+00 
    7.3730719279830641E+00 
    6.8304933302242583E+00 
    1.5417236706858269E+01 
    1.6181498407922561E+01 
    1.4395101455032396E+01 
    1.2186798129962551E+01 
    1.4695463536926706E+01 
    1.4447296155589342E+01 
    1.5054846027529285E+01 
    6.0368703927997069E+00 
    3.9266443557229960E+00 
    1.1970832046146210E+01 
    1.0220054119579338E+01 
    1.4601578469792676E+01 
    1.4598963557186952E+01 
    1.0869368064431132E+01 
    1.4637684462928549E+01 
    1.0533801456710989E+01 
    1.0461881252285851E+01 
    5.4500425687961771E+00 
    3.9135940933577098E+00 
    1.5951160045057133E+01 
    8.2798478327692777E+00 
    9.3537378508835776E+00 
    1.0753138985082160E+01 
    1.7604033154484714E+01 
    1.0851985642982928E+01 
    1.0883705897295947E+01 
    4.4545708949320755E+00 
    1.0853771566669703E+01 
    1.0869318903737156E+01 
    1.4928473641938753E+01 
    9.0452333599348975E+00 
    1.0130643530650820E+01 
    1.6123828801393028E+01 
    1.0556816022531947E+01 
    1.4411400092215029E+01 
    1.4674443982146393E+01 
    1.2994604456896868E+01 
    8.9950508067005437E+00 
    1.4629160288078959E+01 
    1.0350824778455159E+01 
    1.4597047521694837E+01 
    1.4347944251061957E+01 
    1.5436992288065575E+01 
    1.4627381200685436E+01 
    1.3720704815462597E+01 
    1.0545243264017769E+01 
    7.1024846335362763E+00 
    1.7474956113980127E+01 
    8.2580881534468809E+00 
    1.5364382549025237E+01 
    1.0542630703634357E+01 
    8.7314083098449391E+00 
    5.2446421673366084E+00 
    1.0909094053930666E+01 
    1.4615495618659722E+01 
    1.4611845829774124E+01 
    1.0539026250408179E+01 
    1.0536754859236018E+01 
    1.6335369050578972E+01 
    1.5687697622151692E+01 
    1.0871241969786087E+01 
    3.6531425552229302E+00 
    1.3657459758848042E+01 
    1.7733834669127720E+01 
    1.0548580988429133E+01 
    1.2580193797452635E+01 
    1.0055289424362307E+01 
    1.7328832930981275E+01 
    1.5769584637543494E+01 
    1.5499876140013711E+01 
    1.0893824605617604E+01 
    4.8893344632088569E+00 
    1.0011306210426172E+01 
    1.0080442775097596E+01 
    1.0121249570353744E+01 
    3.9789820871833768E+00 