# vtk DataFile Version 2.0
Pressure Field Data 
ASCII 
DATASET UNSTRUCTURED_GRID 

POINTS 2860 double 

    0.0000000000000000E+00     0.0000000000000000E+00     0.0000000000000000E+00 
    1.0000000000000000E+00     0.0000000000000000E+00     0.0000000000000000E+00 
    1.0000000000000000E+00     1.0000000000000000E+00     0.0000000000000000E+00 
    0.0000000000000000E+00     1.0000000000000000E+00     0.0000000000000000E+00 
    2.5000000000000000E-01     2.5000000000000000E-01     0.0000000000000000E+00 
    7.5000000000000000E-01     2.5000000000000000E-01     0.0000000000000000E+00 
    7.5000000000000000E-01     7.5000000000000000E-01     0.0000000000000000E+00 
    2.5000000000000000E-01     7.5000000000000000E-01     0.0000000000000000E+00 
    3.1249999999942091E-02     0.0000000000000000E+00     0.0000000000000000E+00 
    6.2499999999873469E-02     0.0000000000000000E+00     0.0000000000000000E+00 
    9.3749999999826514E-02     0.0000000000000000E+00     0.0000000000000000E+00 
    1.2499999999977961E-01     0.0000000000000000E+00     0.0000000000000000E+00 
    1.5624999999968961E-01     0.0000000000000000E+00     0.0000000000000000E+00 
    1.8749999999959971E-01     0.0000000000000000E+00     0.0000000000000000E+00 
    2.1874999999950970E-01     0.0000000000000000E+00     0.0000000000000000E+00 
    2.4999999999941969E-01     0.0000000000000000E+00     0.0000000000000000E+00 
    2.8124999999932920E-01     0.0000000000000000E+00     0.0000000000000000E+00 
    3.1249999999923850E-01     0.0000000000000000E+00     0.0000000000000000E+00 
    3.4374999999914790E-01     0.0000000000000000E+00     0.0000000000000000E+00 
    3.7499999999905720E-01     0.0000000000000000E+00     0.0000000000000000E+00 
    4.0624999999896660E-01     0.0000000000000000E+00     0.0000000000000000E+00 
    4.3749999999887590E-01     0.0000000000000000E+00     0.0000000000000000E+00 
    4.6874999999878530E-01     0.0000000000000000E+00     0.0000000000000000E+00 
    4.9999999999869471E-01     0.0000000000000000E+00     0.0000000000000000E+00 
    5.3124999999877620E-01     0.0000000000000000E+00     0.0000000000000000E+00 
    5.6249999999885780E-01     0.0000000000000000E+00     0.0000000000000000E+00 
    5.9374999999893940E-01     0.0000000000000000E+00     0.0000000000000000E+00 
    6.2499999999902101E-01     0.0000000000000000E+00     0.0000000000000000E+00 
    6.5624999999910261E-01     0.0000000000000000E+00     0.0000000000000000E+00 
    6.8749999999918421E-01     0.0000000000000000E+00     0.0000000000000000E+00 
    7.1874999999926570E-01     0.0000000000000000E+00     0.0000000000000000E+00 
    7.4999999999934730E-01     0.0000000000000000E+00     0.0000000000000000E+00 
    7.8124999999942890E-01     0.0000000000000000E+00     0.0000000000000000E+00 
    8.1249999999951039E-01     0.0000000000000000E+00     0.0000000000000000E+00 
    8.4374999999959199E-01     0.0000000000000000E+00     0.0000000000000000E+00 
    8.7499999999967359E-01     0.0000000000000000E+00     0.0000000000000000E+00 
    9.0624999999975520E-01     0.0000000000000000E+00     0.0000000000000000E+00 
    9.3749999999983680E-01     0.0000000000000000E+00     0.0000000000000000E+00 
    9.6874999999991840E-01     0.0000000000000000E+00     0.0000000000000000E+00 
    1.0000000000000000E+00     3.1249999999942091E-02     0.0000000000000000E+00 
    1.0000000000000000E+00     6.2499999999873469E-02     0.0000000000000000E+00 
    1.0000000000000000E+00     9.3749999999826514E-02     0.0000000000000000E+00 
    1.0000000000000000E+00     1.2499999999977961E-01     0.0000000000000000E+00 
    1.0000000000000000E+00     1.5624999999968961E-01     0.0000000000000000E+00 
    1.0000000000000000E+00     1.8749999999959971E-01     0.0000000000000000E+00 
    1.0000000000000000E+00     2.1874999999950970E-01     0.0000000000000000E+00 
    1.0000000000000000E+00     2.4999999999941969E-01     0.0000000000000000E+00 
    1.0000000000000000E+00     2.8124999999932920E-01     0.0000000000000000E+00 
    1.0000000000000000E+00     3.1249999999923850E-01     0.0000000000000000E+00 
    1.0000000000000000E+00     3.4374999999914790E-01     0.0000000000000000E+00 
    1.0000000000000000E+00     3.7499999999905720E-01     0.0000000000000000E+00 
    1.0000000000000000E+00     4.0624999999896660E-01     0.0000000000000000E+00 
    1.0000000000000000E+00     4.3749999999887590E-01     0.0000000000000000E+00 
    1.0000000000000000E+00     4.6874999999878530E-01     0.0000000000000000E+00 
    1.0000000000000000E+00     4.9999999999869471E-01     0.0000000000000000E+00 
    1.0000000000000000E+00     5.3124999999877620E-01     0.0000000000000000E+00 
    1.0000000000000000E+00     5.6249999999885780E-01     0.0000000000000000E+00 
    1.0000000000000000E+00     5.9374999999893940E-01     0.0000000000000000E+00 
    1.0000000000000000E+00     6.2499999999902101E-01     0.0000000000000000E+00 
    1.0000000000000000E+00     6.5624999999910261E-01     0.0000000000000000E+00 
    1.0000000000000000E+00     6.8749999999918421E-01     0.0000000000000000E+00 
    1.0000000000000000E+00     7.1874999999926570E-01     0.0000000000000000E+00 
    1.0000000000000000E+00     7.4999999999934730E-01     0.0000000000000000E+00 
    1.0000000000000000E+00     7.8124999999942890E-01     0.0000000000000000E+00 
    1.0000000000000000E+00     8.1249999999951039E-01     0.0000000000000000E+00 
    1.0000000000000000E+00     8.4374999999959199E-01     0.0000000000000000E+00 
    1.0000000000000000E+00     8.7499999999967359E-01     0.0000000000000000E+00 
    1.0000000000000000E+00     9.0624999999975520E-01     0.0000000000000000E+00 
    1.0000000000000000E+00     9.3749999999983680E-01     0.0000000000000000E+00 
    1.0000000000000000E+00     9.6874999999991840E-01     0.0000000000000000E+00 
    9.6875000000003686E-01     1.0000000000000000E+00     0.0000000000000000E+00 
    9.3750000000011691E-01     1.0000000000000000E+00     0.0000000000000000E+00 
    9.0625000000015765E-01     1.0000000000000000E+00     0.0000000000000000E+00 
    8.7500000000017863E-01     1.0000000000000000E+00     0.0000000000000000E+00 
    8.4375000000028044E-01     1.0000000000000000E+00     0.0000000000000000E+00 
    8.1250000000040856E-01     1.0000000000000000E+00     0.0000000000000000E+00 
    7.8125000000054956E-01     1.0000000000000000E+00     0.0000000000000000E+00 
    7.5000000000066480E-01     1.0000000000000000E+00     0.0000000000000000E+00 
    7.1875000000086831E-01     1.0000000000000000E+00     0.0000000000000000E+00 
    6.8750000000102829E-01     1.0000000000000000E+00     0.0000000000000000E+00 
    6.5625000000114431E-01     1.0000000000000000E+00     0.0000000000000000E+00 
    6.2500000000129829E-01     1.0000000000000000E+00     0.0000000000000000E+00 
    5.9375000000147926E-01     1.0000000000000000E+00     0.0000000000000000E+00 
    5.6250000000168354E-01     1.0000000000000000E+00     0.0000000000000000E+00 
    5.3125000000188671E-01     1.0000000000000000E+00     0.0000000000000000E+00 
    5.0000000000205835E-01     1.0000000000000000E+00     0.0000000000000000E+00 
    4.6875000000192979E-01     1.0000000000000000E+00     0.0000000000000000E+00 
    4.3750000000180111E-01     1.0000000000000000E+00     0.0000000000000000E+00 
    4.0625000000167238E-01     1.0000000000000000E+00     0.0000000000000000E+00 
    3.7500000000154382E-01     1.0000000000000000E+00     0.0000000000000000E+00 
    3.4375000000141509E-01     1.0000000000000000E+00     0.0000000000000000E+00 
    3.1250000000128642E-01     1.0000000000000000E+00     0.0000000000000000E+00 
    2.8125000000115769E-01     1.0000000000000000E+00     0.0000000000000000E+00 
    2.5000000000102918E-01     1.0000000000000000E+00     0.0000000000000000E+00 
    2.1875000000090050E-01     1.0000000000000000E+00     0.0000000000000000E+00 
    1.8750000000077180E-01     1.0000000000000000E+00     0.0000000000000000E+00 
    1.5625000000064329E-01     1.0000000000000000E+00     0.0000000000000000E+00 
    1.2500000000051459E-01     1.0000000000000000E+00     0.0000000000000000E+00 
    9.3750000000385914E-02     1.0000000000000000E+00     0.0000000000000000E+00 
    6.2500000000257239E-02     1.0000000000000000E+00     0.0000000000000000E+00 
    3.1250000000128557E-02     1.0000000000000000E+00     0.0000000000000000E+00 
    0.0000000000000000E+00     9.6875000000003686E-01     0.0000000000000000E+00 
    0.0000000000000000E+00     9.3750000000011691E-01     0.0000000000000000E+00 
    0.0000000000000000E+00     9.0625000000015765E-01     0.0000000000000000E+00 
    0.0000000000000000E+00     8.7500000000017863E-01     0.0000000000000000E+00 
    0.0000000000000000E+00     8.4375000000028044E-01     0.0000000000000000E+00 
    0.0000000000000000E+00     8.1250000000040856E-01     0.0000000000000000E+00 
    0.0000000000000000E+00     7.8125000000054956E-01     0.0000000000000000E+00 
    0.0000000000000000E+00     7.5000000000066480E-01     0.0000000000000000E+00 
    0.0000000000000000E+00     7.1875000000086831E-01     0.0000000000000000E+00 
    0.0000000000000000E+00     6.8750000000102829E-01     0.0000000000000000E+00 
    0.0000000000000000E+00     6.5625000000114431E-01     0.0000000000000000E+00 
    0.0000000000000000E+00     6.2500000000129829E-01     0.0000000000000000E+00 
    0.0000000000000000E+00     5.9375000000147926E-01     0.0000000000000000E+00 
    0.0000000000000000E+00     5.6250000000168354E-01     0.0000000000000000E+00 
    0.0000000000000000E+00     5.3125000000188671E-01     0.0000000000000000E+00 
    0.0000000000000000E+00     5.0000000000205835E-01     0.0000000000000000E+00 
    0.0000000000000000E+00     4.6875000000192979E-01     0.0000000000000000E+00 
    0.0000000000000000E+00     4.3750000000180111E-01     0.0000000000000000E+00 
    0.0000000000000000E+00     4.0625000000167238E-01     0.0000000000000000E+00 
[...]
CELL_DATA 2795 
SCALARS Pressure double 1 
LOOKUP_TABLE default 

    7.8997613221019112E+00 
    1.7903650752210201E+01 
    1.2470092220332305E+01 
    1.2163099551620491E+01 
    9.7017488779184866E+00 
    1.7731204988113820E+01 
    1.8605108857236274E+01 
    7.0565299242002162E+00 
    1.3028785377311241E+01 
    1.0056426924941052E+01 
    8.5874208268605319E+00 
    1.7417093530216246E+01 
    1.7802702174850580E+01 
    1.7693000192225277E+01 
    1.1514888006068887E+01 
    6.9375163385763381E+00 
    1.1210382015413416E+01 
    9.1397792117597003E+00 
    1.6954602995356019E+01 
    1.2450249642527073E+01 
    1.2345050924047344E+01 
    1.7611221927616079E+01 
    1.1838985830385116E+01 
    4.6351646403923136E-01 
    1.7368540365362541E+01 
    1.7757805403815816E+01 
    1.8641593674986108E+01 
    8.2770751513662937E+00 
    1.7317597461207797E+01 
    1.8629938557632876E+01 
    1.2663115485372769E+01 
    1.2656190427667070E+01 
    8.9887864647600040E+00 
    1.2432693180544895E+01 
    4.0756924566446893E+00 
    1.1214911340776389E+01 
    1.2417589419396839E+01 
    1.8675187117208484E+01 
    1.8577894088533014E+01 
    1.7432542799025764E+01 
    9.6607880650526532E+00 
    1.7402625077541657E+01 
    9.6248819795048668E-01 
    1.2443622092352058E+01 
    1.8376027474159052E+01 
    1.8090142281384054E+01 
    1.7404135962950896E+01 
    1.3423043131117385E+01 
    1.7456067417041183E+01 
    1.1470171517627245E+01 
    1.0927400150122740E+01 
    1.2619489614635388E+01 
    1.2331197674323214E+01 
    1.1284314693107344E+01 
    1.2741239709415069E+01 
    1.6686224905155711E+01 
    1.4587672224392396E+01 
    9.7532815069421215E+00 
    1.7619153405672932E+01 
    1.7519082120657291E+01 
    1.2127392670417338E+01 
    1.2003038647889884E+01 
    1.2045883682828498E+01 
    1.8515629010228270E+01 
    1.8827002964321245E+01 
    1.1227901983598748E+01 
    1.2617853403908374E+01 
    1.7134745144533305E+01 
    1.4467978170828674E+01 
    1.2064781997611581E+01 
    1.8823173256092133E+01 
    1.7563879784577043E+01 
    1.1066970008116744E+01 
    1.8221169271709314E+01 
    1.3008552169468508E+01 
    1.7202444223443184E+01 
    1.8689264866257020E+01 
    1.3100096832517361E+01 
    8.0116178881973870E+00 
    1.2636552569017805E+01 
    1.8588681980396814E+01 
    1.8853682783194426E+01 
    1.1239197455700845E+01 
    1.2562075849256141E+01 
    1.8909535638576301E+01 
    1.2415976879190280E+01 
    1.1944107930110341E+01 
    1.5051251309531478E+01 
    7.6843511107903435E+00 
    1.0957671000475541E+01 
    1.2559024651789123E+01 
    1.3187477525211497E+01 
    2.0534858870182141E+01 
    9.4306078972659950E+00 
    1.2625927334108566E+01 
    1.7377412753837874E+01 
    1.7739648925253235E+01 
    8.3125606891460837E+00 
    1.2272076894003549E+01 
    1.2593539969710818E+01 
    1.7767762598587691E+01 
    1.2583262340388066E+01 
    1.7675178654272781E+01 
    5.0366350136857996E+00 
    8.3436286028009814E+00 
    1.2850141483249329E+01 
    1.7912235612446693E+01 
    1.1172483729214958E+01 
    1.1858164300122285E+01 
    1.2560246641089430E+01 
    1.1902429110034397E+01 
    1.4173127212938669E+01 
    1.1545699643914297E+01 
    1.1077179606047245E+01 
    8.7041411388952863E+00 
    1.5018671450480122E+01 
    1.2661578347251295E+01 
    1.8412448727735786E+01 
    1.0901294088304654E+01 
    1.2139159439474385E+01 
    1.7557609450068092E+01 
    1.0179902304869444E+01 
    1.8097382856652839E+01 
    1.2489744041729809E+01 
    1.2056532266172747E+01 
    1.7744089155034459E+01 
    1.2649257472395988E+01 
    1.8705564854379936E+01 
    1.5115353466155334E+01 
    1.6465562187801389E+01 
    1.8661048770526175E+01 
    9.4486990557157018E+00 
    1.2871500693039108E+01 
    1.7742760434149787E+01 
    3.7567960949759658E+00 
    1.2716795561733791E+01 
    1.8621703776720825E+01 
    1.2089252101139005E+01 
    1.3937188280501200E+01 
    8.2101193530243997E+00 
    1.7373934335524293E+01 
    2.1062407803946680E+01 
    1.5734081396865209E+01 
    1.2090515885593399E+01 
    1.0830724466200902E+01 
    1.3471560120216880E+01 
    1.2507011436045463E+01 
    8.6862318192112458E+00 
    1.8656640337147490E+01 
    1.7754209825456947E+01 
    1.7379460611809943E+01 
    1.3181670442056973E+01 
    1.1037972272600513E+01 
    1.2341064093519762E+01 
    1.8264282240455294E+01 
    1.1345047076014195E+01 
    1.2639881424288550E+01 
    1.1545992729001933E+01 
    1.4703334552146991E+01 
    2.1049678345522878E+01 
    1.7368739752231701E+01 
    1.1031452553913146E+01 
    1.7977476089861842E+01 
    1.7864577350554871E+01 
    1.7958781722276100E+01 
    1.9135948772972711E+01 
    1.9744355593755866E+01 
    1.8074950631896527E+01 
    1.2609330913022022E+01 
    1.3711387105787646E+01 
    1.7879820119106324E+01 
    1.8424327820958723E+01 
    9.0735030123049416E+00 
    1.7403099750246948E+01 
    1.8219945917054282E+01 
    8.8258012193102733E+00 
    1.9049594599025486E+01 
    1.9019230759434205E+01 
    1.7037516438778713E+01 
    1.2946280013082436E+01 
    3.3223951102849036E+00 
    1.8623262036945508E+01 
    1.2787036563066486E+01 
    1.8762527964166537E+01 
    1.2004725332457815E+01 
    1.8404691563976435E+01 
    1.1949350389214402E+00 
    1.6434883099412431E+01 
    1.2054192856826218E+01 
    1.0980457170953894E+01 
    1.0701400056534149E+01 
    1.2457065432298853E+01 
    1.3726782358459644E+01 
    1.3166442701657340E+01 
    8.8038769896586864E+00 
    1.8419162787861097E+01 
    1.7769620531429791E+01 
    1.4591231779080763E+01 
    1.2841051203430990E+01 
    1.9055052968948578E+00 
    9.8819762406473775E+00 
    6.8642403949950186E+00 
    1.8641240100272181E+01 
    1.4009788758282641E+01 
    1.7778830840994523E+01 
    1.7849914039621865E+01 
    1.1436321163993185E+01 
    1.4624502023366915E+01 
    1.7371428400559672E+01 
    1.9000519339858972E+01 
    8.2047132053507834E+00 
    1.5707068194520799E+01 
    1.3119038345634312E+01 
    7.3096077113734275E+00 
    1.1429209113647248E+01 
    1.5288584616013591E+01 
    1.7803548151068256E+01 
    1.2509056110386945E+01 
    1.7933671328819845E+01 
    1.7656067761621483E+01 
    1.7593986968723740E+01 
    1.2345464101552809E+01 
    1.0889234463805224E+01 
    1.7388819753660243E+01 
    1.1061805420816968E+01 
    1.2592015902020069E+01 
    1.0843796676634405E+01 
    1.2593738117280212E+01 
    1.7861629056684368E+01 
    7.8597947456231623E+00 
    1.1316302876049113E+01 
    1.8544391540811240E+01 
    1.2353792193841521E+01 
    1.3894614670582131E+01 
    8.0651552591066782E+00 
    1.1138405527660209E+01 
    1.7629681764071375E+01 
    1.7999303607541357E+01 
    6.5723682702055370E+00 
    1.2366965533396105E+01 
    1.0921675340216749E+01 
    1.9483926114966810E+01 
    1.8864310013928282E+01 
    1.9776999445622291E+01 
    1.2387335475145935E+01 
    1.7828282384761451E+01 
    1.7309705794255954E+01 
    1.2237624621826571E+01 
    1.7379819275757413E+01 
    1.2841866977865379E+01 
    7.3843463737314554E+00 
    1.2785098514550732E+01 
    1.8525277185287429E+01 
    1.7375817832201637E+01 
    8.5544179020162101E+00 
    1.7412146281573598E+01 
    1.3758977737390618E+01 
    1.2692987153732171E+01 
    1.2174516602553851E+01 
    1.7206126504530079E+01 
    1.3290235247885613E+01 
    1.7395401656925497E+01 
    1.2368829968476733E+01 
    7.6038198664018841E+00 
    1.2671982025263983E+01 
    1.0714907854773836E+01 
    1.5806807659761834E+01 
    1.8762275175324707E+01 
    1.7386448515797618E+01 
    1.8614460877955057E+01 
    1.2292614617311189E+01 
    8.3269391877532843E+00 
    8.4417782412520861E+00 
    1.2907654535317766E+01 
    1.2563074348367671E+01 
    1.8522058801000860E+00 
    1.6720053153855716E+01 
    1.9176595121364578E+01 
    1.2023056978989509E+01 
    7.7220290414874260E+00 
    1.4590025864008140E+01 
    1.7409173294361828E+01 
    9.1452258517878349E+00 
    6.2139254951854568E+00 
    1.2547259601562258E+01 
    1.7495443441409172E+01 
    1.8308005581746670E+01 
    1.8138491379990871E+01 
    1.8002083172781528E+01 
    8.9450073712604929E+00 
    1.2687553065038454E+01 
    1.6832077740844312E+01 
    9.8714289863012556E+00 
    1.7786578728314378E+01 
    1.4887945906553163E+01 
    8.5617337085254821E+00 
    1.7513908535587159E+01 
    1.8654496479750705E+01 
    1.7552408241098512E+01 
    8.8059492495597596E+00 
    1.2613820905408884E+01 
    9.6711167361021388E+00 
    1.1918825848252929E+01 
    1.7399756228278406E+01 
    1.7385329911764810E+01 
    8.8560096027785633E+00 
    1.8460665094620605E+01 
    1.3224133952209716E+01 
    1.7421000672506761E+01 
    1.8440171068625961E+01 
    1.7407840456602042E+01 
    1.6021151207278063E+01 
    1.9550702310338124E+01 
    1.1962025694315241E+01 
    1.8577807920184757E+01 
    1.7452615193510994E+01 
    1.8664020438695164E+01 
    1.8454700511595753E+01 
    1.2083833633772645E+01 
    1.2458611753670171E+01 
    1.2011992250891696E+01 
    1.5302944269548153E+01 
    5.0597109165965053E+00 
    1.2833039574876919E+01 
    1.9688610719412541E+01 
    1.2846696064951876E+01 
    1.3072608502600893E+01 
    1.8632496980071000E+01 
    1.8897220032817980E+01 
    1.1856223782918976E+01 
    1.7417252548692208E+01 
    1.7380778931973612E+01 
    1.3057353843196832E+01 
    1.8402293053913134E+01 
    9.0000003438432472E+00 
    5.7395829604361293E+00 
    1.3401036495950423E+01 
    1.2860584044035290E+01 
    1.7384797846677806E+01 
    8.2856980671370728E+00 
    1.8047396853426878E+01 
    5.8602841250539548E+00 
    1.2793162794576102E+01 
    1.2101769174427293E+01 
    1.2590134793473098E+01 
    2.1103071715067490E+01 
    4.9039578136829602E+00 
    1.2736844465873553E+01 
    1.5287614184091321E+01 
    1.2177703814530556E+01 
    9.7692291294736471E+00 
    1.8207818220641403E+01 
    2.0629912236773443E+01 
    1.8368875397897696E+01 
    1.2665564644467153E+01 
    7.2743250224795304E+00 
    2.0468310211809925E+01 
    1.7758850880909861E+01 
    9.2096564181603746E+00 
    1.2268984316443577E+01 
    1.9116274984645045E+01 
    4.1734096839833246E+00 
    1.2923351768588368E+01 
    1.8361718546431455E+01 
    1.2605944887475877E+01 
    1.1002930378974561E+01 
    1.2783273127980475E+01 
    1.6944470464646976E+01 
    1.2587839330191763E+01 
    6.4782600752146955E+00 
    1.1769210486293278E+00 
    9.4337826685821415E+00 
    1.9375049304229993E+01 
    1.2011261947304794E+01 
    1.4224017567152544E+01 
    1.3641799364203777E+01 
    1.5614262979554891E+01 
    1.2619835502298242E+01 
    1.7648137664276671E+01 
    2.1118195721896377E+01 
    1.4991990326497627E+01 
    1.8545007229078951E+01 
    6.9173474665899004E-01 
    1.7387529402111873E+01 
    7.1330470127668137E+00 
    1.9874034805072043E+01 
    1.2752738089186218E+01 
    1.1229269979636607E+01 
    9.8623509753124008E+00 
    6.8017375910251685E+00 
    1.3975587269465406E+01 
    1.0005835580943698E+01 
    1.5681466197287797E+01 
    2.8203928891213832E+00 
    1.3804632097782155E+01 
    1.7297006747813246E+01 
    7.6565461976832161E+00 
    1.7910483456350061E+01 
    1.9645133998337009E+01 
    1.7750665038697765E+01 
    1.2592127200106688E+01 
    1.2583827056900086E+01 
    1.2744286165124212E+01 
    7.3695647409905494E+00 
    1.1682647260322458E+01 
    1.1489721017419988E+01 
    1.2731423904056122E+01 
    1.1926843710478256E+01 
    8.8296212078719560E-01 
    8.1400058123134915E+00 
    1.2404555259095501E+01 
    1.2701569302219514E+01 
    1.6124228964834380E+01 
    2.7363677535855828E+00 
    1.3008409492667155E+01 
    1.2869053011542077E+01 
    4.7239785149908959E+00 
    1.7590309135930923E+01 
    1.1083068084589463E+01 
    1.2721461163088284E+01 
    1.7756687715540949E+01 
    6.8275033247181467E+00 
    1.7713722361265599E+01 
    1.1229921409007286E+01 
    1.2422366249406482E+00 
    1.2087182896273150E+01 
    1.8485322641233527E+01 
    1.7387792427645000E+01 
    1.7409839169280364E+01 
    1.3144360483472392E+01 
    1.2796153809722663E+01 
    1.1058267306021607E+01 
    8.8309561967882235E+00 
    1.7892592833354527E+01 
    1.2262381471022204E+01 
    8.5638106060453492E+00 
    1.7404671660695481E+01 
    1.8217132597921637E+01 
    1.2936014396807344E+01 
    1.2403650543230233E+01 
    2.0987981959557782E+01 
    1.3058529229928022E+01 
    1.7909177714099471E+01 
    1.0518726433747469E+01 
    2.1147313398023098E+01 
    8.3914635964293218E+00 
    1.1547328399695489E+01 
    9.4056452414470080E+00 
    1.3341145247643444E+01 
    1.0765791720515852E+01 
    2.1130042744531917E+01 
    1.3117166787393531E+01 
    1.6903147998561636E+01 
    8.6323064586718274E+00 
    1.2614163646071948E+01 
    1.7717307907414867E+01 
    1.0817253185328420E+01 
    9.2160395721669932E+00 
    1.4214681126632746E+01 
    1.7973874048548204E+01 
    9.2457988986576485E+00 
    1.2127687481536078E+01 
    1.2441973708402470E+01 
    1.7357427187276816E+01 
    1.2204279458933771E+01 
    1.7955636233802917E+01 
    1.8697712393323211E+01 
    1.1092751510521346E+01 
    1.0875918744554678E+01 
    1.0015803702984384E+01 
    1.7527201059789856E+01 
    1.2895169982128468E+01 
    2.0671595208129791E+01 
    1.6108315420196053E+01 
    1.7668449874135423E+01 
    2.0330050818226848E+01 
    1.9651629859473875E+01 
    1.2662209808004450E+01 
    1.2713450927985235E+01 
    1.7056179213986759E+01 
    1.7434295784808320E+01 
    1.8101256709191226E+01 
    1.7784480219300892E+01 
    2.1013170244527895E+01 
    1.3057938687599654E+01 
    1.1218424254646131E+01 
    1.3036471809160222E+01 
    1.8595561993742155E+01 
    1.2759735879063667E+01 
    7.5056548567273245E+00 
    1.2572916367240339E+01 
    1.9082009139002352E+01 
    1.2911460708448699E+01 
    1.1232155232815636E+01 
    1.2381302757289893E+01 
    1.9207999351231532E+01 
    1.7474941294559386E+01 
    1.0716340792719166E+01 
    1.9362441432514622E+01 
    1.2691339727206671E+01 
    1.8080760408198895E+01 
    1.9222418024763343E+01 
    1.3454671897750620E+01 
    6.8358493465041228E+00 
    1.4008918173130692E+01 
    7.0678095703377277E+00 
    1.2810974285533703E+01 
    1.2610608155112889E+01 
    1.4794969480845346E+01 
    7.4732516553037724E+00 
    1.5752758671663727E+01 
    1.2627298783096579E+01 
    1.7772044643393141E+01 
    1.3599331716359456E+01 
    1.0428914580174460E+01 
    1.2231559228425407E+01 
    1.3326067566050179E+01 
    1.3184362676697100E+01 
    1.8755039254894488E+01 
    1.0720995967675851E+01 
    1.0536980549584992E+01 
    7.8605621758163791E+00 
    1.8131334778337234E+01 
    1.2281680579017344E+01 
    1.7205647553000471E+01 
    1.2578650975205322E+01 
    8.6151110232157659E+00 
    1.7507149514211527E+01 
    1.2554991334675755E+01 
    9.3996626339641676E+00 
    9.9457886349595181E+00 
    1.0288868812042395E+01 
    1.7810391344822936E+01 
    1.2733769627793762E+01 
    1.8559287250441084E+01 
    1.2514954584765702E+01 
    1.2453145353747948E+01 
    1.2031355703113345E+01 
    1.7612238179821276E+01 
    1.2364857297307104E+01 
    1.0337788388434177E+01 
    1.9639964821511562E+01 
    1.7712817836186357E+01 
    8.7918746633839806E+00 
    3.4517625597942239E+00 
    1.2721581494201502E+01 
    1.1882511652541831E+01 
    1.0862351493303905E+01 
    1.1793394732643096E+01 
    1.7638018861948872E+01 
    1.2373513227706589E+01 
    1.1280299029993140E+01 
    1.7461300129184941E+01 
    8.7135883746586966E+00 
    1.7013383640966016E+01 
    1.1464304470857968E+01 
    1.0324143792147586E+01 
    1.0967001174874371E+01 
    1.8181368894737471E+01 
    1.2592698879601212E+01 
    1.2601405146642803E+01 
    7.5827355980258897E+00 
    8.1985328491552565E+00 
    1.5977044896261404E+01 
    1.2611549742471054E+01 
    1.2768358141837620E+01 
    1.9348500971969802E+01 
    1.0538796181368669E+01 
    1.2624148882152779E+01 
    9.0130683739616053E+00 
    9.3019993422881431E+00 
    1.7589011182271022E+01 
    1.2232484305432475E+01 
    9.0403351562748693E+00 
    1.3186388718235964E+01 
    1.2513714126336273E+01 
    1.7599323696669824E+01 
    1.9452823998351345E+01 
    1.3055637991233713E+00 
    1.2727350936584095E+01 
    1.2859313741145220E+01 
    1.7687741070199653E+01 
    1.2172543727737251E+01 
    1.2564233830902561E+01 
    1.8821600237052216E+01 
    1.1012034995436137E+01 
    9.1218992916447963E+00 
    1.5090286028591601E+01 
    1.7404556634260523E+01 
    1.8661189502438859E+01 
    1.8970197034305748E+01 
    1.2541462523656506E+01 
    1.2717155109861549E+01 
    1.4030913616449821E+01 
    8.3612705428860234E+00 
    1.7563920116473916E+01 
    9.8273111750912712E+00 
    8.7002057021533155E+00 
    1.5708677952284603E+01 
    1.4740973652204239E+01 
    8.5353457566101181E+00 
    1.7447831758156077E+01 
    1.8645382269782871E+01 
    1.3077203649956958E+01 
    1.9567987976575470E+01 
    1.7488502335168395E+01 
    1.2237824254158742E+01 
    1.8325122469096865E+01 
    9.2993931036505018E+00 
    1.7426986838512942E+01 
    1.2725999862054586E+01 
    1.2681826964795347E+01 
    1.9543621659970064E+01 
    1.2325652915601795E+01 
    1.5385046213819955E+01 
    1.0946959510450334E+01 
    1.8783638831421058E+01 
    1.7307995186647190E+01 
    1.1418834065466468E+01 
    1.7374081344849607E+01 
    1.1504996196171255E+01 
    1.2571374235577506E+01 
    1.8597446998555469E+01 
    1.7781764896906846E+01 
    1.8648905098692751E+01 
    1.7691714141863340E+01 
    1.1688267658151029E+01 
    1.1944580185045311E+01 
    1.8657537322313527E+01 
    1.2096575897105884E+01 
    1.7195170992734628E+01 
    1.2307713421182081E+01 
    5.0932143710370621E+00 
    8.7847519372907357E+00 
    8.1366169673936994E+00 
    1.8601904659494419E+01 
    1.9461466195549093E+01 
    1.7396485197065893E+01 
    1.4434751087099292E+01 
    1.7744472633040058E+01 
    1.7458364618672991E+01 
    1.8177702797507774E+01 
    7.3226187561279712E+00 
    4.7387477146663324E+00 
    1.4163599908163926E+01 
    1.2357456007296021E+01 
    1.7642681015635294E+01 
    1.7639684292813698E+01 
    1.2880247898218034E+01 
    1.7685479040773657E+01 
    1.2710447120250230E+01 
    1.2620353450535642E+01 
    6.6107702292970085E+00 
    4.7236091870523431E+00 
    1.9203005643889533E+01 
    9.8743408058614097E+00 
    1.1343418818590632E+01 
    1.2771974283579425E+01 
    2.0991317931312409E+01 
    1.2869812044064702E+01 
    1.3083061043822653E+01 
    5.3900893511709462E+00 
    1.2869661502180534E+01 
    1.2884831939501407E+01 
    1.7963080475943698E+01 
    1.0975385889853623E+01 
    1.2096109095796875E+01 
    1.9396151915980582E+01 
    1.2737147593945650E+01 
    1.7415801961901860E+01 
    1.7679614412811365E+01 
    1.5425668435761377E+01 
    1.0739505741159316E+01 
    1.7691159559349718E+01 
    1.2503477583123056E+01 
    1.7605237143276977E+01 
    1.7340029049155987E+01 
    1.8624641985096424E+01 
    1.7688966461098282E+01 
    1.6439039068884917E+01 
    1.2723709685203769E+01 
    8.4635323382053205E+00 
    2.0855118400379801E+01 
    1.0028047648173521E+01 
    1.8535251806910377E+01 
    1.2720727823824728E+01 
    1.0601861245834646E+01 
    6.3105629862485255E+00 
    1.2924421637614174E+01 
    1.7674804064944304E+01 
    1.7668899936508364E+01 
    1.2550785992540932E+01 
    1.2714025635664958E+01 
    1.9627842579512386E+01 
    1.8904623845719307E+01 
    1.2891565283733359E+01 
    4.4061949555049997E+00 
    1.6247437908576604E+01 
    2.1126276064566035E+01 
    1.2727513868840052E+01 
    1.4908734326037544E+01 
    1.2171983959261244E+01 
    2.0698693348143507E+01 
    1.8998740642890564E+01 
    1.8701851642630359E+01 
    1.2916007949809579E+01 
    5.8767225956342326E+00 
    1.2122398462137500E+01 
    1.2199402879188730E+01 
    1.2244287025259423E+01 
    4.8116052448474198E+00 