# vtk DataFile Version 2.0
Pressure Field Data 
ASCII 
DATASET UNSTRUCTURED_GRID 

POINTS 2860 double 

    0.0000000000000000E+00     0.0000000000000000E+00     0.0000000000000000E+00 
    1.0000000000000000E+00     0.0000000000000000E+00     0.0000000000000000E+00 
    1.0000000000000000E+00     1.0000000000000000E+00     0.0000000000000000E+00 
    0.0000000000000000E+00     1.0000000000000000E+00     0.0000000000000000E+00 
    2.5000000000000000E-01     2.5000000000000000E-01     0.0000000000000000E+00 
    7.5000000000000000E-01     2.5000000000000000E-01     0.0000000000000000E+00 
    7.5000000000000000E-01     7.5000000000000000E-01     0.0000000000000000E+00 
    2.5000000000000000E-01     7.5000000000000000E-01     0.0000000000000000E+00 
    3.1249999999942091E-02     0.0000000000000000E+00     0.0000000000000000E+00 
    6.2499999999873469E-02     0.0000000000000000E+00     0.0000000000000000E+00 
    9.3749999999826514E-02     0.0000000000000000E+00     0.0000000000000000E+00 
    1.2499999999977961E-01     0.0000000000000000E+00     0.0000000000000000E+00 
    1.5624999999968961E-01     0.0000000000000000E+00     0.0000000000000000E+00 
    1.8749999999959971E-01     0.0000000000000000E+00     0.0000000000000000E+00 
    2.1874999999950970E-01     0.0000000000000000E+00     0.0000000000000000E+00 
    2.4999999999941969E-01     0.0000000000000000E+00     0.0000000000000000E+00 
    2.8124999999932920E-01     0.0000000000000000E+00     0.0000000000000000E+00 
    3.1249999999923850E-01     0.0000000000000000E+00     0.0000000000000000E+00 
    3.4374999999914790E-01     0.0000000000000000E+00     0.0000000000000000E+00 
    3.7499999999905720E-01     0.0000000000000000E+00     0.0000000000000000E+00 
    4.0624999999896660E-01     0.0000000000000000E+00     0.0000000000000000E+00 
    4.3749999999887590E-01     0.0000000000000000E+00     0.0000000000000000E+00 
    4.6874999999878530E-01     0.0000000000000000E+00     0.0000000000000000E+00 
    4.9999999999869471E-01     0.0000000000000000E+00     0.0000000000000000E+00 
    5.3124999999877620E-01     0.0000000000000000E+00     0.0000000000000000E+00 
    5.6249999999885780E-01     0.0000000000000000E+00     0.0000000000000000E+00 
    5.9374999999893940E-01     0.0000000000000000E+00     0.0000000000000000E+00 
    6.2499999999902101E-01     0.0000000000000000E+00     0.0000000000000000E+00 
    6.5624999999910261E-01     0.0000000000000000E+00     0.0000000000000000E+00 
    6.8749999999918421E-01     0.0000000000000000E+00     0.0000000000000000E+00 
    7.1874999999926570E-01     0.0000000000000000E+00     0.0000000000000000E+00 
    7.4999999999934730E-01     0.0000000000000000E+00     0.0000000000000000E+00 
    7.8124999999942890E-01     0.0000000000000000E+00     0.0000000000000000E+00 
    8.1249999999951039E-01     0.0000000000000000E+00     0.0000000000000000E+00 
    8.4374999999959199E-01     0.0000000000000000E+00     0.0000000000000000E+00 
    8.7499999999967359E-01     0.0000000000000000E+00     0.0000000000000000E+00 
    9.0624999999975520E-01     0.0000000000000000E+00     0.0000000000000000E+00 
    9.3749999999983680E-01     0.0000000000000000E+00     0.0000000000000000E+00 
    9.6874999999991840E-01     0.0000000000000000E+00     0.0000000000000000E+00 
    1.0000000000000000E+00     3.1249999999942091E-02     0.0000000000000000E+00 
    1.0000000000000000E+00     6.2499999999873469E-02     0.0000000000000000E+00 
    1.0000000000000000E+00     9.3749999999826514E-02     0.0000000000000000E+00 
    1.0000000000000000E+00     1.2499999999977961E-01     0.0000000000000000E+00 
    1.0000000000000000E+00     1.5624999999968961E-01     0.0000000000000000E+00 
    1.0000000000000000E+00     1.8749999999959971E-01     0.0000000000000000E+00 
    1.0000000000000000E+00     2.1874999999950970E-01     0.0000000000000000E+00 
    1.0000000000000000E+00     2.4999999999941969E-01     0.0000000000000000E+00 
    1.0000000000000000E+00     2.8124999999932920E-01     0.0000000000000000E+00 
    1.0000000000000000E+00     3.1249999999923850E-01     0.0000000000000000E+00 
    1.0000000000000000E+00     3.4374999999914790E-01     0.0000000000000000E+00 
    1.0000000000000000E+00     3.7499999999905720E-01     0.0000000000000000E+00 
    1.0000000000000000E+00     4.0624999999896660E-01     0.0000000000000000E+00 
    1.0000000000000000E+00     4.3749999999887590E-01     0.0000000000000000E+00 
    1.0000000000000000E+00     4.6874999999878530E-01     0.0000000000000000E+00 
    1.0000000000000000E+00     4.9999999999869471E-01     0.0000000000000000E+00 
    1.0000000000000000E+00     5.3124999999877620E-01     0.0000000000000000E+00 
    1.0000000000000000E+00     5.6249999999885780E-01     0.0000000000000000E+00 
    1.0000000000000000E+00     5.9374999999893940E-01     0.0000000000000000E+00 
    1.0000000000000000E+00     6.2499999999902101E-01     0.0000000000000000E+00 
    1.0000000000000000E+00     6.5624999999910261E-01     0.0000000000000000E+00 
    1.0000000000000000E+00     6.8749999999918421E-01     0.0000000000000000E+00 
    1.0000000000000000E+00     7.1874999999926570E-01     0.0000000000000000E+00 
    1.0000000000000000E+00     7.4999999999934730E-01     0.0000000000000000E+00 
    1.0000000000000000E+00     7.8124999999942890E-01     0.0000000000000000E+00 
    1.0000000000000000E+00     8.1249999999951039E-01     0.0000000000000000E+00 
    1.0000000000000000E+00     8.4374999999959199E-01     0.0000000000000000E+00 
    1.0000000000000000E+00     8.7499999999967359E-01     0.0000000000000000E+00 
    1.0000000000000000E+00     9.0624999999975520E-01     0.0000000000000000E+00 
    1.0000000000000000E+00     9.3749999999983680E-01     0.0000000000000000E+00 
    1.0000000000000000E+00     9.6874999999991840E-01     0.0000000000000000E+00 
    9.6875000000003686E-01     1.0000000000000000E+00     0.0000000000000000E+00 
    9.3750000000011691E-01     1.0000000000000000E+00     0.0000000000000000E+00 
    9.0625000000015765E-01     1.0000000000000000E+00     0.0000000000000000E+00 
    8.7500000000017863E-01     1.0000000000000000E+00     0.0000000000000000E+00 
    8.4375000000028044E-01     1.0000000000000000E+00     0.0000000000000000E+00 
    8.1250000000040856E-01     1.0000000000000000E+00     0.0000000000000000E+00 
    7.8125000000054956E-01     1.0000000000000000E+00     0.0000000000000000E+00 
    7.5000000000066480E-01     1.0000000000000000E+00     0.0000000000000000E+00 
    7.1875000000086831E-01     1.0000000000000000E+00     0.0000000000000000E+00 
    6.8750000000102829E-01     1.0000000000000000E+00     0.0000000000000000E+00 
    6.5625000000114431E-01     1.0000000000000000E+00     0.0000000000000000E+00 
    6.2500000000129829E-01     1.0000000000000000E+00     0.0000000000000000E+00 
    5.9375000000147926E-01     1.0000000000000000E+00     0.0000000000000000E+00 
    5.6250000000168354E-01     1.0000000000000000E+00     0.0000000000000000E+00 
    5.3125000000188671E-01     1.0000000000000000E+00     0.0000000000000000E+00 
    5.0000000000205835E-01     1.0000000000000000E+00     0.0000000000000000E+00 
    4.6875000000192979E-01     1.0000000000000000E+00     0.0000000000000000E+00 
    4.3750000000180111E-01     1.0000000000000000E+00     0.0000000000000000E+00 
    4.0625000000167238E-01     1.0000000000000000E+00     0.0000000000000000E+00 
    3.7500000000154382E-01     1.0000000000000000E+00     0.0000000000000000E+00 
    3.4375000000141509E-01     1.0000000000000000E+00     0.0000000000000000E+00 
    3.1250000000128642E-01     1.0000000000000000E+00     0.0000000000000000E+00 
    2.8125000000115769E-01     1.0000000000000000E+00     0.0000000000000000E+00 
    2.5000000000102918E-01     1.0000000000000000E+00     0.0000000000000000E+00 
    2.1875000000090050E-01     1.0000000000000000E+00     0.0000000000000000E+00 
    1.8750000000077180E-01     1.0000000000000000E+00     0.0000000000000000E+00 
    1.5625000000064329E-01     1.0000000000000000E+00     0.0000000000000000E+00 
    1.2500000000051459E-01     1.0000000000000000E+00     0.0000000000000000E+00 
    9.3750000000385914E-02     1.0000000000000000E+00     0.0000000000000000E+00 
    6.2500000000257239E-02     1.0000000000000000E+00     0.0000000000000000E+00 
    3.1250000000128557E-02     1.0000000000000000E+00     0.0000000000000000E+00 
    0.0000000000000000E+00     9.6875000000003686E-01     0.0000000000000000E+00 
    0.0000000000000000E+00     9.3750000000011691E-01     0.0000000000000000E+00 
    0.0000000000000000E+00     9.0625000000015765E-01     0.0000000000000000E+00 
    0.0000000000000000E+00     8.7500000000017863E-01     0.0000000000000000E+00 
    0.0000000000000000E+00     8.4375000000028044E-01     0.0000000000000000E+00 
    0.0000000000000000E+00     8.1250000000040856E-01     0.0000000000000000E+00 
    0.0000000000000000E+00     7.8125000000054956E-01     0.0000000000000000E+00 
    0.0000000000000000E+00     7.5000000000066480E-01     0.0000000000000000E+00 
    0.0000000000000000E+00     7.1875000000086831E-01     0.0000000000000000E+00 
    0.0000000000000000E+00     6.8750000000102829E-01     0.0000000000000000E+00 
    0.0000000000000000E+00     6.5625000000114431E-01     0.0000000000000000E+00 
    0.0000000000000000E+00     6.2500000000129829E-01     0.0000000000000000E+00 
    0.0000000000000000E+00     5.9375000000147926E-01     0.0000000000000000E+00 
    0.0000000000000000E+00     5.6250000000168354E-01     0.0000000000000000E+00 
    0.0000000000000000E+00     5.3125000000188671E-01     0.0000000000000000E+00 
    0.0000000000000000E+00     5.0000000000205835E-01     0.0000000000000000E+00 
    0.0000000000000000E+00     4.6875000000192979E-01     0.0000000000000000E+00 
    0.0000000000000000E+00     4.3750000000180111E-01     0.0000000000000000E+00 
    0.0000000000000000E+00     4.0625000000167238E-01     0.0000000000000000E+00 
[...]
CELL_DATA 2795 
SCALARS Pressure double 1 
LOOKUP_TABLE default 

    5.4605245996993892E+00 
    1.2539624522257110E+01 
    8.9005439759635987E+00 
    8.4940194547126744E+00 
    6.7327312999287185E+00 
    1.2433430505940541E+01 
    1.3076320100970557E+01 
    4.8715358896916667E+00 
    9.4113923214874013E+00 
    7.1902269558443033E+00 
    6.1195339722029356E+00 
    1.2210166440388569E+01 
    1.2450741939300851E+01 
    1.2406197145976643E+01 
    8.2047425508669605E+00 
    4.7894133976655535E+00 
    7.8065901366004651E+00 
    6.5234554844451669E+00 
    1.1896853402179550E+01 
    8.8976465386710490E+00 
    8.7801159232397232E+00 
    1.2349505473703291E+01 
    8.2572236079278678E+00 
    3.2067217554174759E-01 
    1.2187219873688363E+01 
    1.2429737809351277E+01 
    1.3104995677593605E+01 
    5.8813926757026289E+00 
    1.2141075488196648E+01 
    1.3102832391516200E+01 
    8.9468521704053128E+00 
    9.1385796075961387E+00 
    6.3557052599400485E+00 
    8.8598373610117829E+00 
    2.8241810403602114E+00 
    7.8111949023951439E+00 
    8.8519605191560640E+00 
    1.3139597712346113E+01 
    1.3056343242316860E+01 
    1.2221363794812754E+01 
    6.6681018352102699E+00 
    1.2167672465115661E+01 
    6.6820710273244377E-01 
    8.7149433530012246E+00 
    1.2886143701912580E+01 
    1.2736377618837100E+01 
    1.2200872444395928E+01 
    9.7328105809511918E+00 
    1.2264371765766727E+01 
    7.9910735607830867E+00 
    7.6043703015574469E+00 
    9.1041733535357672E+00 
    8.6116891071402719E+00 
    7.8530013699798245E+00 
    9.0190705267750211E+00 
    1.1715425323203258E+01 
    1.0607621578733015E+01 
    6.7696617642524126E+00 
    1.2352857305673055E+01 
    1.2286057332246685E+01 
    8.5193650364271072E+00 
    8.5474676742706546E+00 
    8.4068634112542568E+00 
    1.3014208002784372E+01 
    1.3242361177307123E+01 
    7.8158184816278915E+00 
    9.1025605567038586E+00 
    1.2124972113827940E+01 
    1.0410538302007739E+01 
    8.5858579977991241E+00 
    1.3251105715401625E+01 
    1.2286750569297780E+01 
    7.7032553361882403E+00 
    1.2824638390473497E+01 
    9.2735290757370610E+00 
    1.2056689677108812E+01 
    1.3149147037528151E+01 
    9.1731529608716080E+00 
    5.5621349237272071E+00 
    9.1201577488421126E+00 
    1.3063811854537850E+01 
    1.3281538654506534E+01 
    7.8227166889206021E+00 
    9.0289473030082696E+00 
    1.3319087261973523E+01 
    8.8580913798326240E+00 
    8.3331366357334513E+00 
    1.0765402731854707E+01 
    5.3038079728850400E+00 
    7.6249233862899573E+00 
    9.0312779535658834E+00 
    9.5350193727899821E+00 
    1.4701499189991837E+01 
    6.5399593579785398E+00 
    9.1100772911602252E+00 
    1.2181759556658031E+01 
    1.2407332853215923E+01 
    5.7475650252839934E+00 
    8.7279323190090619E+00 
    9.0597552443150544E+00 
    1.2425750184691106E+01 
    9.0677062742124370E+00 
    1.2364882975911968E+01 
    3.4930858153492674E+00 
    5.9482844492826734E+00 
    9.3140518259989360E+00 
    1.2547766158789917E+01 
    7.7788327483938051E+00 
    8.3227332941891365E+00 
    9.0521904054195623E+00 
    8.3038961932007513E+00 
    1.0311543157658932E+01 
    8.0840917833681516E+00 
    7.7108542895472754E+00 
    6.0433835444166100E+00 
    1.0491729011260901E+01 
    9.1399522552887902E+00 
    1.2934907405237988E+01 
    7.8155703691444698E+00 
    8.4810953140144285E+00 
    1.2277666265488415E+01 
    7.0514172873867702E+00 
    1.2679708880662394E+01 
    8.9445963903009993E+00 
    8.4146231584908744E+00 
    1.2409403329925922E+01 
    9.1324673725937835E+00 
    1.3156017649495702E+01 
    1.0774592732630602E+01 
    1.1586627277365469E+01 
    1.3120240440054427E+01 
    6.5535646051683063E+00 
    9.3299513473496969E+00 
    1.2413475624921764E+01 
    2.6223111656795370E+00 
    8.9969012612163688E+00 
    1.3089909721367018E+01 
    8.4437072635850665E+00 
    9.7473203861524631E+00 
    5.6925537668562987E+00 
    1.2181109436962331E+01 
    1.5176041730984032E+01 
    1.1176707055299362E+01 
    8.4394345291371060E+00 
    7.5357720383557965E+00 
    9.6777809777657922E+00 
    8.9618912468624679E+00 
    6.1851126860672929E+00 
    1.3116507515528470E+01 
    1.2501674135159554E+01 
    1.2183295812034700E+01 
    9.5504656141607818E+00 
    7.6779501783841138E+00 
    8.7790180729430585E+00 
    1.2849290421026966E+01 
    7.9012029630818583E+00 
    8.8537322591855077E+00 
    8.0470930307115385E+00 
    1.0269261581129932E+01 
    1.5164626369557389E+01 
    1.2175773038060617E+01 
    7.6403435962105153E+00 
    1.2581041008394669E+01 
    1.2510721773730786E+01 
    1.2583087023507744E+01 
    1.3504315997789810E+01 
    1.4013004741292542E+01 
    1.2733185612802231E+01 
    9.0946049859150992E+00 
    9.6331014015529153E+00 
    1.2579686210255970E+01 
    1.2943702660184117E+01 
    6.4594736230069447E+00 
    1.2200480990207287E+01 
    1.2815246843462067E+01 
    6.2875368823819855E+00 
    1.3418947880278839E+01 
    1.3411899465487359E+01 
    1.1957568805627734E+01 
    9.3859773340217600E+00 
    2.2935401134522557E+00 
    1.3090304471937321E+01 
    9.2590537504462436E+00 
    1.3203498004208635E+01 
    8.3821039525880199E+00 
    1.2939030530221917E+01 
    8.1552491505857516E-01 
    1.1603849455405870E+01 
    8.5883814618490497E+00 
    7.6415950000870829E+00 
    7.4436145073283937E+00 
    8.9134190994261946E+00 
    9.9951087254322530E+00 
    9.1978047115382093E+00 
    6.1338299869048223E+00 
    1.2940297982458562E+01 
    1.2436351983689008E+01 
    1.0520311694303004E+01 
    9.3063715385239387E+00 
    1.3429240511710003E+00 
    6.8609127875459350E+00 
    4.7320604927071326E+00 
    1.3113732299211060E+01 
    1.0094754168370052E+01 
    1.2489220022375457E+01 
    1.2495361548356254E+01 
    7.9717718002381392E+00 
    1.0534903873307771E+01 
    1.2179231977504145E+01 
    1.3395274038986498E+01 
    5.6737247018014756E+00 
    1.0983736384245061E+01 
    9.2305972434837731E+00 
    5.0461275870814575E+00 
    7.9638408769349178E+00 
    1.0983577578771841E+01 
    1.2461442487381643E+01 
    8.9745252823503172E+00 
    1.2562103427783827E+01 
    1.2349059373711084E+01 
    1.2304031837011232E+01 
    8.7859569256574410E+00 
    7.5945159841993730E+00 
    1.2190530995006096E+01 
    7.6991291551415291E+00 
    9.0706083660532002E+00 
    7.5443173602122471E+00 
    8.8026010272560544E+00 
    1.2503015537056950E+01 
    5.5903514026944201E+00 
    7.8827891757916699E+00 
    1.3032663133998613E+01 
    8.8012295596367736E+00 
    9.9885683662614042E+00 
    5.7369680364285589E+00 
    7.7549139970342349E+00 
    1.2329295259156302E+01 
    1.2612910368608611E+01 
    4.6687090318173903E+00 
    8.8033229246792413E+00 
    7.5808681304845962E+00 
    1.3790540531441478E+01 
    1.3288562689785264E+01 
    1.4037490061621840E+01 
    8.8264770891793489E+00 
    1.2479671194147196E+01 
    1.2142254185202734E+01 
    8.7047652473000845E+00 
    1.2183490783676380E+01 
    9.3060411722135665E+00 
    5.1119058292862949E+00 
    8.9995518061743986E+00 
    1.3022121000292055E+01 
    1.2180673753043278E+01 
    6.0875671359393744E+00 
    1.2206578429444992E+01 
    9.9857427666557435E+00 
    8.9795054641264294E+00 
    8.5197528245523433E+00 
    1.2064684311167602E+01 
    9.5043466804138479E+00 
    1.2194992180718442E+01 
    8.6633851881101815E+00 
    5.3025962060446172E+00 
    9.1365365071361708E+00 
    7.4516755394477876E+00 
    1.1177064218341226E+01 
    1.3200019107590684E+01 
    1.2189582728924151E+01 
    1.3083746423610755E+01 
    8.7514255304204926E+00 
    5.9257107595610510E+00 
    6.0110550960651272E+00 
    9.1796318509971417E+00 
    9.0480520212758542E+00 
    1.2670510230652543E+00 
    1.1760844901177837E+01 
    1.3529427820675858E+01 
    8.3917089476695281E+00 
    5.3279805105848475E+00 
    1.0223714796492025E+01 
    1.2205319144163960E+01 
    6.3362607116057532E+00 
    4.2917964455313591E+00 
    9.0196969863961858E+00 
    1.2292120207863075E+01 
    1.2853370596125618E+01 
    1.2750249210019494E+01 
    1.2617091967187186E+01 
    6.1775892765807994E+00 
    8.9703351680645014E+00 
    1.1763997031061137E+01 
    7.0592892470939388E+00 
    1.2439147304172431E+01 
    1.0733478547635364E+01 
    6.1049219046398564E+00 
    1.2301537805987639E+01 
    1.3104316098660682E+01 
    1.2293781309456483E+01 
    6.0988015937056321E+00 
    9.0986672077694326E+00 
    6.7095989546546155E+00 
    8.5719358192149198E+00 
    1.2197822179195438E+01 
    1.2187477860548723E+01 
    6.1348503614427674E+00 
    1.2975133752313441E+01 
    9.5888122541765526E+00 
    1.2225000099718471E+01 
    1.2948980940338265E+01 
    1.2208959883621725E+01 
    1.1390557108258806E+01 
    1.3839304865244662E+01 
    8.3601480523551288E+00 
    1.3056349257394057E+01 
    1.2249225024226760E+01 
    1.3122063301685495E+01 
    1.2969144251191125E+01 
    8.4506391447076190E+00 
    8.8954360743967182E+00 
    8.3824492304759808E+00 
    1.0965064819573751E+01 
    3.5033352095271995E+00 
    9.1023674230269283E+00 
    1.3959753627543519E+01 
    9.3103824912088875E+00 
    9.4783933560295957E+00 
    1.3097270896201088E+01 
    1.3312333855783651E+01 
    8.3234521102152783E+00 
    1.2210365352275462E+01 
    1.2184373025764907E+01 
    9.4673669172522352E+00 
    1.2928626629543485E+01 
    6.4148490254278414E+00 
    4.0578763677433516E+00 
    9.7197184790778444E+00 
    9.3230064151501484E+00 
    1.2189453153060748E+01 
    5.7317674273728292E+00 
    1.2675481096817466E+01 
    4.1318609821479964E+00 
    9.2633918086562872E+00 
    8.5140791501832069E+00 
    9.0755029978578747E+00 
    1.5215264627989926E+01 
    3.4057947069550485E+00 
    9.0152652254767407E+00 
    1.0670597406154146E+01 
    8.6624915637798932E+00 
    6.7588349280114839E+00 
    1.2781933835084075E+01 
    1.4785884247128459E+01 
    1.2911653159963455E+01 
    8.9578180907079226E+00 
    5.0202332509423870E+00 
    1.4645621014009933E+01 
    1.2425068409139985E+01 
    6.4816843799529060E+00 
    8.5693722843595648E+00 
    1.3489403614992476E+01 
    2.8959233751921527E+00 
    9.3684715542631221E+00 
    1.2881436165523430E+01 
    9.0888553702393207E+00 
    7.8932730414913150E+00 
    9.0578234783892757E+00 
    1.1956316525687727E+01 
    9.0686649558459269E+00 
    4.4727041252505284E+00 
    7.8556140758258897E-01 
    6.7222763250960709E+00 
    1.3689183526978731E+01 
    8.3818249743261095E+00 
    1.0264488048997906E+01 
    9.8231289975893397E+00 
    1.1212632910272772E+01 
    9.1023236153464033E+00 
    1.2342445535311731E+01 
    1.5229238922495314E+01 
    1.0682749673078924E+01 
    1.3031658448550639E+01 
    4.7570650714176965E-01 
    1.2189219409339161E+01 
    4.9519725086117088E+00 
    1.4121412325751967E+01 
    9.0290988229351825E+00 
    7.9991293984815659E+00 
    6.8454530822824537E+00 
    4.6955009101209635E+00 
    1.0113555984165982E+01 
    7.1225796644817994E+00 
    1.1084016617966510E+01 
    1.9143576934718980E+00 
    1.0011645394497036E+01 
    1.2130688246935550E+01 
    5.4500326115450610E+00 
    1.2620254574044356E+01 
    1.3936100569331364E+01 
    1.2486087842290287E+01 
    8.8995738393580446E+00 
    9.0702461677229635E+00 
    9.0217160124725382E+00 
    5.0897228572158451E+00 
    8.1443191457177235E+00 
    8.0051991386759518E+00 
    9.0106191375475380E+00 
    8.3216533745846704E+00 
    5.9946226946951719E-01 
    5.6805767545806400E+00 
    8.6724891887020306E+00 
    8.9864753422324828E+00 
    1.1384261552609543E+01 
    1.9068832160475349E+00 
    9.4312759694736474E+00 
    9.3278711634301192E+00 
    3.2747467573741673E+00 
    1.2372295004752583E+01 
    7.7163445155321826E+00 
    9.1982682414513892E+00 
    1.2420361442055357E+01 
    4.7127294264224364E+00 
    1.2472623760958234E+01 
    7.8191125160547053E+00 
    8.7723619049949120E-01 
    8.4380892097183047E+00 
    1.2987678424722512E+01 
    1.2189322227117076E+01 
    1.2207087090539696E+01 
    9.3963774515160150E+00 
    9.2668557145525874E+00 
    7.6976823193498518E+00 
    6.1684361070861904E+00 
    1.2518055005063097E+01 
    8.5681556812242849E+00 
    6.0258954620162823E+00 
    1.2202010648261966E+01 
    1.2814113545614321E+01 
    9.2004343201896113E+00 
    8.8520869638351236E+00 
    1.5112357225030951E+01 
    9.4680860104827751E+00 
    1.2537721575214482E+01 
    7.3059603338913277E+00 
    1.5257710697861468E+01 
    5.9757823743343659E+00 
    8.0874995092601019E+00 
    6.7053948258643654E+00 
    9.6725242803954021E+00 
    7.6808093248996006E+00 
    1.5241490515281264E+01 
    9.5106966578890422E+00 
    1.1900884461235272E+01 
    6.1486073845256888E+00 
    9.0991036448795359E+00 
    1.2395055648888416E+01 
    7.7102408071705808E+00 
    6.4141106884642802E+00 
    9.9228071628975556E+00 
    1.2610080989065619E+01 
    6.6027588942929167E+00 
    8.5319464496280482E+00 
    8.8788718791257466E+00 
    1.2167600592331262E+01 
    8.6877053742816273E+00 
    1.2581714274753683E+01 
    1.3148726482230275E+01 
    7.7224218882118052E+00 
    7.5637913827736112E+00 
    7.1668591361154883E+00 
    1.2291788719317520E+01 
    9.3274900885780685E+00 
    1.4824099012716340E+01 
    1.1598207020110813E+01 
    1.2357186683000149E+01 
    1.4524413536494604E+01 
    1.3943359014280961E+01 
    9.1454714012217320E+00 
    8.9959044597038780E+00 
    1.1986291314498338E+01 
    1.2222446740620120E+01 
    1.2674817331738984E+01 
    1.2443082876274406E+01 
    1.5131142498392219E+01 
    9.4676833768039081E+00 
    7.8120212499397734E+00 
    9.4391098353078533E+00 
    1.3069362311871112E+01 
    9.2355964036494793E+00 
    5.3169183761465906E+00 
    8.8841647410389637E+00 
    1.3457993844257714E+01 
    9.3600615574355377E+00 
    7.8217278957555356E+00 
    8.8150998521721320E+00 
    1.3561330000079547E+01 
    1.2218800981952908E+01 
    7.4141646830123635E+00 
    1.3689217612742230E+01 
    9.1730589851550945E+00 
    1.2675812811599560E+01 
    1.3573265870746775E+01 
    9.5207409429045189E+00 
    4.7147505641122658E+00 
    9.8928345934275743E+00 
    4.8787921675241366E+00 
    9.2810343216108286E+00 
    9.0886030304918268E+00 
    1.0408850590970587E+01 
    5.1596530333528996E+00 
    1.1046932618938406E+01 
    9.1112308064321166E+00 
    1.2434484127797766E+01 
    9.4909695796246076E+00 
    7.2339858690135257E+00 
    8.6997842501134972E+00 
    9.5464684688968546E+00 
    9.5616645364924135E+00 
    1.3191047282475257E+01 
    7.4568645565279956E+00 
    7.3263467975591148E+00 
    5.4306485948155290E+00 
    1.2700478287954937E+01 
    8.7362476661493300E+00 
    1.2032951162318296E+01 
    9.0594272978398607E+00 
    5.9495474079124868E+00 
    1.2243078878947738E+01 
    9.0326512542860371E+00 
    6.5001842981423161E+00 
    6.8965246485669782E+00 
    7.1469140846813204E+00 
    1.2461146456031463E+01 
    9.0125755412965454E+00 
    1.3041516987268988E+01 
    8.9873582253085083E+00 
    8.9178787472405059E+00 
    8.4527187766755585E+00 
    1.2316966405538123E+01 
    8.8266757085499901E+00 
    7.1849596017157431E+00 
    1.3931373076371395E+01 
    1.2388560593589418E+01 
    6.2650281947843149E+00 
    2.4067405138658375E+00 
    9.0018289723786538E+00 
    8.4591672968203078E+00 
    7.5576508824345510E+00 
    8.2687300055495712E+00 
    1.2368439336566802E+01 
    8.7226029845487947E+00 
    7.8667286256403806E+00 
    1.2241601140889877E+01 
    6.2077748684592056E+00 
    1.1950911403792654E+01 
    8.1755683669453152E+00 
    7.1212575364689314E+00 
    7.6320298018187129E+00 
    1.2753493434356944E+01 
    9.0784843391964589E+00 
    9.0867293624204528E+00 
    5.2388151959848486E+00 
    5.6714966902535746E+00 
    1.1341121314402301E+01 
    9.0966722369044728E+00 
    9.0456591732945739E+00 
    1.3675050580588655E+01 
    7.3277331629044742E+00 
    9.1086832024643183E+00 
    6.4217182241692230E+00 
    6.6251314331295212E+00 
    1.2309243517056327E+01 
    8.7182018919616695E+00 
    6.2650273029864083E+00 
    9.5522060726897600E+00 
    8.9609937933307187E+00 
    1.2312552732206614E+01 
    1.3762843960610349E+01 
    9.2609683154851119E-01 
    9.0066209705603182E+00 
    9.3216485376708142E+00 
    1.2371098594616726E+01 
    8.5075472459628134E+00 
    9.0519184379477799E+00 
    1.3237975465396238E+01 
    7.6640050847433692E+00 
    6.3219412474181302E+00 
    1.0957052524916129E+01 
    1.2201348534441371E+01 
    1.3121259215638709E+01 
    1.3373665038191389E+01 
    8.8531819391907653E+00 
    8.9987429983708278E+00 
    1.0175621944838722E+01 
    5.9485566137715891E+00 
    1.2313801135250261E+01 
    6.8218278304539552E+00 
    6.1987351456505984E+00 
    1.1322317190738945E+01 
    1.0655896450922421E+01 
    6.0775415500253445E+00 
    1.2232889580121753E+01 
    1.3108132855680539E+01 
    9.4817108494883406E+00 
    1.3858871073639516E+01 
    1.2261555596229629E+01 
    8.5856156538941963E+00 
    1.2868444386235716E+01 
    6.6295752542824715E+00 
    1.2217545024436408E+01 
    9.0057887057775368E+00 
    8.9661457012240273E+00 
    1.3834084801861653E+01 
    8.7660217047851248E+00 
    1.1062504709375018E+01 
    7.6178990824185178E+00 
    1.3216973200672554E+01 
    1.2135855232521898E+01 
    7.9565715071631065E+00 
    1.2180582642800823E+01 
    8.1875004233293378E+00 
    9.0619836520513939E+00 
    1.3071278469854700E+01 
    1.2435865277552915E+01 
    1.3111165575145362E+01 
    1.2373786964632686E+01 
    8.1495203560036416E+00 
    8.3590591996594394E+00 
    1.3117293224993187E+01 
    8.4752967550090172E+00 
    1.2077607425873198E+01 
    8.7572465935731270E+00 
    3.5329186157575552E+00 
    6.2662794525982646E+00 
    5.7961972582652788E+00 
    1.3074367563651885E+01 
    1.3768288635323049E+01 
    1.2196567607720770E+01 
    1.0514487246386377E+01 
    1.2448820861252072E+01 
    1.2239387931784730E+01 
    1.2759906789839931E+01 
    5.0566816354652406E+00 
    3.2950181691396763E+00 
    1.0321926073265958E+01 
    8.6590554507541100E+00 
    1.2369787650687122E+01 
    1.2367552473595154E+01 
    9.3376429496137572E+00 
    1.2400443107592132E+01 
    8.9932649442737578E+00 
    8.8861852627688993E+00 
    4.5638535065166925E+00 
    3.2818690936624240E+00 
    1.3558450815695647E+01 
    7.0397489304676322E+00 
    7.9009045989216506E+00 
    9.2445994180119566E+00 
    1.5113393710467227E+01 
    9.3300654581098001E+00 
    9.2631705851202142E+00 
    3.7318852513252203E+00 
    9.3306393131815888E+00 
    9.3429025396532364E+00 
    1.2648209468138898E+01 
    7.6360446829615150E+00 
    8.6347427149575235E+00 
    1.3716158247843564E+01 
    9.0153630776149196E+00 
    1.2210423577933156E+01 
    1.2435883359511351E+01 
    1.1189756526779593E+01 
    7.6483637302148821E+00 
    1.2373074033166283E+01 
    8.8071610786802328E+00 
    1.2383915017807215E+01 
    1.2155580225548883E+01 
    1.3091869171387405E+01 
    1.2372674043167619E+01 
    1.1644263307636558E+01 
    9.0039914584923793E+00 
    6.0304857654317567E+00 
    1.4989320538941648E+01 
    6.9626421805496230E+00 
    1.3030699994698878E+01 
    9.0013891858700887E+00 
    7.3652780460275737E+00 
    4.4154754771344287E+00 
    9.3739070182939059E+00 
    1.2361683150572990E+01 
    1.2357515050850292E+01 
    9.0419089619959880E+00 
    8.9955395309788688E+00 
    1.3912748990302006E+01 
    1.3320320682540391E+01 
    9.3468645691992212E+00 
    3.0670462858822316E+00 
    1.1616750620300582E+01 
    1.5239606001048141E+01 
    9.0073439207672887E+00 
    1.0843469392209434E+01 
    8.5033654716905858E+00 
    1.4850720821963650E+01 
    1.3393207002078132E+01 
    1.3143515629075351E+01 
    9.3666401008950633E+00 
    4.1147062714622482E+00 
    8.4632597179946050E+00 
    8.5290992431154020E+00 
    8.5755462713355683E+00 
    3.3354502285499996E+00 