# vtk DataFile Version 2.0
Pressure Field Data 
ASCII 
DATASET UNSTRUCTURED_GRID 

POINTS 2860 double 

    0.0000000000000000E+00     0.0000000000000000E+00     0.0000000000000000E+00 
    1.0000000000000000E+00     0.0000000000000000E+00     0.0000000000000000E+00 
    1.0000000000000000E+00     1.0000000000000000E+00     0.0000000000000000E+00 
    0.0000000000000000E+00     1.0000000000000000E+00     0.0000000000000000E+00 
    2.5000000000000000E-01     2.5000000000000000E-01     0.0000000000000000E+00 
    7.5000000000000000E-01     2.5000000000000000E-01     0.0000000000000000E+00 
    7.5000000000000000E-01     7.5000000000000000E-01     0.0000000000000000E+00 
    2.5000000000000000E-01     7.5000000000000000E-01     0.0000000000000000E+00 
    3.1249999999942091E-02     0.0000000000000000E+00     0.0000000000000000E+00 
    6.2499999999873469E-02     0.0000000000000000E+00     0.0000000000000000E+00 
    9.3749999999826514E-02     0.0000000000000000E+00     0.0000000000000000E+00 
    1.2499999999977961E-01     0.0000000000000000E+00     0.0000000000000000E+00 
    1.5624999999968961E-01     0.0000000000000000E+00     0.0000000000000000E+00 
    1.8749999999959971E-01     0.0000000000000000E+00     0.0000000000000000E+00 
    2.1874999999950970E-01     0.0000000000000000E+00     0.0000000000000000E+00 
    2.4999999999941969E-01     0.0000000000000000E+00     0.0000000000000000E+00 
    2.8124999999932920E-01     0.0000000000000000E+00     0.0000000000000000E+00 
    3.1249999999923850E-01     0.0000000000000000E+00     0.0000000000000000E+00 
    3.4374999999914790E-01     0.0000000000000000E+00     0.0000000000000000E+00 
    3.7499999999905720E-01     0.0000000000000000E+00     0.0000000000000000E+00 
    4.0624999999896660E-01     0.0000000000000000E+00     0.0000000000000000E+00 
    4.3749999999887590E-01     0.0000000000000000E+00     0.0000000000000000E+00 
    4.6874999999878530E-01     0.0000000000000000E+00     0.0000000000000000E+00 
    4.9999999999869471E-01     0.0000000000000000E+00     0.0000000000000000E+00 
    5.3124999999877620E-01     0.0000000000000000E+00     0.0000000000000000E+00 
    5.6249999999885780E-01     0.0000000000000000E+00     0.0000000000000000E+00 
    5.9374999999893940E-01     0.0000000000000000E+00     0.0000000000000000E+00 
    6.2499999999902101E-01     0.0000000000000000E+00     0.0000000000000000E+00 
    6.5624999999910261E-01     0.0000000000000000E+00     0.0000000000000000E+00 
    6.8749999999918421E-01     0.0000000000000000E+00     0.0000000000000000E+00 
    7.1874999999926570E-01     0.0000000000000000E+00     0.0000000000000000E+00 
    7.4999999999934730E-01     0.0000000000000000E+00     0.0000000000000000E+00 
    7.8124999999942890E-01     0.0000000000000000E+00     0.0000000000000000E+00 
    8.1249999999951039E-01     0.0000000000000000E+00     0.0000000000000000E+00 
    8.4374999999959199E-01     0.0000000000000000E+00     0.0000000000000000E+00 
    8.7499999999967359E-01     0.0000000000000000E+00     0.0000000000000000E+00 
    9.0624999999975520E-01     0.0000000000000000E+00     0.0000000000000000E+00 
    9.3749999999983680E-01     0.0000000000000000E+00     0.0000000000000000E+00 
    9.6874999999991840E-01     0.0000000000000000E+00     0.0000000000000000E+00 
    1.0000000000000000E+00     3.1249999999942091E-02     0.0000000000000000E+00 
    1.0000000000000000E+00     6.2499999999873469E-02     0.0000000000000000E+00 
    1.0000000000000000E+00     9.3749999999826514E-02     0.0000000000000000E+00 
    1.0000000000000000E+00     1.2499999999977961E-01     0.0000000000000000E+00 
    1.0000000000000000E+00     1.5624999999968961E-01     0.0000000000000000E+00 
    1.0000000000000000E+00     1.8749999999959971E-01     0.0000000000000000E+00 
    1.0000000000000000E+00     2.1874999999950970E-01     0.0000000000000000E+00 
    1.0000000000000000E+00     2.4999999999941969E-01     0.0000000000000000E+00 
    1.0000000000000000E+00     2.8124999999932920E-01     0.0000000000000000E+00 
    1.0000000000000000E+00     3.1249999999923850E-01     0.0000000000000000E+00 
    1.0000000000000000E+00     3.4374999999914790E-01     0.0000000000000000E+00 
    1.0000000000000000E+00     3.7499999999905720E-01     0.0000000000000000E+00 
    1.0000000000000000E+00     4.0624999999896660E-01     0.0000000000000000E+00 
    1.0000000000000000E+00     4.3749999999887590E-01     0.0000000000000000E+00 
    1.0000000000000000E+00     4.6874999999878530E-01     0.0000000000000000E+00 
    1.0000000000000000E+00     4.9999999999869471E-01     0.0000000000000000E+00 
    1.0000000000000000E+00     5.3124999999877620E-01     0.0000000000000000E+00 
    1.0000000000000000E+00     5.6249999999885780E-01     0.0000000000000000E+00 
    1.0000000000000000E+00     5.9374999999893940E-01     0.0000000000000000E+00 
    1.0000000000000000E+00     6.2499999999902101E-01     0.0000000000000000E+00 
    1.0000000000000000E+00     6.5624999999910261E-01     0.0000000000000000E+00 
    1.0000000000000000E+00     6.8749999999918421E-01     0.0000000000000000E+00 
    1.0000000000000000E+00     7.1874999999926570E-01     0.0000000000000000E+00 
    1.0000000000000000E+00     7.4999999999934730E-01     0.0000000000000000E+00 
    1.0000000000000000E+00     7.8124999999942890E-01     0.0000000000000000E+00 
    1.0000000000000000E+00     8.1249999999951039E-01     0.0000000000000000E+00 
    1.0000000000000000E+00     8.4374999999959199E-01     0.0000000000000000E+00 
    1.0000000000000000E+00     8.7499999999967359E-01     0.0000000000000000E+00 
    1.0000000000000000E+00     9.0624999999975520E-01     0.0000000000000000E+00 
    1.0000000000000000E+00     9.3749999999983680E-01     0.0000000000000000E+00 
    1.0000000000000000E+00     9.6874999999991840E-01     0.0000000000000000E+00 
    9.6875000000003686E-01     1.0000000000000000E+00     0.0000000000000000E+00 
    9.3750000000011691E-01     1.0000000000000000E+00     0.0000000000000000E+00 
    9.0625000000015765E-01     1.0000000000000000E+00     0.0000000000000000E+00 
    8.7500000000017863E-01     1.0000000000000000E+00     0.0000000000000000E+00 
    8.4375000000028044E-01     1.0000000000000000E+00     0.0000000000000000E+00 
    8.1250000000040856E-01     1.0000000000000000E+00     0.0000000000000000E+00 
    7.8125000000054956E-01     1.0000000000000000E+00     0.0000000000000000E+00 
    7.5000000000066480E-01     1.0000000000000000E+00     0.0000000000000000E+00 
    7.1875000000086831E-01     1.0000000000000000E+00     0.0000000000000000E+00 
    6.8750000000102829E-01     1.0000000000000000E+00     0.0000000000000000E+00 
    6.5625000000114431E-01     1.0000000000000000E+00     0.0000000000000000E+00 
    6.2500000000129829E-01     1.0000000000000000E+00     0.0000000000000000E+00 
    5.9375000000147926E-01     1.0000000000000000E+00     0.0000000000000000E+00 
    5.6250000000168354E-01     1.0000000000000000E+00     0.0000000000000000E+00 
    5.3125000000188671E-01     1.0000000000000000E+00     0.0000000000000000E+00 
    5.0000000000205835E-01     1.0000000000000000E+00     0.0000000000000000E+00 
    4.6875000000192979E-01     1.0000000000000000E+00     0.0000000000000000E+00 
    4.3750000000180111E-01     1.0000000000000000E+00     0.0000000000000000E+00 
    4.0625000000167238E-01     1.0000000000000000E+00     0.0000000000000000E+00 
    3.7500000000154382E-01     1.0000000000000000E+00     0.0000000000000000E+00 
    3.4375000000141509E-01     1.0000000000000000E+00     0.0000000000000000E+00 
    3.1250000000128642E-01     1.0000000000000000E+00     0.0000000000000000E+00 
    2.8125000000115769E-01     1.0000000000000000E+00     0.0000000000000000E+00 
    2.5000000000102918E-01     1.0000000000000000E+00     0.0000000000000000E+00 
    2.1875000000090050E-01     1.0000000000000000E+00     0.0000000000000000E+00 
    1.8750000000077180E-01     1.0000000000000000E+00     0.0000000000000000E+00 
    1.5625000000064329E-01     1.0000000000000000E+00     0.0000000000000000E+00 
    1.2500000000051459E-01     1.0000000000000000E+00     0.0000000000000000E+00 
    9.3750000000385914E-02     1.0000000000000000E+00     0.0000000000000000E+00 
    6.2500000000257239E-02     1.0000000000000000E+00     0.0000000000000000E+00 
    3.1250000000128557E-02     1.0000000000000000E+00     0.0000000000000000E+00 
    0.0000000000000000E+00     9.6875000000003686E-01     0.0000000000000000E+00 
    0.0000000000000000E+00     9.3750000000011691E-01     0.0000000000000000E+00 
    0.0000000000000000E+00     9.0625000000015765E-01     0.0000000000000000E+00 
    0.0000000000000000E+00     8.7500000000017863E-01     0.0000000000000000E+00 
    0.0000000000000000E+00     8.4375000000028044E-01     0.0000000000000000E+00 
    0.0000000000000000E+00     8.1250000000040856E-01     0.0000000000000000E+00 
    0.0000000000000000E+00     7.8125000000054956E-01     0.0000000000000000E+00 
    0.0000000000000000E+00     7.5000000000066480E-01     0.0000000000000000E+00 
    0.0000000000000000E+00     7.1875000000086831E-01     0.0000000000000000E+00 
    0.0000000000000000E+00     6.8750000000102829E-01     0.0000000000000000E+00 
    0.0000000000000000E+00     6.5625000000114431E-01     0.0000000000000000E+00 
    0.0000000000000000E+00     6.2500000000129829E-01     0.0000000000000000E+00 
    0.0000000000000000E+00     5.9375000000147926E-01     0.0000000000000000E+00 
    0.0000000000000000E+00     5.6250000000168354E-01     0.0000000000000000E+00 
    0.0000000000000000E+00     5.3125000000188671E-01     0.0000000000000000E+00 
    0.0000000000000000E+00     5.0000000000205835E-01     0.0000000000000000E+00 
    0.0000000000000000E+00     4.6875000000192979E-01     0.0000000000000000E+00 
    0.0000000000000000E+00     4.3750000000180111E-01     0.0000000000000000E+00 
    0.0000000000000000E+00     4.0625000000167238E-01     0.0000000000000000E+00 
[...]
CELL_DATA 2795 
SCALARS Pressure double 1 
LOOKUP_TABLE default 

    7.5747514782377321E+00 
    1.7147479456726220E+01 
    1.1977290172745960E+01 
    1.1654454990565780E+01 
    9.2961287797163532E+00 
    1.6985234112522960E+01 
    1.7824836624823352E+01 
    6.7700947570497068E+00 
    1.2534165605588592E+01 
    9.6533694309823659E+00 
    8.2381162367222664E+00 
    1.6684366101225958E+01 
    1.7049073549806959E+01 
    1.6948758175182004E+01 
    1.1047780343295162E+01 
    6.6566333794743775E+00 
    1.0737213101287832E+01 
    8.7700106095439345E+00 
    1.6250995196591816E+01 
    1.1957928214994801E+01 
    1.1853635610188723E+01 
    1.6871194638631803E+01 
    1.1341055453536915E+01 
    4.4231011676552306E-01 
    1.6661305214801178E+01 
    1.7007143856065078E+01 
    1.7859959553807219E+01 
    7.9439070217409995E+00 
    1.6590349860005642E+01 
    1.7849481842934267E+01 
    1.2138872365140099E+01 
    1.2162118711559209E+01 
    8.6397704980229868E+00 
    1.1940151070524173E+01 
    3.8955152808094948E+00 
    1.0742089847462163E+01 
    1.1925345133672344E+01 
    1.7893383414447449E+01 
    1.7798505914916245E+01 
    1.6699198759835152E+01 
    9.2736257263999633E+00 
    1.6667192127554380E+01 
    9.1886995158758311E-01 
    1.1929874223560484E+01 
    1.7600489208246834E+01 
    1.7341516639939410E+01 
    1.6671928242545327E+01 
    1.2943206088515494E+01 
    1.6732918010777475E+01 
    1.0983666248570259E+01 
    1.0467077936009717E+01 
    1.2125809060456197E+01 
    1.1818279747902249E+01 
    1.0805955761700053E+01 
    1.2214281540530138E+01 
    1.6000043284110973E+01 
    1.4037651352674180E+01 
    9.3456230600243604E+00 
    1.6877859694731388E+01 
    1.6783804122913885E+01 
    1.1622038823493135E+01 
    1.1524896942028112E+01 
    1.1540618201688496E+01 
    1.7739114790770603E+01 
    1.8037246598501792E+01 
    1.0752830519822355E+01 
    1.2124236455933286E+01 
    1.6457826934797755E+01 
    1.4027554022698943E+01 
    1.1580579056730599E+01 
    1.8036128082378056E+01 
    1.6824656906967554E+01 
    1.0599028550713500E+01 
    1.7470799628996559E+01 
    1.2472123132267930E+01 
    1.6495014379253234E+01 
    1.7906520416788705E+01 
    1.2569806114745775E+01 
    7.7000083457738944E+00 
    1.2142550879858794E+01 
    1.7808980579299803E+01 
    1.8066171074783540E+01 
    1.0764457101877339E+01 
    1.2068912966055539E+01 
    1.8119519558739871E+01 
    1.1923991329463222E+01 
    1.1442381244865375E+01 
    1.4556502821917608E+01 
    7.3757951770550383E+00 
    1.0494585018977929E+01 
    1.2065937334026176E+01 
    1.2692585793098088E+01 
    1.9707555226034916E+01 
    9.0370467571118489E+00 
    1.2132147996603544E+01 
    1.6646142476871489E+01 
    1.6990131534067025E+01 
    7.9733203611840979E+00 
    1.1782272055319433E+01 
    1.2100183698168365E+01 
    1.7015874596623057E+01 
    1.2090254820914472E+01 
    1.6931209525418360E+01 
    4.8319484819856067E+00 
    8.0092582718696885E+00 
    1.2351606399100049E+01 
    1.7155918166690782E+01 
    1.0700819179130773E+01 
    1.1363592548183121E+01 
    1.2068305278664964E+01 
    1.1402180472655136E+01 
    1.3628649277306332E+01 
    1.1063065938768640E+01 
    1.0609855561899254E+01 
    8.4192698685642728E+00 
    1.4395943974400664E+01 
    1.2167729168976813E+01 
    1.7639233012798375E+01 
    1.0468252897097745E+01 
    1.1631270765205443E+01 
    1.6814956035725999E+01 
    9.7553679239646396E+00 
    1.7332942690950901E+01 
    1.1997111252649038E+01 
    1.1550858369486418E+01 
    1.6993744054485095E+01 
    1.2154995323243982E+01 
    1.7921833202603484E+01 
    1.4601634573499595E+01 
    1.5804130321472229E+01 
    1.7878772208925199E+01 
    9.0547155056238751E+00 
    1.2373703700156764E+01 
    1.6992195925686239E+01 
    3.6048831217113353E+00 
    1.2190682138424442E+01 
    1.7840778183769189E+01 
    1.1582931691340232E+01 
    1.3369993040050712E+01 
    7.8998733870161510E+00 
    1.6642939009924575E+01 
    2.0226715503032594E+01 
    1.5171804613108565E+01 
    1.1583770352198158E+01 
    1.0375636554083373E+01 
    1.2918672964202131E+01 
    1.2014195109945080E+01 
    8.3300528503919349E+00 
    1.7874393144704442E+01 
    1.7012524622616535E+01 
    1.6648080061559273E+01 
    1.2685995758134951E+01 
    1.0571883604378140E+01 
    1.1849998292365735E+01 
    1.7510860732624849E+01 
    1.0865618038882252E+01 
    1.2123236236818096E+01 
    1.1059094577525585E+01 
    1.4086500290262080E+01 
    2.0214184340742360E+01 
    1.6638148030516220E+01 
    1.0586189580482275E+01 
    1.7216837643988036E+01 
    1.7109938511180086E+01 
    1.7200762397553365E+01 
    1.8339356976529423E+01 
    1.8932519061863058E+01 
    1.7331462030986746E+01 
    1.2115894649474775E+01 
    1.3168745880295964E+01 
    1.7142893829352364E+01 
    1.7652354693856893E+01 
    8.6995772749307854E+00 
    1.6671256929886699E+01 
    1.7469114708073729E+01 
    8.4629358531816834E+00 
    1.8252986301675886E+01 
    1.8226346111776895E+01 
    1.6331282598321074E+01 
    1.2448159304301518E+01 
    3.1727372331338541E+00 
    1.7842159256576458E+01 
    1.2290620614422481E+01 
    1.7976859726594554E+01 
    1.1501233464023885E+01 
    1.7640828829438572E+01 
    1.1380377494312497E+00 
    1.5799293835026841E+01 
    1.1574704274432120E+01 
    1.0515994422480693E+01 
    1.0251534428813073E+01 
    1.1964977575961351E+01 
    1.3199409684979821E+01 
    1.2624658131546429E+01 
    8.4901959548010577E+00 
    1.7646375466749930E+01 
    1.7018291503560697E+01 
    1.4119758737359973E+01 
    1.2343289692244586E+01 
    1.8293976640873362E+00 
    9.4681124268068846E+00 
    6.5859880742329597E+00 
    1.7860486332449867E+01 
    1.3437562500808394E+01 
    1.7038797137257124E+01 
    1.7095316316763512E+01 
    1.0954740277630417E+01 
    1.4030013266429568E+01 
    1.6641705346750971E+01 
    1.8207920523320634E+01 
    7.9032408712064814E+00 
    1.5058129919860537E+01 
    1.2593152164385645E+01 
    7.0170585878922189E+00 
    1.0946787593433230E+01 
    1.4679016411353485E+01 
    1.7050876253700160E+01 
    1.2016454935193918E+01 
    1.7176346012161748E+01 
    1.6908925192829408E+01 
    1.6849367906633919E+01 
    1.1854659289333025E+01 
    1.0432840901752169E+01 
    1.6657106816209666E+01 
    1.0595488492830926E+01 
    1.2098661544220615E+01 
    1.0386426032054777E+01 
    1.2075329690781050E+01 
    1.7106408537173326E+01 
    7.5387359306916419E+00 
    1.0838195848065125E+01 
    1.7766478630044478E+01 
    1.1863399263932850E+01 
    1.3328111874045218E+01 
    7.7340123211407894E+00 
    1.0667478380836375E+01 
    1.6883604751510767E+01 
    1.7239689230948517E+01 
    6.3139476322617156E+00 
    1.1875558282017016E+01 
    1.0459573307379813E+01 
    1.8677934159517054E+01 
    1.8076207641303654E+01 
    1.8963872760896560E+01 
    1.1895718638425512E+01 
    1.7074609810323373E+01 
    1.6586239528599478E+01 
    1.1749423137801847E+01 
    1.6648550956982554E+01 
    1.2344535114565209E+01 
    7.0928409553147560E+00 
    1.2262925962994034E+01 
    1.7748171914411806E+01 
    1.6644789031987155E+01 
    8.2051648520430227E+00 
    1.6679686752887878E+01 
    1.3228925568210379E+01 
    1.2167755264774005E+01 
    1.1665850912850756E+01 
    1.6485459543468338E+01 
    1.2744604224429864E+01 
    1.6663470437500852E+01 
    1.1855388744652483E+01 
    7.3086172830702791E+00 
    1.2178277969135445E+01 
    1.0265517120212737E+01 
    1.5208519256288053E+01 
    1.7976661518495561E+01 
    1.6654882512221167E+01 
    1.7833768419529381E+01 
    1.1804040890406306E+01 
    7.9851724351829150E+00 
    8.0964042884893672E+00 
    1.2375005708320803E+01 
    1.2070502863570317E+01 
    1.7677245253100160E+00 
    1.6044287316731221E+01 
    1.8377559574639225E+01 
    1.1518601127922405E+01 
    7.4109687262148478E+00 
    1.4004657316487844E+01 
    1.6677366889403164E+01 
    8.7672340962697337E+00 
    5.9608636185879647E+00 
    1.2054323374132350E+01 
    1.6760728571866256E+01 
    1.7538185264221138E+01 
    1.7389516614760133E+01 
    1.7242623830586989E+01 
    8.6219857343188266E+00 
    1.2162430734869544E+01 
    1.6123540880013344E+01 
    9.4753694698571742E+00 
    1.7033742328846490E+01 
    1.4283605670325015E+01 
    8.2155107368174605E+00 
    1.6786883386825902E+01 
    1.7870214883021497E+01 
    1.6821529178116556E+01 
    8.4404312467342812E+00 
    1.2120296772290924E+01 
    9.2664437693551402E+00 
    1.1449627921010245E+01 
    1.6667849504509533E+01 
    1.6653932439235341E+01 
    8.4888223458421876E+00 
    1.7691300300836968E+01 
    1.2712728990936840E+01 
    1.6688498369288340E+01 
    1.7664681017085837E+01 
    1.6675589422707716E+01 
    1.5446605642908244E+01 
    1.8741907890200231E+01 
    1.1460789867053366E+01 
    1.7798430140562424E+01 
    1.6719046099105466E+01 
    1.7881558722121920E+01 
    1.7684607408342686E+01 
    1.1578257541168243E+01 
    1.1965988103498869E+01 
    1.1507798089216442E+01 
    1.4796909140938595E+01 
    4.8537563933299799E+00 
    1.2302803970399856E+01 
    1.8877124697489545E+01 
    1.2348174520659089E+01 
    1.2566450200061327E+01 
    1.7851114129306929E+01 
    1.8108214220148408E+01 
    1.1361885423478956E+01 
    1.6684715587870762E+01 
    1.6649335684519460E+01 
    1.2551730834637009E+01 
    1.7633926376381321E+01 
    8.6296997402780509E+00 
    5.5156466113871314E+00 
    1.2883570252717430E+01 
    1.2361818521877478E+01 
    1.6654833971107806E+01 
    7.9458893126964547E+00 
    1.7298513456709770E+01 
    5.6125257792115537E+00 
    1.2295883768650246E+01 
    1.1598250269735795E+01 
    1.2097064715274875E+01 
    2.0267102816661428E+01 
    4.7034218236945939E+00 
    1.2210037161935512E+01 
    1.4645071494691644E+01 
    1.1691188583795482E+01 
    9.4430391205938538E+00 
    1.7442689190993054E+01 
    1.9800982471271865E+01 
    1.7605372356005276E+01 
    1.2141333580097850E+01 
    6.9799283766107649E+00 
    1.9642340748114499E+01 
    1.7007594612393003E+01 
    8.8851856627732886E+00 
    1.1758138109040592E+01 
    1.8320424873437048E+01 
    4.0039098003837852E+00 
    1.2422319171338557E+01 
    1.7587740456483509E+01 
    1.2112455561189892E+01 
    1.0566414146178664E+01 
    1.2254828922168841E+01 
    1.6282302549844243E+01 
    1.2094563964207527E+01 
    6.2165474271724213E+00 
    1.1146076383190089E+00 
    9.0484433454819868E+00 
    1.8570133620949079E+01 
    1.1507131727632220E+01 
    1.3643106394158748E+01 
    1.3082409232706526E+01 
    1.5010630007971567E+01 
    1.2126175828319493E+01 
    1.6901460610727622E+01 
    2.0282050145635246E+01 
    1.4484941563860723E+01 
    1.7766837742227107E+01 
    6.5938733965187268E-01 
    1.6656210204252233E+01 
    6.8458604030708283E+00 
    1.9058880437749053E+01 
    1.2225366930256365E+01 
    1.0776936559917406E+01 
    9.4488061998996784E+00 
    6.5247465263599169E+00 
    1.3513788698179127E+01 
    9.5990765564925997E+00 
    1.5088680666634614E+01 
    2.6776534190648311E+00 
    1.3272537539342180E+01 
    1.6573032054200098E+01 
    7.3560490820111557E+00 
    1.7170898275441548E+01 
    1.8837129261069119E+01 
    1.7007271150244730E+01 
    1.2070570410351166E+01 
    1.2090964004597152E+01 
    1.2217217747630286E+01 
    7.0700639111804051E+00 
    1.1190477031910730E+01 
    1.1004782170794986E+01 
    1.2204808411051182E+01 
    1.1425542967304093E+01 
    8.3977332397656201E-01 
    7.8292433288871797E+00 
    1.1891788114619860E+01 
    1.2176030304871734E+01 
    1.5501494819429526E+01 
    2.6260296883425607E+00 
    1.2504465825062475E+01 
    1.2369842822232544E+01 
    4.5318720825193202E+00 
    1.6852586290997930E+01 
    1.0615995281400172E+01 
    1.2225694737591153E+01 
    1.7005091371693588E+01 
    6.5508777700276601E+00 
    1.6974258308258484E+01 
    1.0755322519744869E+01 
    1.1931438122646436E+00 
    1.1580664881908058E+01 
    1.7711538591721613E+01 
    1.6656126192442201E+01 
    1.6677262888236079E+01 
    1.2602965562346538E+01 
    1.2298876563457682E+01 
    1.0590578469371652E+01 
    8.5061812191295534E+00 
    1.7134889849235016E+01 
    1.1751944337521769E+01 
    8.2578531605603214E+00 
    1.6672409717011934E+01 
    1.7461295263451387E+01 
    1.2402528442409311E+01 
    1.1912254274766656E+01 
    2.0153849990847295E+01 
    1.2552857973847495E+01 
    1.7151931719694634E+01 
    1.0078057801515456E+01 
    2.0311045603460684E+01 
    8.0492146130842297E+00 
    1.1064820819737033E+01 
    9.0169064997199619E+00 
    1.2825541222910140E+01 
    1.0326727598437600E+01 
    2.0293936653629924E+01 
    1.2609447889222521E+01 
    1.6237928991308895E+01 
    8.2783184540049444E+00 
    1.2120596967283113E+01 
    1.6967792008250296E+01 
    1.0373291573517161E+01 
    8.9258977529556898E+00 
    1.3623647041984992E+01 
    1.7218565079093665E+01 
    8.8727589929460713E+00 
    1.1623056317940540E+01 
    1.1949523284528171E+01 
    1.6627224354388787E+01 
    1.1718860656855034E+01 
    1.7197834485085210E+01 
    1.7914168676008451E+01 
    1.0625083982666544E+01 
    1.0418293449774159E+01 
    9.6147840492151317E+00 
    1.6790475545059891E+01 
    1.2400674944320054E+01 
    1.9842092173593240E+01 
    1.5490938737837507E+01 
    1.6920812177981759E+01 
    1.9506733945476228E+01 
    1.8843714130285552E+01 
    1.2167848372003839E+01 
    1.2187479528177326E+01 
    1.6357179912394749E+01 
    1.6701049213217662E+01 
    1.7335541835521465E+01 
    1.7032024265298936E+01 
    2.0178152175488759E+01 
    1.2552289512821147E+01 
    1.0744123457054503E+01 
    1.2541489993791677E+01 
    1.7815535043763902E+01 
    1.2263463944060859E+01 
    7.1942640741541171E+00 
    1.2052050451798701E+01 
    1.8286540533994632E+01 
    1.2410860369579833E+01 
    1.0757502190404942E+01 
    1.1889544772145184E+01 
    1.8409111632975996E+01 
    1.6735419549010981E+01 
    1.0267645211529663E+01 
    1.8559577744866196E+01 
    1.2196382647641634E+01 
    1.7318324114577084E+01 
    1.8423279447552893E+01 
    1.2915215080101074E+01 
    6.5577111239462447E+00 
    1.3461018186796055E+01 
    6.7816693029091759E+00 
    1.2313611201194757E+01 
    1.2117098255375847E+01 
    1.4214133318338146E+01 
    7.1722885196053854E+00 
    1.5114798427285177E+01 
    1.2133492475839097E+01 
    1.7020197169073320E+01 
    1.3030571424702549E+01 
    1.0069852185255884E+01 
    1.1742757501311495E+01 
    1.2778846455610609E+01 
    1.2674408990652958E+01 
    1.7968508633574032E+01 
    1.0268480282073735E+01 
    1.0093696909934742E+01 
    7.5548685777345970E+00 
    1.7364799415668198E+01 
    1.1792239558360775E+01 
    1.6482350086560697E+01 
    1.2085518206261606E+01 
    8.2807907173750834E+00 
    1.6767791570086526E+01 
    1.2062126282899060E+01 
    9.0157224813267653E+00 
    9.5319719095280728E+00 
    9.8592113115492701E+00 
    1.7056663721049766E+01 
    1.2207071428532617E+01 
    1.7780616770269617E+01 
    1.2022563877887352E+01 
    1.1961661227608205E+01 
    1.1530031198176195E+01 
    1.6867433457890304E+01 
    1.1875237846695233E+01 
    9.9045878122600257E+00 
    1.8831998466593518E+01 
    1.6963319662731486E+01 
    8.4309060934456870E+00 
    3.3124204559867092E+00 
    1.2195306426587221E+01 
    1.1405154395056057E+01 
    1.0403054410907709E+01 
    1.1300959171998308E+01 
    1.6896825050238895E+01 
    1.1859707305555080E+01 
    1.0806142570655847E+01 
    1.6726797956268971E+01 
    8.3574417790902142E+00 
    1.6314492037226579E+01 
    1.1005543309482757E+01 
    9.9164000222749458E+00 
    1.0503144493543017E+01 
    1.7415484138871445E+01 
    1.2099621580917896E+01 
    1.2108118223933925E+01 
    7.2734930323753444E+00 
    7.8616807062446954E+00 
    1.5355296436716085E+01 
    1.2118052783409683E+01 
    1.2240472021820199E+01 
    1.8545526301017190E+01 
    1.0097350487351209E+01 
    1.2130396291694659E+01 
    8.6446964619327940E+00 
    8.9233044505508197E+00 
    1.6852834133030385E+01 
    1.1746931426049612E+01 
    8.6654470157221422E+00 
    1.2691001293010286E+01 
    1.2020772282893001E+01 
    1.6859324107253865E+01 
    1.8647327452449996E+01 
    1.2515178981051018E+00 
    1.2200876781676135E+01 
    1.2360531217147866E+01 
    1.6939352356791751E+01 
    1.1663751132501982E+01 
    1.2071854674151096E+01 
    1.8032036645233859E+01 
    1.0547170748408858E+01 
    8.7439652778475061E+00 
    1.4518866715541824E+01 
    1.6672298711193381E+01 
    1.7879027269824316E+01 
    1.8178983458892258E+01 
    1.2021450747504289E+01 
    1.2191046411249621E+01 
    1.3523584610776856E+01 
    8.0186020071228246E+00 
    1.6825016620454491E+01 
    9.4157632552970671E+00 
    8.3434716852504227E+00 
    1.5135871012815402E+01 
    1.4233701580460032E+01 
    8.1855051789179551E+00 
    1.6713914083563871E+01 
    1.7863642373523568E+01 
    1.2570883571340030E+01 
    1.8759546092562406E+01 
    1.6752999289108608E+01 
    1.1727547880169839E+01 
    1.7558461219937275E+01 
    8.9174357299573046E+00 
    1.6694201554794219E+01 
    1.2199573630139115E+01 
    1.2156888232636710E+01 
    1.8735113225901404E+01 
    1.1834639571576995E+01 
    1.4868868228985997E+01 
    1.0486413429320882E+01 
    1.7997383278509218E+01 
    1.6582094502243041E+01 
    1.0935401680831436E+01 
    1.6643022428212412E+01 
    1.1035855131740172E+01 
    1.2079092554361333E+01 
    1.7817364734502011E+01 
    1.7029005044612614E+01 
    1.7867082965963967E+01 
    1.6943200985014936E+01 
    1.1195826144669155E+01 
    1.1444763938782813E+01 
    1.7875350569218845E+01 
    1.1591278794033123E+01 
    1.6484447245076783E+01 
    1.1817994791971635E+01 
    4.8817468788566876E+00 
    8.4289512247758953E+00 
    7.8094559332798630E+00 
    1.7821646027029459E+01 
    1.8655469887152613E+01 
    1.6664486566963827E+01 
    1.3882254008112346E+01 
    1.7000697855486933E+01 
    1.6724075241922584E+01 
    1.7413777581997440E+01 
    7.0267408867694670E+00 
    4.5441492387414382E+00 
    1.3621837270105340E+01 
    1.1843771409194613E+01 
    1.6900410497309657E+01 
    1.6897503195764198E+01 
    1.2381932326109144E+01 
    1.6941453276691984E+01 
    1.2184577319874053E+01 
    1.2099190624884324E+01 
    6.3425637281700622E+00 
    4.5314054736866023E+00 
    1.8404453150273593E+01 
    9.4709752116139683E+00 
    1.0864326846939232E+01 
    1.2275180021542097E+01 
    2.0156869751597092E+01 
    1.2370727447516495E+01 
    1.2548306744423936E+01 
    5.1643296933138148E+00 
    1.2370689650654816E+01 
    1.2385497265606949E+01 
    1.7224506793450718E+01 
    1.0511448354340496E+01 
    1.1616663146823070E+01 
    1.8592193055821966E+01 
    1.2210339516209432E+01 
    1.6683047339225205E+01 
    1.6941981615142879E+01 
    1.4829263192243836E+01 
    1.0304787581996687E+01 
    1.6942766628462930E+01 
    1.1984383891021281E+01 
    1.6867480996383076E+01 
    1.6610879467023015E+01 
    1.7843586399516862E+01 
    1.6940478038947195E+01 
    1.5818286637958304E+01 
    1.2197365122713300E+01 
    8.1202695982100117E+00 
    2.0022579699640460E+01 
    9.6065379307714576E+00 
    1.7758181707377769E+01 
    1.2194485945779210E+01 
    1.0153589512072317E+01 
    6.0555246753268523E+00 
    1.2424141504539001E+01 
    1.6927065468280382E+01 
    1.6922328075000731E+01 
    1.2058984016496861E+01 
    1.2188012422394531E+01 
    1.8818648136440643E+01 
    1.8115373359273573E+01 
    1.2391792790517917E+01 
    4.2247728214885871E+00 
    1.5648669169568798E+01 
    2.0290440771195712E+01 
    1.2201037382801010E+01 
    1.4337697822187033E+01 
    1.1663194595389331E+01 
    1.9868869735170488E+01 
    1.8206304532390522E+01 
    1.7916191812288361E+01 
    1.2415529022827304E+01 
    5.6270817185045177E+00 
    1.1614679523686686E+01 
    1.1689969385305412E+01 
    1.1733419834381980E+01 
    4.6098342278485438E+00 