# vtk DataFile Version 2.0
Pressure Field Data 
ASCII 
DATASET UNSTRUCTURED_GRID 

POINTS 2860 double 

    0.0000000000000000E+00     0.0000000000000000E+00     0.0000000000000000E+00 
    1.0000000000000000E+00     0.0000000000000000E+00     0.0000000000000000E+00 
    1.0000000000000000E+00     1.0000000000000000E+00     0.0000000000000000E+00 
    0.0000000000000000E+00     1.0000000000000000E+00     0.0000000000000000E+00 
    2.5000000000000000E-01     2.5000000000000000E-01     0.0000000000000000E+00 
    7.5000000000000000E-01     2.5000000000000000E-01     0.0000000000000000E+00 
    7.5000000000000000E-01     7.5000000000000000E-01     0.0000000000000000E+00 
    2.5000000000000000E-01     7.5000000000000000E-01     0.0000000000000000E+00 
    3.1249999999942091E-02     0.0000000000000000E+00     0.0000000000000000E+00 
    6.2499999999873469E-02     0.0000000000000000E+00     0.0000000000000000E+00 
    9.3749999999826514E-02     0.0000000000000000E+00     0.0000000000000000E+00 
    1.2499999999977961E-01     0.0000000000000000E+00     0.0000000000000000E+00 
    1.5624999999968961E-01     0.0000000000000000E+00     0.0000000000000000E+00 
    1.8749999999959971E-01     0.0000000000000000E+00     0.0000000000000000E+00 
    2.1874999999950970E-01     0.0000000000000000E+00     0.0000000000000000E+00 
    2.4999999999941969E-01     0.0000000000000000E+00     0.0000000000000000E+00 
    2.8124999999932920E-01     0.0000000000000000E+00     0.0000000000000000E+00 
    3.1249999999923850E-01     0.0000000000000000E+00     0.0000000000000000E+00 
    3.4374999999914790E-01     0.0000000000000000E+00     0.0000000000000000E+00 
    3.7499999999905720E-01     0.0000000000000000E+00     0.0000000000000000E+00 
    4.0624999999896660E-01     0.0000000000000000E+00     0.0000000000000000E+00 
    4.3749999999887590E-01     0.0000000000000000E+00     0.0000000000000000E+00 
    4.6874999999878530E-01     0.0000000000000000E+00     0.0000000000000000E+00 
    4.9999999999869471E-01     0.0000000000000000E+00     0.0000000000000000E+00 
    5.3124999999877620E-01     0.0000000000000000E+00     0.0000000000000000E+00 
    5.6249999999885780E-01     0.0000000000000000E+00     0.0000000000000000E+00 
    5.9374999999893940E-01     0.0000000000000000E+00     0.0000000000000000E+00 
    6.2499999999902101E-01     0.0000000000000000E+00     0.0000000000000000E+00 
    6.5624999999910261E-01     0.0000000000000000E+00     0.0000000000000000E+00 
    6.8749999999918421E-01     0.0000000000000000E+00     0.0000000000000000E+00 
    7.1874999999926570E-01     0.0000000000000000E+00     0.0000000000000000E+00 
    7.4999999999934730E-01     0.0000000000000000E+00     0.0000000000000000E+00 
    7.8124999999942890E-01     0.0000000000000000E+00     0.0000000000000000E+00 
    8.1249999999951039E-01     0.0000000000000000E+00     0.0000000000000000E+00 
    8.4374999999959199E-01     0.0000000000000000E+00     0.0000000000000000E+00 
    8.7499999999967359E-01     0.0000000000000000E+00     0.0000000000000000E+00 
    9.0624999999975520E-01     0.0000000000000000E+00     0.0000000000000000E+00 
    9.3749999999983680E-01     0.0000000000000000E+00     0.0000000000000000E+00 
    9.6874999999991840E-01     0.0000000000000000E+00     0.0000000000000000E+00 
    1.0000000000000000E+00     3.1249999999942091E-02     0.0000000000000000E+00 
    1.0000000000000000E+00     6.2499999999873469E-02     0.0000000000000000E+00 
    1.0000000000000000E+00     9.3749999999826514E-02     0.0000000000000000E+00 
    1.0000000000000000E+00     1.2499999999977961E-01     0.0000000000000000E+00 
    1.0000000000000000E+00     1.5624999999968961E-01     0.0000000000000000E+00 
    1.0000000000000000E+00     1.8749999999959971E-01     0.0000000000000000E+00 
    1.0000000000000000E+00     2.1874999999950970E-01     0.0000000000000000E+00 
    1.0000000000000000E+00     2.4999999999941969E-01     0.0000000000000000E+00 
    1.0000000000000000E+00     2.8124999999932920E-01     0.0000000000000000E+00 
    1.0000000000000000E+00     3.1249999999923850E-01     0.0000000000000000E+00 
    1.0000000000000000E+00     3.4374999999914790E-01     0.0000000000000000E+00 
    1.0000000000000000E+00     3.7499999999905720E-01     0.0000000000000000E+00 
    1.0000000000000000E+00     4.0624999999896660E-01     0.0000000000000000E+00 
    1.0000000000000000E+00     4.3749999999887590E-01     0.0000000000000000E+00 
    1.0000000000000000E+00     4.6874999999878530E-01     0.0000000000000000E+00 
    1.0000000000000000E+00     4.9999999999869471E-01     0.0000000000000000E+00 
    1.0000000000000000E+00     5.3124999999877620E-01     0.0000000000000000E+00 
    1.0000000000000000E+00     5.6249999999885780E-01     0.0000000000000000E+00 
    1.0000000000000000E+00     5.9374999999893940E-01     0.0000000000000000E+00 
    1.0000000000000000E+00     6.2499999999902101E-01     0.0000000000000000E+00 
    1.0000000000000000E+00     6.5624999999910261E-01     0.0000000000000000E+00 
    1.0000000000000000E+00     6.8749999999918421E-01     0.0000000000000000E+00 
    1.0000000000000000E+00     7.1874999999926570E-01     0.0000000000000000E+00 
    1.0000000000000000E+00     7.4999999999934730E-01     0.0000000000000000E+00 
    1.0000000000000000E+00     7.8124999999942890E-01     0.0000000000000000E+00 
    1.0000000000000000E+00     8.1249999999951039E-01     0.0000000000000000E+00 
    1.0000000000000000E+00     8.4374999999959199E-01     0.0000000000000000E+00 
    1.0000000000000000E+00     8.7499999999967359E-01     0.0000000000000000E+00 
    1.0000000000000000E+00     9.0624999999975520E-01     0.0000000000000000E+00 
    1.0000000000000000E+00     9.3749999999983680E-01     0.0000000000000000E+00 
    1.0000000000000000E+00     9.6874999999991840E-01     0.0000000000000000E+00 
    9.6875000000003686E-01     1.0000000000000000E+00     0.0000000000000000E+00 
    9.3750000000011691E-01     1.0000000000000000E+00     0.0000000000000000E+00 
    9.0625000000015765E-01     1.0000000000000000E+00     0.0000000000000000E+00 
    8.7500000000017863E-01     1.0000000000000000E+00     0.0000000000000000E+00 
    8.4375000000028044E-01     1.0000000000000000E+00     0.0000000000000000E+00 
    8.1250000000040856E-01     1.0000000000000000E+00     0.0000000000000000E+00 
    7.8125000000054956E-01     1.0000000000000000E+00     0.0000000000000000E+00 
    7.5000000000066480E-01     1.0000000000000000E+00     0.0000000000000000E+00 
    7.1875000000086831E-01     1.0000000000000000E+00     0.0000000000000000E+00 
    6.8750000000102829E-01     1.0000000000000000E+00     0.0000000000000000E+00 
    6.5625000000114431E-01     1.0000000000000000E+00     0.0000000000000000E+00 
    6.2500000000129829E-01     1.0000000000000000E+00     0.0000000000000000E+00 
    5.9375000000147926E-01     1.0000000000000000E+00     0.0000000000000000E+00 
    5.6250000000168354E-01     1.0000000000000000E+00     0.0000000000000000E+00 
    5.3125000000188671E-01     1.0000000000000000E+00     0.0000000000000000E+00 
    5.0000000000205835E-01     1.0000000000000000E+00     0.0000000000000000E+00 
    4.6875000000192979E-01     1.0000000000000000E+00     0.0000000000000000E+00 
    4.3750000000180111E-01     1.0000000000000000E+00     0.0000000000000000E+00 
    4.0625000000167238E-01     1.0000000000000000E+00     0.0000000000000000E+00 
    3.7500000000154382E-01     1.0000000000000000E+00     0.0000000000000000E+00 
    3.4375000000141509E-01     1.0000000000000000E+00     0.0000000000000000E+00 
    3.1250000000128642E-01     1.0000000000000000E+00     0.0000000000000000E+00 
    2.8125000000115769E-01     1.0000000000000000E+00     0.0000000000000000E+00 
    2.5000000000102918E-01     1.0000000000000000E+00     0.0000000000000000E+00 
    2.1875000000090050E-01     1.0000000000000000E+00     0.0000000000000000E+00 
    1.8750000000077180E-01     1.0000000000000000E+00     0.0000000000000000E+00 
    1.5625000000064329E-01     1.0000000000000000E+00     0.0000000000000000E+00 
    1.2500000000051459E-01     1.0000000000000000E+00     0.0000000000000000E+00 
    9.3750000000385914E-02     1.0000000000000000E+00     0.0000000000000000E+00 
    6.2500000000257239E-02     1.0000000000000000E+00     0.0000000000000000E+00 
    3.1250000000128557E-02     1.0000000000000000E+00     0.0000000000000000E+00 
    0.0000000000000000E+00     9.6875000000003686E-01     0.0000000000000000E+00 
    0.0000000000000000E+00     9.3750000000011691E-01     0.0000000000000000E+00 
    0.0000000000000000E+00     9.0625000000015765E-01     0.0000000000000000E+00 
    0.0000000000000000E+00     8.7500000000017863E-01     0.0000000000000000E+00 
    0.0000000000000000E+00     8.4375000000028044E-01     0.0000000000000000E+00 
    0.0000000000000000E+00     8.1250000000040856E-01     0.0000000000000000E+00 
    0.0000000000000000E+00     7.8125000000054956E-01     0.0000000000000000E+00 
    0.0000000000000000E+00     7.5000000000066480E-01     0.0000000000000000E+00 
    0.0000000000000000E+00     7.1875000000086831E-01     0.0000000000000000E+00 
    0.0000000000000000E+00     6.8750000000102829E-01     0.0000000000000000E+00 
    0.0000000000000000E+00     6.5625000000114431E-01     0.0000000000000000E+00 
    0.0000000000000000E+00     6.2500000000129829E-01     0.0000000000000000E+00 
    0.0000000000000000E+00     5.9375000000147926E-01     0.0000000000000000E+00 
    0.0000000000000000E+00     5.6250000000168354E-01     0.0000000000000000E+00 
    0.0000000000000000E+00     5.3125000000188671E-01     0.0000000000000000E+00 
    0.0000000000000000E+00     5.0000000000205835E-01     0.0000000000000000E+00 
    0.0000000000000000E+00     4.6875000000192979E-01     0.0000000000000000E+00 
    0.0000000000000000E+00     4.3750000000180111E-01     0.0000000000000000E+00 
    0.0000000000000000E+00     4.0625000000167238E-01     0.0000000000000000E+00 
[...]
CELL_DATA 2795 
SCALARS Pressure double 1 
LOOKUP_TABLE default 

    7.7715403842312938E+00 
    2.1442017334370615E+01 
    1.3087848914400546E+01 
    1.2550257775081491E+01 
    9.6750437650715373E+00 
    2.0650120150759907E+01 
    2.2502997909810826E+01 
    6.8838938887204524E+00 
    1.3878771163699806E+01 
    1.0367661366937776E+01 
    8.7168756914504080E+00 
    2.0108600866880977E+01 
    2.1127414977988209E+01 
    2.0582604618399269E+01 
    1.1951176086781288E+01 
    6.7611599033874947E+00 
    1.1365600137655408E+01 
    9.3291281228390570E+00 
    1.9333783972650313E+01 
    1.3069166592253998E+01 
    1.2912745629613836E+01 
    2.0418966740974280E+01 
    1.2131075597144488E+01 
    4.4729373932781769E-01 
    2.0387643137392701E+01 
    2.1144840744485538E+01 
    2.2589758530025797E+01 
    8.3556341003522583E+00 
    1.9934078135985278E+01 
    2.3171994375935054E+01 
    1.3345216442659696E+01 
    1.3384942572169789E+01 
    9.0481484600514506E+00 
    1.3032291307725561E+01 
    4.0282996381881793E+00 
    1.1370963796168313E+01 
    1.3014868642762627E+01 
    2.3373821217084039E+01 
    2.2426657348194691E+01 
    2.0134806474205938E+01 
    9.5890608747349102E+00 
    2.0468506605533509E+01 
    9.2844496520588105E-01 
    1.2955303288132361E+01 
    2.2487287008833544E+01 
    2.1647326518227484E+01 
    2.0087351209202332E+01 
    1.4483364557745663E+01 
    2.0135319926730691E+01 
    1.1667139860864260E+01 
    1.1033009957638102E+01 
    1.3336324426244268E+01 
    1.2777983436410775E+01 
    1.1444215423967664E+01 
    1.3474295400891528E+01 
    1.8904696449550389E+01 
    1.6150604646537708E+01 
    9.7301972656272167E+00 
    2.0444412528306213E+01 
    2.0259831102314710E+01 
    1.2613159646481357E+01 
    1.2533908302875350E+01 
    1.2397880430657162E+01 
    2.2853603111663240E+01 
    2.3708049857725332E+01 
    1.1382450686107639E+01 
    1.3334958361546896E+01 
    1.9689491209048352E+01 
    1.5899920989684219E+01 
    1.2582940368300903E+01 
    2.3039939989160974E+01 
    2.0724313230963563E+01 
    1.1194330184552708E+01 
    2.1828895343878951E+01 
    1.3879566961569974E+01 
    2.0143274725222739E+01 
    2.3431530057510116E+01 
    1.3888428472788727E+01 
    7.9197084533423361E+00 
    1.3361349301707490E+01 
    2.2455533377136639E+01 
    2.4000650166514365E+01 
    1.1422084017474972E+01 
    1.3241632467352485E+01 
    2.3750886774526730E+01 
    1.3017442691852935E+01 
    1.2265374009197471E+01 
    1.6659736176217802E+01 
    7.5387118666804103E+00 
    1.1066238012538347E+01 
    1.3240563469620543E+01 
    1.4102724942610052E+01 
    2.7951666866049873E+01 
    9.3867247150071034E+00 
    1.3346447479152337E+01 
    2.0048400257952206E+01 
    2.0999581580865318E+01 
    8.1899299295462438E+00 
    1.2824651178024832E+01 
    1.3284980496871936E+01 
    2.1058932568833352E+01 
    1.3285026825264499E+01 
    2.0884036936953514E+01 
    4.8588150270319703E+00 
    8.4643584909050862E+00 
    1.3664265611410046E+01 
    2.1472652403299339E+01 
    1.1312579719171030E+01 
    1.2283230041897802E+01 
    1.3262440731741235E+01 
    1.2223442197335620E+01 
    1.5555666537444148E+01 
    1.1878126219631763E+01 
    1.1204590810304449E+01 
    8.6442602247866080E+00 
    1.6724792296633385E+01 
    1.3388003586589328E+01 
    2.2683766606413325E+01 
    1.1346388238137774E+01 
    1.2528705149124617E+01 
    2.0725073355523129E+01 
    1.0177481693199434E+01 
    2.1839952139340610E+01 
    1.3130176159192377E+01 
    1.2414030765052670E+01 
    2.1013241729595695E+01 
    1.3379210195260917E+01 
    2.3020218168634159E+01 
    1.6700551637542652E+01 
    1.8572219112626588E+01 
    2.2646819483856952E+01 
    9.4048592203491026E+00 
    1.3692816447069776E+01 
    2.1070953061790537E+01 
    3.6117580377018812E+00 
    1.3435753841701608E+01 
    2.2528390251744401E+01 
    1.2465995194219078E+01 
    1.5102519354939099E+01 
    8.1191868724897258E+00 
    2.0081031998371866E+01 
    2.9162983530249512E+01 
    1.7573726889366139E+01 
    1.2457026066817047E+01 
    1.0926227734909395E+01 
    1.4582946681618466E+01 
    1.3155101513727720E+01 
    8.8072510001617026E+00 
    2.2769109816658816E+01 
    2.0896640067393243E+01 
    2.0054039916179168E+01 
    1.4118418780418736E+01 
    1.1161229826957104E+01 
    1.2909463813909991E+01 
    2.1833651920555397E+01 
    1.1512449195525470E+01 
    1.3232474045059377E+01 
    1.1769931457454904E+01 
    1.6329921232380862E+01 
    2.9140239761975710E+01 
    2.0026818243021804E+01 
    1.1101908297642405E+01 
    2.1508525335021755E+01 
    2.1365293144954073E+01 
    2.1572618107080437E+01 
    2.4806978452772348E+01 
    2.6393648822366480E+01 
    2.1515647100484848E+01 
    1.3323079912061679E+01 
    1.4790615867898680E+01 
    2.1021639764246189E+01 
    2.2481587537380118E+01 
    9.2086293982063143E+00 
    2.0079576877285284E+01 
    2.1692258126813211E+01 
    8.9594300023684017E+00 
    2.4268715684012815E+01 
    2.4473470415368165E+01 
    1.9466073888549762E+01 
    1.3798059052219422E+01 
    3.3277935782401813E+00 
    2.2671950077354090E+01 
    1.3572595948606235E+01 
    2.3612755522103011E+01 
    1.2363438435729119E+01 
    2.2186674972731225E+01 
    1.1628295281323677E+00 
    1.8564380533934443E+01 
    1.2596958139253408E+01 
    1.1097125856042720E+01 
    1.0776917944676843E+01 
    1.3085174097313269E+01 
    1.4917724633496116E+01 
    1.3975621481096123E+01 
    8.7815459507227480E+00 
    2.2579289284620000E+01 
    2.1148211839858970E+01 
    1.6101134375739598E+01 
    1.3650434877451090E+01 
    1.8145431258468616E+00 
    9.8695873211149543E+00 
    6.6980510628469743E+00 
    2.3320080799703856E+01 
    1.5402774355558222E+01 
    2.0791506148676305E+01 
    2.1301563918125495E+01 
    1.1677982396696455E+01 
    1.6343876477434780E+01 
    2.0021741509913305E+01 
    2.4355824168939417E+01 
    8.0880327120643276E+00 
    1.7765551164250752E+01 
    1.3945286690366661E+01 
    7.1510586536889766E+00 
    1.1634390091766207E+01 
    1.7364151485764758E+01 
    2.1213050438478103E+01 
    1.3164723409949238E+01 
    2.1504666602682150E+01 
    2.0904597824548539E+01 
    2.0797060777322791E+01 
    1.2918417910460484E+01 
    1.1058089410395318E+01 
    2.0074848067257477E+01 
    1.1191884573886691E+01 
    1.3291900618875182E+01 
    1.0936364979892959E+01 
    1.3151912647955657E+01 
    2.1319358723485941E+01 
    7.9668802731348825E+00 
    1.1503624290123224E+01 
    2.2714337610739900E+01 
    1.2936812754713756E+01 
    1.5218859808234370E+01 
    8.1728205330287267E+00 
    1.1284545536218257E+01 
    2.0851766995277110E+01 
    2.1656660094041204E+01 
    6.6675653498136063E+00 
    1.2945352383613558E+01 
    1.1010452994867332E+01 
    2.5755268642566190E+01 
    2.3966431825039578E+01 
    2.6509726971653919E+01 
    1.2975666047820592E+01 
    2.1260804932414388E+01 
    1.9909804864679490E+01 
    1.2787066898787254E+01 
    2.0049068187097674E+01 
    1.3650510269816442E+01 
    7.2514442757560200E+00 
    1.3471562327256180E+01 
    2.2985029570648305E+01 
    2.0040655076683475E+01 
    8.6623027355998001E+00 
    2.0097790001674873E+01 
    1.4963519512251551E+01 
    1.3406447603977046E+01 
    1.2598675165787682E+01 
    1.9747130301947482E+01 
    1.4296493307296565E+01 
    2.0080261515333895E+01 
    1.2851132268382667E+01 
    7.5232993529827059E+00 
    1.3393393651424782E+01 
    1.0796750253838153E+01 
    1.7613475604799781E+01 
    2.3092502335793121E+01 
    2.0082001533287258E+01 
    2.2522649195028482E+01 
    1.2860227699041220E+01 
    8.4385397776867332E+00 
    8.5634699340765827E+00 
    1.3722737542984826E+01 
    1.3257486946313081E+01 
    1.8269716108284018E+00 
    1.8965347518245554E+01 
    2.4795894016749745E+01 
    1.2377214338340670E+01 
    7.5734643218855231E+00 
    1.6067924885542311E+01 
    2.0086349614961552E+01 
    9.0766036948881883E+00 
    6.0335474642392022E+00 
    1.3223865064912452E+01 
    2.0330042979329566E+01 
    2.2414109246603321E+01 
    2.1490620356921088E+01 
    2.1675369302747800E+01 
    8.8447273863529574E+00 
    1.3388695274189464E+01 
    1.9537617535228279E+01 
    1.0164784609141966E+01 
    2.1094885889023963E+01 
    1.6757895575776484E+01 
    8.6920172631092640E+00 
    2.0232430857936517E+01 
    2.3158638884367168E+01 
    2.0663125038895231E+01 
    8.7245789998773695E+00 
    1.3329482731409392E+01 
    9.6440321786295566E+00 
    1.2521186566793036E+01 
    2.0077170389667597E+01 
    2.0055671931553547E+01 
    8.7763818759562380E+00 
    2.2216123722764355E+01 
    1.4198888871954262E+01 
    2.0194851582089925E+01 
    2.2722482054084601E+01 
    2.0130821406206458E+01 
    1.8019450646624009E+01 
    2.5966210289255983E+01 
    1.2330074614816086E+01 
    2.2425752941508833E+01 
    2.0214496841875896E+01 
    2.2690870879742196E+01 
    2.2159754003709836E+01 
    1.2481958886352553E+01 
    1.3074877104928651E+01 
    1.2360620382509172E+01 
    1.7058696283947242E+01 
    4.8819395556165563E+00 
    1.3613744410080598E+01 
    2.6315782148528271E+01 
    1.3659415800984393E+01 
    1.3982268845780968E+01 
    2.2610658306871017E+01 
    2.3175034737150803E+01 
    1.2285577522604820E+01 
    2.0103559405932661E+01 
    2.0058970912456317E+01 
    1.3960460777732848E+01 
    2.2019509468941983E+01 
    9.1551952190138106E+00 
    5.8012817576769260E+00 
    1.4451802801078685E+01 
    1.3679126681939774E+01 
    2.0041017004666585E+01 
    8.1689340625797815E+00 
    2.1284876732702806E+01 
    5.9153868705310639E+00 
    1.3583361440263920E+01 
    1.2610429251442854E+01 
    1.3295821191239117E+01 
    2.9239703066074977E+01 
    4.7351869767995725E+00 
    1.3467999653293440E+01 
    1.7149236106081542E+01 
    1.2717834912468062E+01 
    9.7319260478886402E+00 
    2.1626633419367838E+01 
    2.8105455278814620E+01 
    2.2229613505720931E+01 
    1.3369310726749257E+01 
    7.1084393223667766E+00 
    2.8005027296606180E+01 
    2.1099678814403397E+01 
    9.2853597999869564E+00 
    1.2692192524883525E+01 
    2.4771942304649052E+01 
    4.0136484077462811E+00 
    1.3768918480781418E+01 
    2.2480007667306271E+01 
    1.3314848427401294E+01 
    1.1466045206835974E+01 
    1.3537911618905133E+01 
    1.9737331008992044E+01 
    1.3287637862832717E+01 
    6.2911150258639186E+00 
    1.1483793707220218E+00 
    9.6452041768417907E+00 
    2.5345292302481152E+01 
    1.2357765795435286E+01 
    1.5735475528975524E+01 
    1.4844897530497962E+01 
    1.7869332733329163E+01 
    1.3333999536892097E+01 
    2.0878199911266673E+01 
    2.9265156697679014E+01 
    1.6512870688065782E+01 
    2.2351535226607364E+01 
    6.6961444374135326E-01 
    2.0056254025758065E+01 
    7.0140540068324269E+00 
    2.6734129730053056E+01 
    1.3491951313714811E+01 
    1.1657161906943060E+01 
    9.8496296975976652E+00 
    6.6273895292260150E+00 
    1.5258409519159141E+01 
    1.0265290668666898E+01 
    1.7414456153387182E+01 
    2.7918152056926666E+00 
    1.5028690922337979E+01 
    1.9891489110643349E+01 
    7.7593034114350177E+00 
    2.1174063625806621E+01 
    2.5241861153849595E+01 
    2.0932024849623886E+01 
    1.3269513708268448E+01 
    1.3288318037820568E+01 
    1.3479061717114478E+01 
    7.2075804695827239E+00 
    1.1932266831694120E+01 
    1.1690399276340372E+01 
    1.3459953973416230E+01 
    1.2260032379936758E+01 
    8.5872818047633692E-01 
    8.0880447284445047E+00 
    1.2887302765018045E+01 
    1.3418448409417456E+01 
    1.8075976094068864E+01 
    2.6218064553536955E+00 
    1.3890497684245691E+01 
    1.3691324013190881E+01 
    4.5506208488229589E+00 
    2.0546363572464262E+01 
    1.1241550113800260E+01 
    1.3481699338418245E+01 
    2.1073167643168681E+01 
    6.6473108802926451E+00 
    2.0775281312457743E+01 
    1.1378383408117550E+01 
    1.1801491693132671E+00 
    1.2455621871286702E+01 
    2.2457448604411951E+01 
    2.0066842143321200E+01 
    2.0116062711012574E+01 
    1.4087047475329793E+01 
    1.3587456702129186E+01 
    1.1195745791121928E+01 
    8.8279784608156184E+00 
    2.1337293614581018E+01 
    1.2686413173001570E+01 
    8.5903360250807506E+00 
    2.0097043001427462E+01 
    2.1976846905161430E+01 
    1.3759699259372631E+01 
    1.3005883447025596E+01 
    2.9025257012301708E+01 
    1.3962142345925221E+01 
    2.1416756643367329E+01 
    1.0572455854094425E+01 
    2.9307410758031263E+01 
    8.5133268478126354E+00 
    1.1885455796083370E+01 
    9.5834725454179353E+00 
    1.4366149818135044E+01 
    1.1115025369447284E+01 
    2.9280793616976297E+01 
    1.4045966736004820E+01 
    1.9707427038813400E+01 
    8.7580778740441279E+00 
    1.3329179999863458E+01 
    2.1026226045153550E+01 
    1.1153478766675789E+01 
    9.2063162766205231E+00 
    1.5521439502597319E+01 
    2.1137275600656242E+01 
    9.4560627018589258E+00 
    1.2639859379520077E+01 
    1.3051129815158037E+01 
    2.0009362087843456E+01 
    1.2757637571043396E+01 
    2.1572807365757683E+01 
    2.2799217007483314E+01 
    1.1226202202661465E+01 
    1.0977636863233275E+01 
    1.0333618146037614E+01 
    2.0300092776805723E+01 
    1.3702772194792889E+01 
    2.8236406530538158E+01 
    1.8312255811212090E+01 
    2.0916262176952532E+01 
    2.7697417111666745E+01 
    2.5399846404277103E+01 
    1.3395474913019182E+01 
    1.3434607098350432E+01 
    1.9490343438278121E+01 
    2.0130971343687126E+01 
    2.1809507647995034E+01 
    2.1144925556014776E+01 
    2.9072184983726345E+01 
    1.3961297792821750E+01 
    1.1391646642400435E+01 
    1.3902071594339432E+01 
    2.2472001302203736E+01 
    1.3534902214868026E+01 
    7.5659861977779803E+00 
    1.3243039634435716E+01 
    2.4568041083979821E+01 
    1.3751909690952148E+01 
    1.1389364302244495E+01 
    1.2963547826005991E+01 
    2.5005759128287785E+01 
    2.0599342899348688E+01 
    1.0747231522680197E+01 
    2.5384136783415801E+01 
    1.3437539331129027E+01 
    2.1849169915535839E+01 
    2.4918588756578227E+01 
    1.4470132201024784E+01 
    6.6610255971735679E+00 
    1.5269377184295678E+01 
    6.8985728029771760E+00 
    1.3608028901044021E+01 
    1.3317262392043869E+01 
    1.6401397635345138E+01 
    7.3146469343468148E+00 
    1.7842502146578230E+01 
    1.3346246956094399E+01 
    2.1123388775332906E+01 
    1.4634583174391580E+01 
    1.0462263624910129E+01 
    1.2776979553363269E+01 
    1.4357499071028741E+01 
    1.4142033052550049E+01 
    2.3540406920536554E+01 
    1.0800240858981233E+01 
    1.0591575925730663E+01 
    7.7167144851481639E+00 
    2.1891244370018608E+01 
    1.2838286850770904E+01 
    2.0138442234024620E+01 
    1.3274720317939247E+01 
    8.4933336242179180E+00 
    2.0637296986409055E+01 
    1.3238894903689701E+01 
    9.3280899047084826E+00 
    9.9341292010596387E+00 
    1.0319557628135167E+01 
    2.1191703717545536E+01 
    1.3463334894420543E+01 
    2.2381748881876224E+01 
    1.3178552570652633E+01 
    1.3087953942757196E+01 
    1.2502823023027572E+01 
    2.0814835935330816E+01 
    1.2966481445075333E+01 
    1.0371125250054469E+01 
    2.5365632863060718E+01 
    2.0987773746485388E+01 
    8.9297849493447234E+00 
    3.3106602215508421E+00 
    1.3444611336487597E+01 
    1.2379886004244497E+01 
    1.0965492996738952E+01 
    1.2189292552541708E+01 
    2.0463753866637703E+01 
    1.2964751149941227E+01 
    1.1498014476820648E+01 
    2.0179288392192340E+01 
    8.8498224163483528E+00 
    1.9423955251104633E+01 
    1.1933949980798056E+01 
    1.0290335781810866E+01 
    1.1092531236275708E+01 
    2.2092739301573808E+01 
    1.3300135374094664E+01 
    1.3311748409092285E+01 
    7.4327133671340695E+00 
    8.0807706328020767E+00 
    1.8332528676705515E+01 
    1.3325891273609308E+01 
    1.3514216681043848E+01 
    2.5418030915179806E+01 
    1.0597382122289446E+01 
    1.3343654089214516E+01 
    9.1776579309072677E+00 
    9.4928994472550681E+00 
    2.0752395197654661E+01 
    1.2803424341816678E+01 
    8.9703883147830119E+00 
    1.4118792748408113E+01 
    1.3160514965597420E+01 
    2.0779600391962976E+01 
    2.5701735205941446E+01 
    1.2473370690498888E+00 
    1.3452914477033771E+01 
    1.3677347640017567E+01 
    2.0948803682560399E+01 
    1.2573028615300847E+01 
    1.3262452328834321E+01 
    2.3690736152596028E+01 
    1.1128253501875502E+01 
    9.0554274533813821E+00 
    1.6868573518567853E+01 
    2.0091241018196680E+01 
    2.2615559246864006E+01 
    2.4348445604017716E+01 
    1.3187390323189733E+01 
    1.3439439418574025E+01 
    1.5345140967650556E+01 
    8.4628710446245741E+00 
    2.0346550136304856E+01 
    9.8101376929376976E+00 
    8.8324752722872546E+00 
    1.7729635450732356E+01 
    1.6343329407575116E+01 
    8.6526937029272961E+00 
    2.0162745607283711E+01 
    2.2592445573645552E+01 
    1.3988837840722837E+01 
    2.6005377249469976E+01 
    2.0226962728141320E+01 
    1.2717833446583660E+01 
    2.1840426227422324E+01 
    9.4913222924619287E+00 
    2.0117246354163576E+01 
    1.3451553893441124E+01 
    1.3381531110140196E+01 
    2.5950830043657930E+01 
    1.2888818317764301E+01 
    1.7228523269882647E+01 
    1.1060050362406164E+01 
    2.3090358827586098E+01 
    1.9913355143683880E+01 
    1.1610166116903324E+01 
    2.0068526216019539E+01 
    1.1925933085115373E+01 
    1.3276154960516255E+01 
    2.2470871618480317E+01 
    2.1092011604256967E+01 
    2.2594028257850137E+01 
    2.0953444280788826E+01 
    1.1960709341343472E+01 
    1.2332891602261533E+01 
    2.2646169992512387E+01 
    1.2529922505300892E+01 
    1.9715298700019179E+01 
    1.2871797653232091E+01 
    4.9320872552348991E+00 
    8.9359233100622788E+00 
    8.2574005848595409E+00 
    2.2486761234989377E+01 
    2.5736868339027673E+01 
    2.0090685234412547E+01 
    1.5930084552628490E+01 
    2.0694253637660381E+01 
    2.0169911410417665E+01 
    2.1563929961317424E+01 
    7.1567853156312466E+00 
    4.5810935547421936E+00 
    1.5542633152720150E+01 
    1.2839605130844259E+01 
    2.0482849142049435E+01 
    2.0479549249834811E+01 
    1.3706083657135542E+01 
    2.0556402373047938E+01 
    1.3429993851384175E+01 
    1.3238857901162223E+01 
    6.4290596626834251E+00 
    4.5542694276892615E+00 
    2.5018502145490171E+01 
    1.0135036568174328E+01 
    1.1517391865284420E+01 
    1.3553214755705733E+01 
    2.9037994314495588E+01 
    1.3692333807056400E+01 
    1.3933122874171326E+01 
    5.2504039550736881E+00 
    1.3692063774051896E+01 
    1.3713715117963632E+01 
    2.1219634311089671E+01 
    1.1105794206170341E+01 
    1.2666750006807728E+01 
    2.5545791218498664E+01 
    1.3466961278190837E+01 
    2.0117331643518089E+01 
    2.0650001322933623E+01 
    1.7344385246295030E+01 
    1.1107737646433669E+01 
    2.0947988856061865E+01 
    1.3100562256359725E+01 
    2.0536723597314023E+01 
    1.9977321042404121E+01 
    2.2543227967994127E+01 
    2.0959277059487899E+01 
    1.8608966888602666E+01 
    1.3448459524353256E+01 
    8.5893170130190892E+00 
    2.8777644651488142E+01 
    1.0033048848249864E+01 
    2.2980029384725547E+01 
    1.3443919569250310E+01 
    1.0684452499547865E+01 
    6.2303128180957463E+00 
    1.3770287175430528E+01 
    2.0923557378497179E+01 
    2.0900217660408309E+01 
    1.3248469313394741E+01 
    1.3433683335745675E+01 
    2.5942163483904260E+01 
    2.4052314187144532E+01 
    1.3723423658043695E+01 
    4.2633973488571142E+00 
    1.8444940225182833E+01 
    2.9266323152224320E+01 
    1.3454295423874864E+01 
    1.6607010303411325E+01 
    1.2566141158018175E+01 
    2.8463565975578998E+01 
    2.4220513495626747E+01 
    2.3355219774971097E+01 
    1.3758340235287294E+01 
    5.8413690281227018E+00 
    1.2497748103082930E+01 
    1.2609466786384914E+01 
    1.2693140496477149E+01 
    4.6772453422599432E+00 