# vtk DataFile Version 2.0
Pressure Field Data 
ASCII 
DATASET UNSTRUCTURED_GRID 

POINTS 2860 double 

    0.0000000000000000E+00     0.0000000000000000E+00     0.0000000000000000E+00 
    1.0000000000000000E+00     0.0000000000000000E+00     0.0000000000000000E+00 
    1.0000000000000000E+00     1.0000000000000000E+00     0.0000000000000000E+00 
    0.0000000000000000E+00     1.0000000000000000E+00     0.0000000000000000E+00 
    2.5000000000000000E-01     2.5000000000000000E-01     0.0000000000000000E+00 
    7.5000000000000000E-01     2.5000000000000000E-01     0.0000000000000000E+00 
    7.5000000000000000E-01     7.5000000000000000E-01     0.0000000000000000E+00 
    2.5000000000000000E-01     7.5000000000000000E-01     0.0000000000000000E+00 
    3.1249999999942091E-02     0.0000000000000000E+00     0.0000000000000000E+00 
    6.2499999999873469E-02     0.0000000000000000E+00     0.0000000000000000E+00 
    9.3749999999826514E-02     0.0000000000000000E+00     0.0000000000000000E+00 
    1.2499999999977961E-01     0.0000000000000000E+00     0.0000000000000000E+00 
    1.5624999999968961E-01     0.0000000000000000E+00     0.0000000000000000E+00 
    1.8749999999959971E-01     0.0000000000000000E+00     0.0000000000000000E+00 
    2.1874999999950970E-01     0.0000000000000000E+00     0.0000000000000000E+00 
    2.4999999999941969E-01     0.0000000000000000E+00     0.0000000000000000E+00 
    2.8124999999932920E-01     0.0000000000000000E+00     0.0000000000000000E+00 
    3.1249999999923850E-01     0.0000000000000000E+00     0.0000000000000000E+00 
    3.4374999999914790E-01     0.0000000000000000E+00     0.0000000000000000E+00 
    3.7499999999905720E-01     0.0000000000000000E+00     0.0000000000000000E+00 
    4.0624999999896660E-01     0.0000000000000000E+00     0.0000000000000000E+00 
    4.3749999999887590E-01     0.0000000000000000E+00     0.0000000000000000E+00 
    4.6874999999878530E-01     0.0000000000000000E+00     0.0000000000000000E+00 
    4.9999999999869471E-01     0.0000000000000000E+00     0.0000000000000000E+00 
    5.3124999999877620E-01     0.0000000000000000E+00     0.0000000000000000E+00 
    5.6249999999885780E-01     0.0000000000000000E+00     0.0000000000000000E+00 
    5.9374999999893940E-01     0.0000000000000000E+00     0.0000000000000000E+00 
    6.2499999999902101E-01     0.0000000000000000E+00     0.0000000000000000E+00 
    6.5624999999910261E-01     0.0000000000000000E+00     0.0000000000000000E+00 
    6.8749999999918421E-01     0.0000000000000000E+00     0.0000000000000000E+00 
    7.1874999999926570E-01     0.0000000000000000E+00     0.0000000000000000E+00 
    7.4999999999934730E-01     0.0000000000000000E+00     0.0000000000000000E+00 
    7.8124999999942890E-01     0.0000000000000000E+00     0.0000000000000000E+00 
    8.1249999999951039E-01     0.0000000000000000E+00     0.0000000000000000E+00 
    8.4374999999959199E-01     0.0000000000000000E+00     0.0000000000000000E+00 
    8.7499999999967359E-01     0.0000000000000000E+00     0.0000000000000000E+00 
    9.0624999999975520E-01     0.0000000000000000E+00     0.0000000000000000E+00 
    9.3749999999983680E-01     0.0000000000000000E+00     0.0000000000000000E+00 
    9.6874999999991840E-01     0.0000000000000000E+00     0.0000000000000000E+00 
    1.0000000000000000E+00     3.1249999999942091E-02     0.0000000000000000E+00 
    1.0000000000000000E+00     6.2499999999873469E-02     0.0000000000000000E+00 
    1.0000000000000000E+00     9.3749999999826514E-02     0.0000000000000000E+00 
    1.0000000000000000E+00     1.2499999999977961E-01     0.0000000000000000E+00 
    1.0000000000000000E+00     1.5624999999968961E-01     0.0000000000000000E+00 
    1.0000000000000000E+00     1.8749999999959971E-01     0.0000000000000000E+00 
    1.0000000000000000E+00     2.1874999999950970E-01     0.0000000000000000E+00 
    1.0000000000000000E+00     2.4999999999941969E-01     0.0000000000000000E+00 
    1.0000000000000000E+00     2.8124999999932920E-01     0.0000000000000000E+00 
    1.0000000000000000E+00     3.1249999999923850E-01     0.0000000000000000E+00 
    1.0000000000000000E+00     3.4374999999914790E-01     0.0000000000000000E+00 
    1.0000000000000000E+00     3.7499999999905720E-01     0.0000000000000000E+00 
    1.0000000000000000E+00     4.0624999999896660E-01     0.0000000000000000E+00 
    1.0000000000000000E+00     4.3749999999887590E-01     0.0000000000000000E+00 
    1.0000000000000000E+00     4.6874999999878530E-01     0.0000000000000000E+00 
    1.0000000000000000E+00     4.9999999999869471E-01     0.0000000000000000E+00 
    1.0000000000000000E+00     5.3124999999877620E-01     0.0000000000000000E+00 
    1.0000000000000000E+00     5.6249999999885780E-01     0.0000000000000000E+00 
    1.0000000000000000E+00     5.9374999999893940E-01     0.0000000000000000E+00 
    1.0000000000000000E+00     6.2499999999902101E-01     0.0000000000000000E+00 
    1.0000000000000000E+00     6.5624999999910261E-01     0.0000000000000000E+00 
    1.0000000000000000E+00     6.8749999999918421E-01     0.0000000000000000E+00 
    1.0000000000000000E+00     7.1874999999926570E-01     0.0000000000000000E+00 
    1.0000000000000000E+00     7.4999999999934730E-01     0.0000000000000000E+00 
    1.0000000000000000E+00     7.8124999999942890E-01     0.0000000000000000E+00 
    1.0000000000000000E+00     8.1249999999951039E-01     0.0000000000000000E+00 
    1.0000000000000000E+00     8.4374999999959199E-01     0.0000000000000000E+00 
    1.0000000000000000E+00     8.7499999999967359E-01     0.0000000000000000E+00 
    1.0000000000000000E+00     9.0624999999975520E-01     0.0000000000000000E+00 
    1.0000000000000000E+00     9.3749999999983680E-01     0.0000000000000000E+00 
    1.0000000000000000E+00     9.6874999999991840E-01     0.0000000000000000E+00 
    9.6875000000003686E-01     1.0000000000000000E+00     0.0000000000000000E+00 
    9.3750000000011691E-01     1.0000000000000000E+00     0.0000000000000000E+00 
    9.0625000000015765E-01     1.0000000000000000E+00     0.0000000000000000E+00 
    8.7500000000017863E-01     1.0000000000000000E+00     0.0000000000000000E+00 
    8.4375000000028044E-01     1.0000000000000000E+00     0.0000000000000000E+00 
    8.1250000000040856E-01     1.0000000000000000E+00     0.0000000000000000E+00 
    7.8125000000054956E-01     1.0000000000000000E+00     0.0000000000000000E+00 
    7.5000000000066480E-01     1.0000000000000000E+00     0.0000000000000000E+00 
    7.1875000000086831E-01     1.0000000000000000E+00     0.0000000000000000E+00 
    6.8750000000102829E-01     1.0000000000000000E+00     0.0000000000000000E+00 
    6.5625000000114431E-01     1.0000000000000000E+00     0.0000000000000000E+00 
    6.2500000000129829E-01     1.0000000000000000E+00     0.0000000000000000E+00 
    5.9375000000147926E-01     1.0000000000000000E+00     0.0000000000000000E+00 
    5.6250000000168354E-01     1.0000000000000000E+00     0.0000000000000000E+00 
    5.3125000000188671E-01     1.0000000000000000E+00     0.0000000000000000E+00 
    5.0000000000205835E-01     1.0000000000000000E+00     0.0000000000000000E+00 
    4.6875000000192979E-01     1.0000000000000000E+00     0.0000000000000000E+00 
    4.3750000000180111E-01     1.0000000000000000E+00     0.0000000000000000E+00 
    4.0625000000167238E-01     1.0000000000000000E+00     0.0000000000000000E+00 
    3.7500000000154382E-01     1.0000000000000000E+00     0.0000000000000000E+00 
    3.4375000000141509E-01     1.0000000000000000E+00     0.0000000000000000E+00 
    3.1250000000128642E-01     1.0000000000000000E+00     0.0000000000000000E+00 
    2.8125000000115769E-01     1.0000000000000000E+00     0.0000000000000000E+00 
    2.5000000000102918E-01     1.0000000000000000E+00     0.0000000000000000E+00 
    2.1875000000090050E-01     1.0000000000000000E+00     0.0000000000000000E+00 
    1.8750000000077180E-01     1.0000000000000000E+00     0.0000000000000000E+00 
    1.5625000000064329E-01     1.0000000000000000E+00     0.0000000000000000E+00 
    1.2500000000051459E-01     1.0000000000000000E+00     0.0000000000000000E+00 
    9.3750000000385914E-02     1.0000000000000000E+00     0.0000000000000000E+00 
    6.2500000000257239E-02     1.0000000000000000E+00     0.0000000000000000E+00 
    3.1250000000128557E-02     1.0000000000000000E+00     0.0000000000000000E+00 
    0.0000000000000000E+00     9.6875000000003686E-01     0.0000000000000000E+00 
    0.0000000000000000E+00     9.3750000000011691E-01     0.0000000000000000E+00 
    0.0000000000000000E+00     9.0625000000015765E-01     0.0000000000000000E+00 
    0.0000000000000000E+00     8.7500000000017863E-01     0.0000000000000000E+00 
    0.0000000000000000E+00     8.4375000000028044E-01     0.0000000000000000E+00 
    0.0000000000000000E+00     8.1250000000040856E-01     0.0000000000000000E+00 
    0.0000000000000000E+00     7.8125000000054956E-01     0.0000000000000000E+00 
    0.0000000000000000E+00     7.5000000000066480E-01     0.0000000000000000E+00 
    0.0000000000000000E+00     7.1875000000086831E-01     0.0000000000000000E+00 
    0.0000000000000000E+00     6.8750000000102829E-01     0.0000000000000000E+00 
    0.0000000000000000E+00     6.5625000000114431E-01     0.0000000000000000E+00 
    0.0000000000000000E+00     6.2500000000129829E-01     0.0000000000000000E+00 
    0.0000000000000000E+00     5.9375000000147926E-01     0.0000000000000000E+00 
    0.0000000000000000E+00     5.6250000000168354E-01     0.0000000000000000E+00 
    0.0000000000000000E+00     5.3125000000188671E-01     0.0000000000000000E+00 
    0.0000000000000000E+00     5.0000000000205835E-01     0.0000000000000000E+00 
    0.0000000000000000E+00     4.6875000000192979E-01     0.0000000000000000E+00 
    0.0000000000000000E+00     4.3750000000180111E-01     0.0000000000000000E+00 
    0.0000000000000000E+00     4.0625000000167238E-01     0.0000000000000000E+00 
[...]
CELL_DATA 2795 
SCALARS Pressure double 1 
LOOKUP_TABLE default 

    5.6676982720584554E+00 
    1.3029625466262107E+01 
    9.2151914486057862E+00 
    8.8157175894866029E+00 
    6.9873797770624115E+00 
    1.2916097981044615E+01 
    1.3582680530931009E+01 
    5.0562071540984164E+00 
    9.7525576590013188E+00 
    7.4496220244951017E+00 
    6.3404472285744120E+00 
    1.2683270109232591E+01 
    1.2940097236857403E+01 
    1.2887812151171476E+01 
    8.5008450188337523E+00 
    4.9710626059824365E+00 
    8.1014115369632549E+00 
    6.7583400020798390E+00 
    1.2355570809245274E+01 
    9.2057622293740380E+00 
    9.1001677952136149E+00 
    1.2828799935084302E+01 
    8.5701153073128236E+00 
    3.3246347161433909E-01 
    1.2668520573667319E+01 
    1.2916274109108244E+01 
    1.3612030355196808E+01 
    6.0938519491777736E+00 
    1.2611081163341233E+01 
    1.3608957951147927E+01 
    9.2578039287884000E+00 
    9.4469567293664589E+00 
    6.5862446526932690E+00 
    9.1763802812622206E+00 
    2.9315305200034394E+00 
    8.1062851495504304E+00 
    9.1664953527577691E+00 
    1.3646539180448425E+01 
    1.3561836456228457E+01 
    1.2694996453089503E+01 
    6.9199674039670693E+00 
    1.2645578324409785E+01 
    6.9254660854222772E-01 
    9.0456722911113729E+00 
    1.3388499702673872E+01 
    1.3233553127999309E+01 
    1.2673538745095042E+01 
    1.0078471645734577E+01 
    1.2740031866875981E+01 
    8.2922455257925431E+00 
    7.8918501240398395E+00 
    9.4129654669071616E+00 
    8.9392116429802346E+00 
    8.1492449549473811E+00 
    9.3271235426014218E+00 
    1.2165865501618452E+01 
    1.0994491356443932E+01 
    7.0256682492454914E+00 
    1.2832302194462297E+01 
    1.2762594161796583E+01 
    8.8262058348409340E+00 
    8.8587222204580574E+00 
    8.7254924630497861E+00 
    1.3517810155020008E+01 
    1.3754017351600110E+01 
    8.1108922612635599E+00 
    9.4110194098556104E+00 
    1.2593645895400558E+01 
    1.0793459710936999E+01 
    8.8975632447079107E+00 
    1.3761654197159801E+01 
    1.2769836904650914E+01 
    7.9944098979452303E+00 
    1.3325058378772662E+01 
    9.5715623885354972E+00 
    1.2531726373260025E+01 
    1.3656444431296093E+01 
    9.5263384796546173E+00 
    5.7750111047511421E+00 
    9.4296460295705646E+00 
    1.3569759554487021E+01 
    1.3792007668979180E+01 
    8.1190420203245459E+00 
    9.3355724499627204E+00 
    1.3831457432896091E+01 
    9.1703043819862096E+00 
    8.6489668292665662E+00 
    1.1166963761104991E+01 
    5.5072943909211034E+00 
    7.9130976611922490E+00 
    9.3363206942556562E+00 
    9.8830566192648011E+00 
    1.5237499326669310E+01 
    6.7875520272951579E+00 
    9.4189548027289955E+00 
    1.2653492167355772E+01 
    1.2895384795961290E+01 
    5.9654184174582161E+00 
    9.0457883581350416E+00 
    9.3660574535894128E+00 
    1.2914239152559139E+01 
    9.3740660016245929E+00 
    1.2851570421503911E+01 
    3.6233860218972676E+00 
    6.1634568169553008E+00 
    9.6353668135193029E+00 
    1.3037758226124092E+01 
    8.0729341439975943E+00 
    8.6231511361360909E+00 
    9.3601450342507171E+00 
    8.6183836093698982E+00 
    1.0651492685046076E+01 
    8.3797696991015069E+00 
    8.0023420522065667E+00 
    6.2732606330643321E+00 
    1.0901217028088416E+01 
    9.4468858941508813E+00 
    1.3436058728040761E+01 
    8.0933879892751861E+00 
    8.8007420451480467E+00 
    1.2759863452756061E+01 
    7.3179200653817693E+00 
    1.3174955880674538E+01 
    9.2498101801375263E+00 
    8.7334691682551231E+00 
    1.2897367024989700E+01 
    9.4428958075731835E+00 
    1.3664357314917558E+01 
    1.1176976898475221E+01 
    1.2030205972463040E+01 
    1.3627697869502112E+01 
    6.8015810924141542E+00 
    9.6537572332499870E+00 
    1.2900314627900022E+01 
    2.7184020105524525E+00 
    9.3058985450810106E+00 
    1.3596442035555539E+01 
    8.7621213180940423E+00 
    1.0125658194598129E+01 
    5.9104019306157314E+00 
    1.2652351184773414E+01 
    1.5717012232368726E+01 
    1.1599438360499487E+01 
    8.7591849988068482E+00 
    7.8206807769567463E+00 
    1.0013607822795532E+01 
    9.2681772413468373E+00 
    6.4079938896034996E+00 
    1.3623904929091491E+01 
    1.2990430225583113E+01 
    1.2655069602537365E+01 
    9.8903911454401161E+00 
    7.9680301510394065E+00 
    9.0992003276945947E+00 
    1.3350536776692357E+01 
    8.2001298404103604E+00 
    9.1919304362635472E+00 
    8.3516785290662359E+00 
    1.0667281041000052E+01 
    1.5705466828092753E+01 
    1.2647308194642555E+01 
    7.9245268183860818E+00 
    1.3074622875576621E+01 
    1.2999723234722172E+01 
    1.3074172837945085E+01 
    1.4020612265332815E+01 
    1.4539012824127560E+01 
    1.3231045940596486E+01 
    9.4025379853778652E+00 
    1.0007529028836135E+01 
    1.3071140540062387E+01 
    1.3445715222990094E+01 
    6.6915555283063366E+00 
    1.2673164465580703E+01 
    1.3315314762385645E+01 
    6.5138590308576818E+00 
    1.3935181774487173E+01 
    1.3925814244583837E+01 
    1.2418991358461286E+01 
    9.7130951695495398E+00 
    2.3824596560452171E+00 
    1.3597002556775813E+01 
    9.5790284758688422E+00 
    1.3712650267787575E+01 
    8.6980563205847847E+00 
    1.3442465377850969E+01 
    8.4668510629284266E-01 
    1.2047880442645324E+01 
    8.9016996569240820E+00 
    7.9303189509037093E+00 
    7.7250251461014363E+00 
    9.2195923388757475E+00 
    1.0334227916413525E+01 
    9.5515844978585278E+00 
    6.3667015578063033E+00 
    1.3441787193889883E+01 
    1.2923468698443948E+01 
    1.0908601393025508E+01 
    9.6283320828931860E+00 
    1.3905465316894143E+00 
    7.1202741878402840E+00 
    4.9116158730512183E+00 
    1.3619811227011613E+01 
    1.0474181406557614E+01 
    1.2975843650551516E+01 
    1.2984546971341700E+01 
    8.2718475703119747E+00 
    1.0946099790578002E+01 
    1.2650970693818937E+01 
    1.3908982381114813E+01 
    5.8901623581722120E+00 
    1.1414575092706658E+01 
    9.5857778900172299E+00 
    5.2389623383719881E+00 
    8.2650864396922987E+00 
    1.1418683403265145E+01 
    1.2949420918504803E+01 
    9.2775371012046293E+00 
    1.3052837315877131E+01 
    1.2833739695089060E+01 
    1.2787003681440151E+01 
    9.1059803674573523E+00 
    7.8774264683047885E+00 
    1.2662534247091617E+01 
    7.9900541503850953E+00 
    9.3773149359329935E+00 
    7.8294733685204747E+00 
    9.1388507664198109E+00 
    1.2992609219301537E+01 
    5.7931675019358222E+00 
    8.1808641806018390E+00 
    1.3537286667120386E+01 
    9.1198416708383050E+00 
    1.0364788314133110E+01 
    5.9447898276450344E+00 
    8.0480343598836637E+00 
    1.2813362795972736E+01 
    1.3105063339822813E+01 
    4.8398422964758954E+00 
    9.1223747369472203E+00 
    7.8669750935885130E+00 
    1.4312877978010274E+01 
    1.3799373874028772E+01 
    1.4564269700804150E+01 
    9.1426230176636363E+00 
    1.2968280601756458E+01 
    1.2612286339967111E+01 
    9.0217600218957603E+00 
    1.2655339280117110E+01 
    9.6288529431575629E+00 
    5.3066289169105172E+00 
    9.3409588883208610E+00 
    1.3525792037407328E+01 
    1.2652412773927528E+01 
    6.3071316133729516E+00 
    1.2679524387522632E+01 
    1.0324368861304073E+01 
    9.2877532271592926E+00 
    8.8369255011257941E+00 
    1.2531233469338421E+01 
    9.8411241800445950E+00 
    1.2667302680518539E+01 
    8.9898542405439592E+00 
    5.5017445460704941E+00 
    9.4450750025090500E+00 
    7.7334419475756455E+00 
    1.1600235631149356E+01 
    1.3709618844998758E+01 
    1.2661259500602565E+01 
    1.3590220910822655E+01 
    9.0707769949768071E+00 
    6.1399631483952293E+00 
    6.2282569914824997E+00 
    9.4832786173589145E+00 
    9.3526002269687396E+00 
    1.3164249082917376E+00 
    1.2212773035745709E+01 
    1.4047246779014536E+01 
    8.7092848138430572E+00 
    5.5318645586332229E+00 
    1.0623623038618064E+01 
    1.2678236401494033E+01 
    6.5761933267389585E+00 
    4.4538748434528772E+00 
    9.3237598318423061E+00 
    1.2767908161011032E+01 
    1.3352243244728916E+01 
    1.3247704228630196E+01 
    1.3109061347669190E+01 
    6.4117485174587028E+00 
    9.2801894271660039E+00 
    1.2226000767471358E+01 
    7.3123280423913064E+00 
    1.2928112120976966E+01 
    1.1155156014765858E+01 
    6.3252146916832803E+00 
    1.2778892074983689E+01 
    1.3612768296661995E+01 
    1.2778681502133326E+01 
    6.3299633526236292E+00 
    9.4069612355990042E+00 
    6.9635185470711605E+00 
    8.8695252025053541E+00 
    1.2670366800565896E+01 
    1.2659531875949599E+01 
    6.3672674862536276E+00 
    1.3479558827921597E+01 
    9.9201835022270028E+00 
    1.2695934955159863E+01 
    1.3451438423092661E+01 
    1.2680548070443832E+01 
    1.1823593826721799E+01 
    1.4363389772346313E+01 
    8.6726455247338041E+00 
    1.3561830573088905E+01 
    1.2723771231043013E+01 
    1.3629646315469570E+01 
    1.3473282936553831E+01 
    8.7660505593041105E+00 
    9.2077571276820329E+00 
    8.7000181611626246E+00 
    1.1376603463296005E+01 
    3.6343266911249787E+00 
    9.4068887210691301E+00 
    1.4485508468128209E+01 
    9.6314080942204203E+00 
    9.8054357223535984E+00 
    1.3604208572997281E+01 
    1.3824135456219818E+01 
    8.6232974595940579E+00 
    1.2683497523753823E+01 
    1.2656154460149301E+01 
    9.7939790807241600E+00 
    1.3431356993848127E+01 
    6.6456926855149492E+00 
    4.2084519809608372E+00 
    1.0055071956903936E+01 
    9.6448441772957754E+00 
    1.2661664266007925E+01 
    5.9490178132439810E+00 
    1.3169439933176495E+01 
    4.2849284160947665E+00 
    9.5817479141788020E+00 
    8.8168758790391628E+00 
    9.3825017427248163E+00 
    1.5756335453950248E+01 
    3.5323956518326525E+00 
    9.3235388510348827E+00 
    1.1086754529830049E+01 
    8.9777584548418439E+00 
    7.0123940641917715E+00 
    1.3277647667984779E+01 
    1.5322919796813393E+01 
    1.3413714384502812E+01 
    9.2658377665077829E+00 
    5.2118398489216444E+00 
    1.5180397180563951E+01 
    1.2912348947546469E+01 
    6.7209095580027585E+00 
    8.8948769003737862E+00 
    1.4005236720545227E+01 
    3.0033608813235189E+00 
    9.6916308757934111E+00 
    1.3382807341649047E+01 
    9.3962392374903771E+00 
    8.1720264047135149E+00 
    9.3633114063019072E+00 
    1.2430520640454178E+01 
    9.3751982839940737E+00 
    4.6419256753780376E+00 
    8.1706175716014129E-01 
    6.9651458647061926E+00 
    1.4210809543086294E+01 
    8.6994313351500008E+00 
    1.0654090198954426E+01 
    1.0167512668100551E+01 
    1.1658183321559704E+01 
    9.4099243870801654E+00 
    1.2827142648737901E+01 
    1.5770420813694184E+01 
    1.1080836875450087E+01 
    1.3536310850358531E+01 
    4.9344854422141221E-01 
    1.2661376210824919E+01 
    5.1371536839190632E+00 
    1.4649452069288506E+01 
    9.3371228072491146E+00 
    8.2898686288266727E+00 
    7.1043362124876461E+00 
    4.8733516426355941E+00 
    1.0480055065961603E+01 
    7.3805373963279033E+00 
    1.1502989702574386E+01 
    1.9901470058244051E+00 
    1.0353036028521974E+01 
    1.2600208498241313E+01 
    5.6486667551776959E+00 
    1.3114226180083861E+01 
    1.4460100200763806E+01 
    1.2973136888913290E+01 
    9.2070327925976247E+00 
    9.3768052262822934E+00 
    9.3297996423283269E+00 
    5.2827438790691819E+00 
    8.4528308414967963E+00 
    8.3082651959920515E+00 
    9.3189606748123275E+00 
    8.6363337294647415E+00 
    6.2251685176386640E-01 
    5.8957057997293818E+00 
    9.0025557152152214E+00 
    9.2947383120893541E+00 
    1.1817706281249622E+01 
    1.9765311378194059E+00 
    9.7566402255517222E+00 
    9.6495832643802277E+00 
    3.3967469582597434E+00 
    1.2853901357901888E+01 
    8.0076870096884392E+00 
    9.5124089469986703E+00 
    1.2907967381746452E+01 
    4.8912748956077365E+00 
    1.2960165607594412E+01 
    8.1148406831672055E+00 
    9.0783907524088303E-01 
    8.7574861687338679E+00 
    1.3491594643145250E+01 
    1.2661382300736573E+01 
    1.2679449520217270E+01 
    9.6961898804973536E+00 
    9.5856856596209479E+00 
    7.9885495476538821E+00 
    6.4016936501482888E+00 
    1.3009305875327817E+01 
    8.8932575046830333E+00 
    6.2493050081968837E+00 
    1.2674621916256498E+01 
    1.3313053830539538E+01 
    9.5123462619514676E+00 
    9.1652469348745722E+00 
    1.5652226910809897E+01 
    9.7947560110264451E+00 
    1.3028543349429754E+01 
    7.5822663027739070E+00 
    1.5798938380021211E+01 
    6.1918014373915264E+00 
    8.3826825750694844E+00 
    6.9457981739911965E+00 
    1.0006916768719643E+01 
    7.9567161208343631E+00 
    1.5782617042430639E+01 
    9.8389581598652480E+00 
    1.2371228190429512E+01 
    6.3703499445581953E+00 
    9.4075489021585561E+00 
    1.2881190394402422E+01 
    7.9875539837730880E+00 
    6.6562598889131452E+00 
    1.0307650801717713E+01 
    1.3099661557537727E+01 
    6.8399411162165862E+00 
    8.8356264158835867E+00 
    9.1913978776123315E+00 
    1.2638761297986697E+01 
    9.0044965288458183E+00 
    1.3072594140194111E+01 
    1.3657005253858662E+01 
    8.0142726844430232E+00 
    7.8496909529870820E+00 
    7.4228098005206142E+00 
    1.2768949352600059E+01 
    9.6584661654638655E+00 
    1.5361441552814627E+01 
    1.2035325639285634E+01 
    1.2842375767455412E+01 
    1.5057563177033961E+01 
    1.4467259666168394E+01 
    9.4558328842382835E+00 
    9.3042565482444903E+00 
    1.2448940965809156E+01 
    1.2696132041646729E+01 
    1.3171090358291336E+01 
    1.2931106018689123E+01 
    1.5671698529158569E+01 
    9.7943331515499796E+00 
    8.1073614031788210E+00 
    9.7792216762410717E+00 
    1.3575367331638789E+01 
    9.5533469763232652E+00 
    5.5108940712294130E+00 
    9.1915241699115153E+00 
    1.3973545649254566E+01 
    9.6829358947637161E+00 
    8.1174918166563277E+00 
    9.1331792109753742E+00 
    1.4079099294958555E+01 
    1.2698413632769549E+01 
    7.6930131263787498E+00 
    1.4209612954005753E+01 
    9.4863261422983243E+00 
    1.3169767760736343E+01 
    1.4091331303910104E+01 
    9.8867496903395296E+00 
    4.8939969644412757E+00 
    1.0278547673176197E+01 
    5.0645402676941069E+00 
    9.6012789011042106E+00 
    9.3950746408489643E+00 
    1.0817574492012378E+01 
    5.3562312109225108E+00 
    1.1481585881629687E+01 
    9.4200924050779076E+00 
    1.2922133746175582E+01 
    9.8565317934023220E+00 
    7.5021329694686409E+00 
    9.0164351115007673E+00 
    9.8788427073603753E+00 
    9.8912423581793014E+00 
    1.3700673191349695E+01 
    7.7386032329029515E+00 
    7.6032524343791064E+00 
    5.6372066719196097E+00 
    1.3197025929535457E+01 
    9.0545846831968504E+00 
    1.2505990664996316E+01 
    9.3655398649714439E+00 
    6.1750772111855552E+00 
    1.2724108262631750E+01 
    9.3368915778997845E+00 
    6.7461389173914101E+00 
    7.1574514867022305E+00 
    7.4172904839747114E+00 
    1.2949914567105511E+01 
    9.3208984433758406E+00 
    1.3546715004084710E+01 
    9.2898918180015411E+00 
    9.2251782186828812E+00 
    8.7563536024853335E+00 
    1.2800763865444903E+01 
    9.1433101899601361E+00 
    7.4566261876736908E+00 
    1.4455317540355351E+01 
    1.2875099197874503E+01 
    6.4906900332610791E+00 
    2.4949747127436086E+00 
    9.3104342027382661E+00 
    8.7660163301335494E+00 
    7.8431358429070031E+00 
    8.5692714073979683E+00 
    1.2848559493270384E+01 
    9.0293129392624500E+00 
    8.1615085575783741E+00 
    1.2716190573149687E+01 
    6.4318634098547927E+00 
    1.2411952359248270E+01 
    8.4741005520359280E+00 
    7.3881044547313577E+00 
    7.9204211363309867E+00 
    1.3249702338590714E+01 
    9.3858242632275566E+00 
    9.3944737831720708E+00 
    5.4374910139682413E+00 
    5.8864906418227907E+00 
    1.1790507676392295E+01 
    9.4048520134777736E+00 
    9.3507695692597022E+00 
    1.4195436947644756E+01 
    7.6048389835719519E+00 
    9.4176365179763462E+00 
    6.6535487800909729E+00 
    6.8645294074992202E+00 
    1.2793758935961543E+01 
    9.0367930451135230E+00 
    6.5022722500933607E+00 
    9.8951039623867789E+00 
    9.2709500458948249E+00 
    1.2796767040035828E+01 
    1.4284837089493054E+01 
    9.5821660559339816E-01 
    9.3152058945193712E+00 
    9.6433205099081878E+00 
    1.2856853089866744E+01 
    8.8278358807725024E+00 
    9.3573462902150535E+00 
    1.3749567555884811E+01 
    7.9537200359654978E+00 
    6.5613180253350629E+00 
    1.1356219140859521E+01 
    1.2674010657781588E+01 
    1.3628601545017172E+01 
    1.3886530198746515E+01 
    9.1619318493336124E+00 
    9.3071559316398798E+00 
    1.0544795403471051E+01 
    6.1633776542942105E+00 
    1.2791533638739105E+01 
    7.0797384292665386E+00 
    6.4221818187844324E+00 
    1.1747000465878614E+01 
    1.1050623730373339E+01 
    6.2967758562189040E+00 
    1.2707087280891235E+01 
    1.3615224719544027E+01 
    9.8088807397305668E+00 
    1.4382717315315311E+01 
    1.2737125274047653E+01 
    8.8990968859086284E+00 
    1.3368752982182626E+01 
    6.8684233101627079E+00 
    1.2691013035413143E+01 
    9.3142694171787941E+00 
    9.2757343128583525E+00 
    1.4357985628309450E+01 
    9.0855043705786347E+00 
    1.1477958743434678E+01 
    7.9058489092855240E+00 
    1.3727006383440148E+01 
    1.2605623539264776E+01 
    8.2566463180179639E+00 
    1.2651917825175225E+01 
    8.4840494222978151E+00 
    9.3697672308879465E+00 
    1.3577239275294607E+01 
    1.2924589506388173E+01 
    1.3618297577812239E+01 
    1.2859704657397748E+01 
    8.4580238105972683E+00 
    8.6681901402182682E+00 
    1.3624701226540910E+01 
    8.7869935254779481E+00 
    1.2544526189919631E+01 
    9.0768167608102459E+00 
    3.6644010648428531E+00 
    6.4920278696582443E+00 
    6.0061100632174762E+00 
    1.3580488754498820E+01 
    1.4290592313762932E+01 
    1.2668722560626630E+01 
    1.0876530308620822E+01 
    1.2932643827746746E+01 
    1.2713845377665985E+01 
    1.3254797820486463E+01 
    5.2486178149059954E+00 
    3.4170749776520295E+00 
    1.0682193944377666E+01 
    8.9820931100169421E+00 
    1.2849897543622244E+01 
    1.2847571667310532E+01 
    9.6613380615721294E+00 
    1.2881845559032305E+01 
    9.3016750124591869E+00 
    9.2164390188183400E+00 
    4.7365293555061792E+00 
    3.4037049392095771E+00 
    1.4076013602766213E+01 
    7.2935871949357676E+00 
    8.1998252825364322E+00 
    9.5619910210638750E+00 
    1.5653512012437835E+01 
    9.6522160570951048E+00 
    9.6108305035099431E+00 
    3.8714141648011107E+00 
    9.6529643511113168E+00 
    9.6658811226297470E+00 
    1.3142797098845120E+01 
    7.9249454684908889E+00 
    8.9528245128889967E+00 
    1.4237183624287923E+01 
    9.3233433768139822E+00 
    1.2683367749330948E+01 
    1.2921484898694294E+01 
    1.1589851841761153E+01 
    7.9255327736679018E+00 
    1.2859075609691905E+01 
    9.1202604363943909E+00 
    1.2866831875885463E+01 
    1.2626227203687842E+01 
    1.3598516193399224E+01 
    1.2858305725320125E+01 
    1.2089688979869463E+01 
    9.3124416486906920E+00 
    6.2483747169746033E+00 
    1.5528301003421046E+01 
    7.2258941373521326E+00 
    1.3534592979933004E+01 
    9.3098955938477097E+00 
    7.6442936974789424E+00 
    4.5780594914024233E+00 
    9.6985839749477520E+00 
    1.2847145071783768E+01 
    1.2843170952368524E+01 
    9.3487938944742197E+00 
    9.3041649769061259E+00 
    1.4437265317470683E+01 
    1.3832033346547489E+01 
    9.6693977822356079E+00 
    3.1802660236998843E+00 
    1.2058274062436452E+01 
    1.5780537887526041E+01 
    9.3157116213201974E+00 
    1.1224516127590562E+01 
    8.8246633877493803E+00 
    1.5387961064995840E+01 
    1.3907022705739623E+01 
    1.3652686683775512E+01 
    9.6895052661863215E+00 
    4.2678574731180481E+00 
    8.7837712703826778E+00 
    8.8498822284410128E+00 
    8.8935124812955451E+00 
    3.4600334781349171E+00 