# vtk DataFile Version 2.0
Pressure Field Data 
ASCII 
DATASET UNSTRUCTURED_GRID 

POINTS 2860 double 

    0.0000000000000000E+00     0.0000000000000000E+00     0.0000000000000000E+00 
    1.0000000000000000E+00     0.0000000000000000E+00     0.0000000000000000E+00 
    1.0000000000000000E+00     1.0000000000000000E+00     0.0000000000000000E+00 
    0.0000000000000000E+00     1.0000000000000000E+00     0.0000000000000000E+00 
    2.5000000000000000E-01     2.5000000000000000E-01     0.0000000000000000E+00 
    7.5000000000000000E-01     2.5000000000000000E-01     0.0000000000000000E+00 
    7.5000000000000000E-01     7.5000000000000000E-01     0.0000000000000000E+00 
    2.5000000000000000E-01     7.5000000000000000E-01     0.0000000000000000E+00 
    3.1249999999942091E-02     0.0000000000000000E+00     0.0000000000000000E+00 
    6.2499999999873469E-02     0.0000000000000000E+00     0.0000000000000000E+00 
    9.3749999999826514E-02     0.0000000000000000E+00     0.0000000000000000E+00 
    1.2499999999977961E-01     0.0000000000000000E+00     0.0000000000000000E+00 
    1.5624999999968961E-01     0.0000000000000000E+00     0.0000000000000000E+00 
    1.8749999999959971E-01     0.0000000000000000E+00     0.0000000000000000E+00 
    2.1874999999950970E-01     0.0000000000000000E+00     0.0000000000000000E+00 
    2.4999999999941969E-01     0.0000000000000000E+00     0.0000000000000000E+00 
    2.8124999999932920E-01     0.0000000000000000E+00     0.0000000000000000E+00 
    3.1249999999923850E-01     0.0000000000000000E+00     0.0000000000000000E+00 
    3.4374999999914790E-01     0.0000000000000000E+00     0.0000000000000000E+00 
    3.7499999999905720E-01     0.0000000000000000E+00     0.0000000000000000E+00 
    4.0624999999896660E-01     0.0000000000000000E+00     0.0000000000000000E+00 
    4.3749999999887590E-01     0.0000000000000000E+00     0.0000000000000000E+00 
    4.6874999999878530E-01     0.0000000000000000E+00     0.0000000000000000E+00 
    4.9999999999869471E-01     0.0000000000000000E+00     0.0000000000000000E+00 
    5.3124999999877620E-01     0.0000000000000000E+00     0.0000000000000000E+00 
    5.6249999999885780E-01     0.0000000000000000E+00     0.0000000000000000E+00 
    5.9374999999893940E-01     0.0000000000000000E+00     0.0000000000000000E+00 
    6.2499999999902101E-01     0.0000000000000000E+00     0.0000000000000000E+00 
    6.5624999999910261E-01     0.0000000000000000E+00     0.0000000000000000E+00 
    6.8749999999918421E-01     0.0000000000000000E+00     0.0000000000000000E+00 
    7.1874999999926570E-01     0.0000000000000000E+00     0.0000000000000000E+00 
    7.4999999999934730E-01     0.0000000000000000E+00     0.0000000000000000E+00 
    7.8124999999942890E-01     0.0000000000000000E+00     0.0000000000000000E+00 
    8.1249999999951039E-01     0.0000000000000000E+00     0.0000000000000000E+00 
    8.4374999999959199E-01     0.0000000000000000E+00     0.0000000000000000E+00 
    8.7499999999967359E-01     0.0000000000000000E+00     0.0000000000000000E+00 
    9.0624999999975520E-01     0.0000000000000000E+00     0.0000000000000000E+00 
    9.3749999999983680E-01     0.0000000000000000E+00     0.0000000000000000E+00 
    9.6874999999991840E-01     0.0000000000000000E+00     0.0000000000000000E+00 
    1.0000000000000000E+00     3.1249999999942091E-02     0.0000000000000000E+00 
    1.0000000000000000E+00     6.2499999999873469E-02     0.0000000000000000E+00 
    1.0000000000000000E+00     9.3749999999826514E-02     0.0000000000000000E+00 
    1.0000000000000000E+00     1.2499999999977961E-01     0.0000000000000000E+00 
    1.0000000000000000E+00     1.5624999999968961E-01     0.0000000000000000E+00 
    1.0000000000000000E+00     1.8749999999959971E-01     0.0000000000000000E+00 
    1.0000000000000000E+00     2.1874999999950970E-01     0.0000000000000000E+00 
    1.0000000000000000E+00     2.4999999999941969E-01     0.0000000000000000E+00 
    1.0000000000000000E+00     2.8124999999932920E-01     0.0000000000000000E+00 
    1.0000000000000000E+00     3.1249999999923850E-01     0.0000000000000000E+00 
    1.0000000000000000E+00     3.4374999999914790E-01     0.0000000000000000E+00 
    1.0000000000000000E+00     3.7499999999905720E-01     0.0000000000000000E+00 
    1.0000000000000000E+00     4.0624999999896660E-01     0.0000000000000000E+00 
    1.0000000000000000E+00     4.3749999999887590E-01     0.0000000000000000E+00 
    1.0000000000000000E+00     4.6874999999878530E-01     0.0000000000000000E+00 
    1.0000000000000000E+00     4.9999999999869471E-01     0.0000000000000000E+00 
    1.0000000000000000E+00     5.3124999999877620E-01     0.0000000000000000E+00 
    1.0000000000000000E+00     5.6249999999885780E-01     0.0000000000000000E+00 
    1.0000000000000000E+00     5.9374999999893940E-01     0.0000000000000000E+00 
    1.0000000000000000E+00     6.2499999999902101E-01     0.0000000000000000E+00 
    1.0000000000000000E+00     6.5624999999910261E-01     0.0000000000000000E+00 
    1.0000000000000000E+00     6.8749999999918421E-01     0.0000000000000000E+00 
    1.0000000000000000E+00     7.1874999999926570E-01     0.0000000000000000E+00 
    1.0000000000000000E+00     7.4999999999934730E-01     0.0000000000000000E+00 
    1.0000000000000000E+00     7.8124999999942890E-01     0.0000000000000000E+00 
    1.0000000000000000E+00     8.1249999999951039E-01     0.0000000000000000E+00 
    1.0000000000000000E+00     8.4374999999959199E-01     0.0000000000000000E+00 
    1.0000000000000000E+00     8.7499999999967359E-01     0.0000000000000000E+00 
    1.0000000000000000E+00     9.0624999999975520E-01     0.0000000000000000E+00 
    1.0000000000000000E+00     9.3749999999983680E-01     0.0000000000000000E+00 
    1.0000000000000000E+00     9.6874999999991840E-01     0.0000000000000000E+00 
    9.6875000000003686E-01     1.0000000000000000E+00     0.0000000000000000E+00 
    9.3750000000011691E-01     1.0000000000000000E+00     0.0000000000000000E+00 
    9.0625000000015765E-01     1.0000000000000000E+00     0.0000000000000000E+00 
    8.7500000000017863E-01     1.0000000000000000E+00     0.0000000000000000E+00 
    8.4375000000028044E-01     1.0000000000000000E+00     0.0000000000000000E+00 
    8.1250000000040856E-01     1.0000000000000000E+00     0.0000000000000000E+00 
    7.8125000000054956E-01     1.0000000000000000E+00     0.0000000000000000E+00 
    7.5000000000066480E-01     1.0000000000000000E+00     0.0000000000000000E+00 
    7.1875000000086831E-01     1.0000000000000000E+00     0.0000000000000000E+00 
    6.8750000000102829E-01     1.0000000000000000E+00     0.0000000000000000E+00 
    6.5625000000114431E-01     1.0000000000000000E+00     0.0000000000000000E+00 
    6.2500000000129829E-01     1.0000000000000000E+00     0.0000000000000000E+00 
    5.9375000000147926E-01     1.0000000000000000E+00     0.0000000000000000E+00 
    5.6250000000168354E-01     1.0000000000000000E+00     0.0000000000000000E+00 
    5.3125000000188671E-01     1.0000000000000000E+00     0.0000000000000000E+00 
    5.0000000000205835E-01     1.0000000000000000E+00     0.0000000000000000E+00 
    4.6875000000192979E-01     1.0000000000000000E+00     0.0000000000000000E+00 
    4.3750000000180111E-01     1.0000000000000000E+00     0.0000000000000000E+00 
    4.0625000000167238E-01     1.0000000000000000E+00     0.0000000000000000E+00 
    3.7500000000154382E-01     1.0000000000000000E+00     0.0000000000000000E+00 
    3.4375000000141509E-01     1.0000000000000000E+00     0.0000000000000000E+00 
    3.1250000000128642E-01     1.0000000000000000E+00     0.0000000000000000E+00 
    2.8125000000115769E-01     1.0000000000000000E+00     0.0000000000000000E+00 
    2.5000000000102918E-01     1.0000000000000000E+00     0.0000000000000000E+00 
    2.1875000000090050E-01     1.0000000000000000E+00     0.0000000000000000E+00 
    1.8750000000077180E-01     1.0000000000000000E+00     0.0000000000000000E+00 
    1.5625000000064329E-01     1.0000000000000000E+00     0.0000000000000000E+00 
    1.2500000000051459E-01     1.0000000000000000E+00     0.0000000000000000E+00 
    9.3750000000385914E-02     1.0000000000000000E+00     0.0000000000000000E+00 
    6.2500000000257239E-02     1.0000000000000000E+00     0.0000000000000000E+00 
    3.1250000000128557E-02     1.0000000000000000E+00     0.0000000000000000E+00 
    0.0000000000000000E+00     9.6875000000003686E-01     0.0000000000000000E+00 
    0.0000000000000000E+00     9.3750000000011691E-01     0.0000000000000000E+00 
    0.0000000000000000E+00     9.0625000000015765E-01     0.0000000000000000E+00 
    0.0000000000000000E+00     8.7500000000017863E-01     0.0000000000000000E+00 
    0.0000000000000000E+00     8.4375000000028044E-01     0.0000000000000000E+00 
    0.0000000000000000E+00     8.1250000000040856E-01     0.0000000000000000E+00 
    0.0000000000000000E+00     7.8125000000054956E-01     0.0000000000000000E+00 
    0.0000000000000000E+00     7.5000000000066480E-01     0.0000000000000000E+00 
    0.0000000000000000E+00     7.1875000000086831E-01     0.0000000000000000E+00 
    0.0000000000000000E+00     6.8750000000102829E-01     0.0000000000000000E+00 
    0.0000000000000000E+00     6.5625000000114431E-01     0.0000000000000000E+00 
    0.0000000000000000E+00     6.2500000000129829E-01     0.0000000000000000E+00 
    0.0000000000000000E+00     5.9375000000147926E-01     0.0000000000000000E+00 
    0.0000000000000000E+00     5.6250000000168354E-01     0.0000000000000000E+00 
    0.0000000000000000E+00     5.3125000000188671E-01     0.0000000000000000E+00 
    0.0000000000000000E+00     5.0000000000205835E-01     0.0000000000000000E+00 
    0.0000000000000000E+00     4.6875000000192979E-01     0.0000000000000000E+00 
    0.0000000000000000E+00     4.3750000000180111E-01     0.0000000000000000E+00 
    0.0000000000000000E+00     4.0625000000167238E-01     0.0000000000000000E+00 
[...]
CELL_DATA 2795 
SCALARS Pressure double 1 
LOOKUP_TABLE default 

    8.6748919339390849E+00 
    2.0081768768057238E+01 
    1.3981615686421046E+01 
    1.3660826991878126E+01 
    1.0782726662002608E+01 
    1.9791001648257598E+01 
    2.0862935791190139E+01 
    7.7114600426620097E+00 
    1.4574230872439127E+01 
    1.0976429940184769E+01 
    9.2013832124147612E+00 
    1.9392999153430488E+01 
    1.9953599753898736E+01 
    1.9741565678784447E+01 
    1.2837776630955119E+01 
    7.5749588785917839E+00 
    1.2553295958715823E+01 
    9.8576383972384569E+00 
    1.8777911137207798E+01 
    1.3956281520876299E+01 
    1.3846629342790537E+01 
    1.9636328382263688E+01 
    1.3293718385483869E+01 
    4.5312412612705577E-01 
    1.9382345365558702E+01 
    1.9912327141854810E+01 
    2.0908109565177799E+01 
    8.8609921821396043E+00 
    1.9247013371023030E+01 
    2.0917864049119867E+01 
    1.4205695410537917E+01 
    1.4168929915126444E+01 
    9.6652116584726837E+00 
    1.3942686098288625E+01 
    4.3560792356955913E+00 
    1.2562955839017807E+01 
    1.3924695908321770E+01 
    2.0971366063166503E+01 
    2.0831187544575585E+01 
    1.9412958891133563E+01 
    1.0648432826965767E+01 
    1.9475869218451830E+01 
    9.7105983047893907E-01 
    1.3958699593874252E+01 
    2.0645847254030496E+01 
    2.0233292679870903E+01 
    1.9376122620272277E+01 
    1.5016855575172356E+01 
    1.9404765063454128E+01 
    1.2832304454008808E+01 
    1.2231070221638117E+01 
    1.4128013411642080E+01 
    1.3842869416373468E+01 
    1.2615231368929265E+01 
    1.4291787133220923E+01 
    1.8448099549837892E+01 
    1.6304117933126651E+01 
    1.0843297865330388E+01 
    1.9649712117803560E+01 
    1.9514496431879707E+01 
    1.3601324808169887E+01 
    1.3417964489079555E+01 
    1.3532318067401507E+01 
    2.0783987527249632E+01 
    2.1166041650337238E+01 
    1.2565298133862765E+01 
    1.4125787680080704E+01 
    1.9032284841768714E+01 
    1.6113920232648095E+01 
    1.3512190332509681E+01 
    2.1119647584937134E+01 
    1.9651024714850660E+01 
    1.2396336680468172E+01 
    2.0365738834334834E+01 
    1.4590660676007154E+01 
    1.9213337943758628E+01 
    2.0993221578155726E+01 
    1.4657574559739402E+01 
    8.7730160928777803E+00 
    1.4146458508917782E+01 
    2.0842846037318658E+01 
    2.1179603808396713E+01 
    1.2597337653536782E+01 
    1.4071023332498543E+01 
    2.1237206245165851E+01 
    1.3920437833458662E+01 
    1.3415027799412687E+01 
    1.6701293447688787E+01 
    8.4035517186948034E+00 
    1.2268328860923363E+01 
    1.4066478755215432E+01 
    1.4743364374439391E+01 
    2.3052379751777178E+01 
    1.0458771999106252E+01 
    1.4134669641153698E+01 
    1.9341967867672032E+01 
    1.9865588721777588E+01 
    9.1494395565664366E+00 
    1.3761444709353194E+01 
    1.4105019593073497E+01 
    1.9908288976945546E+01 
    1.4088168457416471E+01 
    1.9767997233949707E+01 
    5.4252661333161063E+00 
    8.9358777217230241E+00 
    1.4382124628574692E+01 
    2.0093354847639823E+01 
    1.2517314702872735E+01 
    1.3288231723301907E+01 
    1.4057846009927539E+01 
    1.3369850383686657E+01 
    1.5843545992671809E+01 
    1.2929496497941559E+01 
    1.2405919073041225E+01 
    9.5834365322749644E+00 
    1.6759561855454226E+01 
    1.4175650057122239E+01 
    2.0670020970495663E+01 
    1.2019387166234763E+01 
    1.3633092822039286E+01 
    1.9660672237503444E+01 
    1.1300802963492313E+01 
    2.0313876385963653E+01 
    1.3996805673781878E+01 
    1.3544461700844717E+01 
    1.9873431413847452E+01 
    1.4160529780468710E+01 
    2.0995924218821791E+01 
    1.6734428424141964E+01 
    1.8183185584570047E+01 
    2.0931513302254746E+01 
    1.0482835457083821E+01 
    1.4404931620552523E+01 
    1.9885797054748430E+01 
    4.0047103993805147E+00 
    1.4264695776757618E+01 
    2.0883813249993242E+01 
    1.3577607263047840E+01 
    1.5563385079524803E+01 
    9.0149139100858235E+00 
    1.9352718118159416E+01 
    2.3625766828683489E+01 
    1.7407537166605277E+01 
    1.3582092699050698E+01 
    1.2115721962055664E+01 
    1.5108600648045821E+01 
    1.4015265018611265E+01 
    9.3031480878351029E+00 
    2.0933602537831423E+01 
    1.9824136991182353E+01 
    1.9345609988678063E+01 
    1.4739264597150315E+01 
    1.2348764953116103E+01 
    1.3839847643776908E+01 
    2.0395393331519280E+01 
    1.2719497727311120E+01 
    1.4164000470212638E+01 
    1.2954586582344964E+01 
    1.6474102346973481E+01 
    2.3612071802637892E+01 
    1.9326173320301304E+01 
    1.2179082630053699E+01 
    2.0165444019544392E+01 
    2.0036871543408918E+01 
    2.0147204378293541E+01 
    2.1506379567522092E+01 
    2.2189727207046882E+01 
    2.0194779226400044E+01 
    1.4116298811270607E+01 
    1.5312071208525650E+01 
    1.9944051376908508E+01 
    2.0657246739324624E+01 
    9.7470487512573492E+00 
    1.9371946353935897E+01 
    2.0329622914263762E+01 
    9.4622064011018416E+00 
    2.1420497880528256E+01 
    2.1371507260758403E+01 
    1.8873200607771810E+01 
    1.4486806739461837E+01 
    3.5308508005526171E+00 
    2.0892784394290782E+01 
    1.4312070217475005E+01 
    2.1081156198626797E+01 
    1.3482251408673813E+01 
    2.0584160435528990E+01 
    1.2354833068487874E+00 
    1.8172730267600020E+01 
    1.3478517329889335E+01 
    1.2295865563629942E+01 
    1.1965224734964249E+01 
    1.3960450764602284E+01 
    1.5350878483798555E+01 
    1.4737478686974168E+01 
    9.6904406688416955E+00 
    2.0666521891077387E+01 
    1.9922243017291819E+01 
    1.6268194142229682E+01 
    1.4371769548243797E+01 
    1.9669946038617374E+00 
    1.0996233396647250E+01 
    7.4773073224385129E+00 
    2.0934717762025837E+01 
    1.5711402833241593E+01 
    1.9829484193159551E+01 
    2.0016056772072744E+01 
    1.2823392226277569E+01 
    1.6402098893121678E+01 
    1.9323114231360979E+01 
    2.1351819343624886E+01 
    9.0107541243664446E+00 
    1.7510130991745104E+01 
    1.4677608270475215E+01 
    7.9836353323783928E+00 
    1.2820236963427806E+01 
    1.7150054396164411E+01 
    1.9961468477277798E+01 
    1.4014449682419132E+01 
    2.0116980501988159E+01 
    1.9783223484477073E+01 
    1.9712038387682068E+01 
    1.3842034302072037E+01 
    1.2168501707487099E+01 
    1.9359649284180723E+01 
    1.2382955337723779E+01 
    1.4100237152315078E+01 
    1.2134249332123256E+01 
    1.4119540737156322E+01 
    2.0029995399784401E+01 
    8.4176773030494125E+00 
    1.2690512653627582E+01 
    2.0809385053977191E+01 
    1.3847322218766063E+01 
    1.5578103304572576E+01 
    8.6372065489919354E+00 
    1.2480993466150837E+01 
    1.9750361553402342E+01 
    2.0194268593926104E+01 
    7.0470329359564996E+00 
    1.3867909903323316E+01 
    1.2181749678685325E+01 
    2.1900120758122728E+01 
    2.1193627606142996E+01 
    2.2229128601123787E+01 
    1.3889576449596316E+01 
    1.9990356482727456E+01 
    1.9226128357863846E+01 
    1.3717562045771748E+01 
    1.9343941715869139E+01 
    1.4372304944002446E+01 
    8.0572320082957738E+00 
    1.4329066920887948E+01 
    2.0801652656798368E+01 
    1.9337502173012897E+01 
    9.1593886471492905E+00 
    1.9385703297520923E+01 
    1.5386033394674589E+01 
    1.4237385539306308E+01 
    1.3669058525004521E+01 
    1.9099074607728451E+01 
    1.4901842524237725E+01 
    1.9366567112776824E+01 
    1.3881009141578945E+01 
    8.2966667034795414E+00 
    1.4189392422268906E+01 
    1.1975922255095327E+01 
    1.7441213220293918E+01 
    2.1058399203887166E+01 
    1.9360672699753167E+01 
    2.0875301372891183E+01 
    1.3774705494106861E+01 
    8.9182163050856254E+00 
    9.0421621302557238E+00 
    1.4476891633269993E+01 
    1.4065411090194745E+01 
    1.9549702068551669E+00 
    1.8481776759706801E+01 
    2.1559548622801348E+01 
    1.3506127050346084E+01 
    8.4562150512717729E+00 
    1.6263043450269759E+01 
    1.9378114525608297E+01 
    1.0121257329502658E+01 
    6.7379834396068894E+00 
    1.4053723108963911E+01 
    1.9502601381463585E+01 
    2.0550190485934525E+01 
    2.0225950413179994E+01 
    2.0197893076968178E+01 
    9.8309247145760175E+00 
    1.4232519634121818E+01 
    1.8806306702452314E+01 
    1.0754330526807099E+01 
    1.9932968457513812E+01 
    1.6704926652521745E+01 
    9.1759547411500204E+00 
    1.9481586547546957E+01 
    2.0963049378995628E+01 
    1.9595817445415587E+01 
    9.7122966595604634E+00 
    1.4121228909294295E+01 
    1.0748046382243517E+01 
    1.3270241513398425E+01 
    1.9369047291049714E+01 
    1.9350446284020087E+01 
    9.7852807071617303E+00 
    2.0646343658722223E+01 
    1.4795244624216179E+01 
    1.9416344031974745E+01 
    2.0710587598840362E+01 
    1.9389796912768496E+01 
    1.7750803446122056E+01 
    2.1981335098466047E+01 
    1.3428049105263955E+01 
    2.0831033693662285E+01 
    1.9443075126690069E+01 
    2.0937186071861117E+01 
    2.0637110437245738E+01 
    1.3566807855510421E+01 
    1.3968023116606847E+01 
    1.3494962394002631E+01 
    1.7008385779579843E+01 
    5.4518934364495344E+00 
    1.4394513165313716E+01 
    2.2132609481030183E+01 
    1.4378328294112313E+01 
    1.4627865987008096E+01 
    2.0899165481285110E+01 
    2.1203458447731897E+01 
    1.3284865359426780E+01 
    1.9391317399050997E+01 
    1.9348347673961719E+01 
    1.4611016697413939E+01 
    2.0567734702160326E+01 
    9.6806315313708229E+00 
    6.1303403726577193E+00 
    1.4990675295793935E+01 
    1.4393655101349111E+01 
    1.9339290615997580E+01 
    9.1275216114866993E+00 
    2.0124536542271610E+01 
    6.2656444649273269E+00 
    1.4319249484265567E+01 
    1.3565263096582742E+01 
    1.4095192507075334E+01 
    2.3668370564974605E+01 
    5.2866316141534782E+00 
    1.4286875899465803E+01 
    1.7087597508807974E+01 
    1.3645675094811198E+01 
    1.0738555981608620E+01 
    2.0378406245734407E+01 
    2.3154672144296740E+01 
    2.0561832096717541E+01 
    1.4206258508204979E+01 
    7.9538141722386211E+00 
    2.2984348053669116E+01 
    1.9904487962655729E+01 
    1.0129549466625489E+01 
    1.3775254973204454E+01 
    2.1482858235002389E+01 
    4.4705985889739397E+00 
    1.4462996990579027E+01 
    2.0625148714672516E+01 
    1.4114096788012354E+01 
    1.2145196313672114E+01 
    1.4338767505037209E+01 
    1.8883257425128171E+01 
    1.4095050389384385E+01 
    7.0460310862137714E+00 
    1.2153354662876261E+00 
    1.0227218594324984E+01 
    2.1786531713927729E+01 
    1.3493968894793664E+01 
    1.5954912710905024E+01 
    1.5300618204149577E+01 
    1.7519197754969337E+01 
    1.4129351561823627E+01 
    1.9768182704612467E+01 
    2.3684373778489867E+01 
    1.6591157567702680E+01 
    2.0791277590890246E+01 
    6.8851370970917147E-01 
    1.9351951570477066E+01 
    7.7576458537036181E+00 
    2.2336293001820763E+01 
    1.4304655270403748E+01 
    1.2437878696579279E+01 
    1.0974526425529413E+01 
    7.4145785408723706E+00 
    1.5616514481457651E+01 
    1.0913760563122885E+01 
    1.7290198166452019E+01 
    2.9556865785062465E+00 
    1.5436324792393261E+01 
    1.9210918488288836E+01 
    8.1936171303319014E+00 
    2.0000705507935582E+01 
    2.2054629850099115E+01 
    1.9827572274711137E+01 
    1.4122957027759051E+01 
    1.4087524179046975E+01 
    1.4295195710827855E+01 
    8.0711349271306734E+00 
    1.3112522265928295E+01 
    1.2888295035705314E+01 
    1.4280806245628225E+01 
    1.3398066939691734E+01 
    8.9883091588951625E-01 
    8.9142421497028010E+00 
    1.3916665151422782E+01 
    1.4247066854804956E+01 
    1.7796953970883436E+01 
    2.8810256783734496E+00 
    1.4556952006570476E+01 
    1.4403019264540143E+01 
    5.0760241074071324E+00 
    1.9623640637669215E+01 
    1.2408601547230772E+01 
    1.4240134907460241E+01 
    1.9898582413582261E+01 
    7.4470245099114925E+00 
    1.9768083185152179E+01 
    1.2585632163235060E+01 
    1.2557022062817276E+00 
    1.3577271965460870E+01 
    2.0711220904636033E+01 
    1.9356522952090859E+01 
    1.9387722798280194E+01 
    1.4743074617397175E+01 
    1.4322546088583174E+01 
    1.2388889863328078E+01 
    9.7132298313349281E+00 
    2.0068059309853709E+01 
    1.3766860157679083E+01 
    9.3870479621160996E+00 
    1.9378874085588738E+01 
    2.0395682784617257E+01 
    1.4507498957951514E+01 
    1.3903481403560054E+01 
    2.3544494112357853E+01 
    1.4612314134414596E+01 
    2.0087810225145098E+01 
    1.1734596882558790E+01 
    2.3714265588902300E+01 
    8.9888578017127330E+00 
    1.2930120124591271E+01 
    1.0164152377975286E+01 
    1.4924460622906205E+01 
    1.1910748317274766E+01 
    2.3696193916126546E+01 
    1.4677081496579223E+01 
    1.8881723306314733E+01 
    9.2438686652226991E+00 
    1.4121976365748740E+01 
    1.9856936730200655E+01 
    1.1954037770230865E+01 
    1.0159102121137908E+01 
    1.5886283125656398E+01 
    2.0080860341045472E+01 
    9.9933734356252746E+00 
    1.3595942488519823E+01 
    1.3950183779804119E+01 
    1.9310044830201839E+01 
    1.3668119278335078E+01 
    2.0144374535636832E+01 
    2.0977588466911396E+01 
    1.2422114108859180E+01 
    1.2163853969249786E+01 
    1.0934038802958005E+01 
    1.9530112240888450E+01 
    1.4429152373851386E+01 
    2.3199902476517966E+01 
    1.7971619135486506E+01 
    1.9793817956351528E+01 
    2.2832748996119545E+01 
    2.2061348585262852E+01 
    1.4175255429732950E+01 
    1.4260542038037633E+01 
    1.8890762233956419E+01 
    1.9413358236744944E+01 
    2.0319473015222997E+01 
    1.9934878124869783E+01 
    2.3573082894393117E+01 
    1.4611661987907260E+01 
    1.2579159914366365E+01 
    1.4580651972611934E+01 
    2.0852385707396966E+01 
    1.4282308828422890E+01 
    8.0439794622957290E+00 
    1.4101238076398653E+01 
    2.1447391033627369E+01 
    1.4449861899660389E+01 
    1.2589266922097513E+01 
    1.3885114131346112E+01 
    2.1589694358242635E+01 
    1.9574878471087015E+01 
    1.1876136952875777E+01 
    2.1762333952578068E+01 
    1.4207128652914212E+01 
    2.0289325036641397E+01 
    2.1602623391617698E+01 
    1.5055874491442069E+01 
    7.4643663510443012E+00 
    1.5652922790318232E+01 
    7.7257203191518196E+00 
    1.4338769655865061E+01 
    1.4120553008841252E+01 
    1.6488398495091527E+01 
    8.1881742847012884E+00 
    1.7540563952055358E+01 
    1.4136976730045552E+01 
    1.9919981025184779E+01 
    1.5236035651601862E+01 
    1.1479511386258759E+01 
    1.3713283772384623E+01 
    1.4944049244768925E+01 
    1.4751327205104811E+01 
    2.1078506392014642E+01 
    1.1990667177334556E+01 
    1.1772229752648848E+01 
    8.6243624134438051E+00 
    2.0357421640635874E+01 
    1.3770050484763955E+01 
    1.9229903402700408E+01 
    1.4084979641121357E+01 
    9.4629227743191553E+00 
    1.9593420263343546E+01 
    1.4060210310074583E+01 
    1.0379202912108504E+01 
    1.1047530983647714E+01 
    1.1467259400466114E+01 
    1.9967110645972664E+01 
    1.4283438304556169E+01 
    2.0807037824348164E+01 
    1.4018102017711120E+01 
    1.3951620309394372E+01 
    1.3488126972629571E+01 
    1.9722593034328895E+01 
    1.3852241081809940E+01 
    1.1533846889256235E+01 
    2.2051036374604173E+01 
    1.9842370865613013E+01 
    9.4249512561328554E+00 
    3.6635652788734574E+00 
    1.4269882239919683E+01 
    1.3287406822881351E+01 
    1.2157975454453760E+01 
    1.3216262797727445E+01 
    1.9670312216238564E+01 
    1.3876626703611493E+01 
    1.2634643434168858E+01 
    1.9449144508416062E+01 
    9.3388296603650698E+00 
    1.8838644529344126E+01 
    1.2731378161451421E+01 
    1.1359274325567238E+01 
    1.2282767940191436E+01 
    2.0406061829538970E+01 
    1.4097673065338604E+01 
    1.4107618215905440E+01 
    8.3189732591023589E+00 
    9.0293224172632467E+00 
    1.7858286485701477E+01 
    1.4118902851730304E+01 
    1.4321979124258064E+01 
    2.1750235001769603E+01 
    1.1769705798346655E+01 
    1.4132831593068968E+01 
    9.6967803084960984E+00 
    1.0055957921271618E+01 
    1.9666135421073939E+01 
    1.3694336365819357E+01 
    1.0006276915683955E+01 
    1.4742710830609141E+01 
    1.4024027531429100E+01 
    1.9689846493682040E+01 
    2.1866885508085019E+01 
    1.3212000872477192E+00 
    1.4276328889656641E+01 
    1.4392256366215394E+01 
    1.9815067791774222E+01 
    1.3669718003168251E+01 
    1.4064983139014778E+01 
    2.1158932882302082E+01 
    1.2330948278441886E+01 
    1.0100328259741405E+01 
    1.6858190331431715E+01 
    1.9377497004941809E+01 
    2.0930107267385303E+01 
    2.1313993164918180E+01 
    1.4068046436167604E+01 
    1.4264771459224685E+01 
    1.5682673011548676E+01 
    8.9520026072204644E+00 
    1.9580197807208243E+01 
    1.0931321534370884E+01 
    9.3187242616035721E+00 
    1.7523825152650350E+01 
    1.6454465779384044E+01 
    9.1392898147466894E+00 
    1.9432620178199684E+01 
    2.0912308389009965E+01 
    1.4632941273287230E+01 
    2.1996755757711480E+01 
    1.9483183059441849E+01 
    1.3734786049783217E+01 
    2.0476446654151914E+01 
    1.0069063648530923E+01 
    1.9402996563480670E+01 
    1.4274772202014551E+01 
    1.4226105991943431E+01 
    2.1972833647787059E+01 
    1.3824231642865879E+01 
    1.7138598645953103E+01 
    1.2251195771878221E+01 
    2.1080530008714192E+01 
    1.9229624664464904E+01 
    1.2786299120135416E+01 
    1.9348226704563718E+01 
    1.2809983323013801E+01 
    1.4071128386500842E+01 
    2.0854716982628140E+01 
    1.9927727506790774E+01 
    2.0916112025199517E+01 
    1.9818361797235923E+01 
    1.3125245170841403E+01 
    1.3402075467235393E+01 
    2.0927818957957527E+01 
    1.3575038196534507E+01 
    1.9066269631234519E+01 
    1.3797328815596682E+01 
    5.5022534261398608E+00 
    9.4359072535811332E+00 
    8.7191574093019018E+00 
    2.0860230205192927E+01 
    2.1878146312459194E+01 
    1.9370551583616944E+01 
    1.6132976310282459E+01 
    1.9795296277292955E+01 
    1.9444481478528299E+01 
    2.0341663373310830E+01 
    8.0134405783936060E+00 
    5.1094880607532289E+00 
    1.5833811121722295E+01 
    1.3868809012853879E+01 
    1.9680586010957441E+01 
    1.9676515082732543E+01 
    1.4414931336686220E+01 
    1.9734731155438553E+01 
    1.4257215412798747E+01 
    1.4156041909748767E+01 
    7.1994732845877731E+00 
    5.0797678298934024E+00 
    2.1582884305847063E+01 
    1.0796076378227106E+01 
    1.2718340045451901E+01 
    1.4295877292694064E+01 
    2.3549124209345749E+01 
    1.4403854937227527E+01 
    1.4658110404352241E+01 
    5.8044008609884239E+00 
    1.4403685524077829E+01 
    1.4420461065390342E+01 
    2.0044864531859453E+01 
    1.2290961446328661E+01 
    1.3513072454778419E+01 
    2.1802507346768937E+01 
    1.4287246262684597E+01 
    1.9393498937856172E+01 
    1.9718201654481032E+01 
    1.7224517671214638E+01 
    1.1873731890245663E+01 
    1.9815364925801653E+01 
    1.4030287235435734E+01 
    1.9632856442688642E+01 
    1.9282640713633299E+01 
    2.0887668314730494E+01 
    1.9819889671699990E+01 
    1.8206456461461624E+01 
    1.4272182971234090E+01 
    9.0673714734875901E+00 
    2.3403151472395308E+01 
    1.1172570344800462E+01 
    2.0808557207262272E+01 
    1.4268868345731702E+01 
    1.1850995836022360E+01 
    6.7734850374668367E+00 
    1.4464279392078021E+01 
    1.9798401000318350E+01 
    1.9780552120960191E+01 
    1.4047623510659164E+01 
    1.4261433533211815E+01 
    2.2057440166786115E+01 
    2.1237238847407813E+01 
    1.4427892350015481E+01 
    4.7379065088200640E+00 
    1.8076168332503102E+01 
    2.3691222838185265E+01 
    1.4276414166690085E+01 
    1.6655694869508132E+01 
    1.3669561115955137E+01 
    2.3233535613106287E+01 
    2.1344838204184271E+01 
    2.1018848004552677E+01 
    1.4454906557147266E+01 
    6.3074938721019169E+00 
    1.3616501206503687E+01 
    1.3698755042819597E+01 
    1.3746714918880514E+01 
    5.1919761446495141E+00 