# vtk DataFile Version 2.0
Pressure Field Data 
ASCII 
DATASET UNSTRUCTURED_GRID 

POINTS 2860 double 

    0.0000000000000000E+00     0.0000000000000000E+00     0.0000000000000000E+00 
    1.0000000000000000E+00     0.0000000000000000E+00     0.0000000000000000E+00 
    1.0000000000000000E+00     1.0000000000000000E+00     0.0000000000000000E+00 
    0.0000000000000000E+00     1.0000000000000000E+00     0.0000000000000000E+00 
    2.5000000000000000E-01     2.5000000000000000E-01     0.0000000000000000E+00 
    7.5000000000000000E-01     2.5000000000000000E-01     0.0000000000000000E+00 
    7.5000000000000000E-01     7.5000000000000000E-01     0.0000000000000000E+00 
    2.5000000000000000E-01     7.5000000000000000E-01     0.0000000000000000E+00 
    3.1249999999942091E-02     0.0000000000000000E+00     0.0000000000000000E+00 
    6.2499999999873469E-02     0.0000000000000000E+00     0.0000000000000000E+00 
    9.3749999999826514E-02     0.0000000000000000E+00     0.0000000000000000E+00 
    1.2499999999977961E-01     0.0000000000000000E+00     0.0000000000000000E+00 
    1.5624999999968961E-01     0.0000000000000000E+00     0.0000000000000000E+00 
    1.8749999999959971E-01     0.0000000000000000E+00     0.0000000000000000E+00 
    2.1874999999950970E-01     0.0000000000000000E+00     0.0000000000000000E+00 
    2.4999999999941969E-01     0.0000000000000000E+00     0.0000000000000000E+00 
    2.8124999999932920E-01     0.0000000000000000E+00     0.0000000000000000E+00 
    3.1249999999923850E-01     0.0000000000000000E+00     0.0000000000000000E+00 
    3.4374999999914790E-01     0.0000000000000000E+00     0.0000000000000000E+00 
    3.7499999999905720E-01     0.0000000000000000E+00     0.0000000000000000E+00 
    4.0624999999896660E-01     0.0000000000000000E+00     0.0000000000000000E+00 
    4.3749999999887590E-01     0.0000000000000000E+00     0.0000000000000000E+00 
    4.6874999999878530E-01     0.0000000000000000E+00     0.0000000000000000E+00 
    4.9999999999869471E-01     0.0000000000000000E+00     0.0000000000000000E+00 
    5.3124999999877620E-01     0.0000000000000000E+00     0.0000000000000000E+00 
    5.6249999999885780E-01     0.0000000000000000E+00     0.0000000000000000E+00 
    5.9374999999893940E-01     0.0000000000000000E+00     0.0000000000000000E+00 
    6.2499999999902101E-01     0.0000000000000000E+00     0.0000000000000000E+00 
    6.5624999999910261E-01     0.0000000000000000E+00     0.0000000000000000E+00 
    6.8749999999918421E-01     0.0000000000000000E+00     0.0000000000000000E+00 
    7.1874999999926570E-01     0.0000000000000000E+00     0.0000000000000000E+00 
    7.4999999999934730E-01     0.0000000000000000E+00     0.0000000000000000E+00 
    7.8124999999942890E-01     0.0000000000000000E+00     0.0000000000000000E+00 
    8.1249999999951039E-01     0.0000000000000000E+00     0.0000000000000000E+00 
    8.4374999999959199E-01     0.0000000000000000E+00     0.0000000000000000E+00 
    8.7499999999967359E-01     0.0000000000000000E+00     0.0000000000000000E+00 
    9.0624999999975520E-01     0.0000000000000000E+00     0.0000000000000000E+00 
    9.3749999999983680E-01     0.0000000000000000E+00     0.0000000000000000E+00 
    9.6874999999991840E-01     0.0000000000000000E+00     0.0000000000000000E+00 
    1.0000000000000000E+00     3.1249999999942091E-02     0.0000000000000000E+00 
    1.0000000000000000E+00     6.2499999999873469E-02     0.0000000000000000E+00 
    1.0000000000000000E+00     9.3749999999826514E-02     0.0000000000000000E+00 
    1.0000000000000000E+00     1.2499999999977961E-01     0.0000000000000000E+00 
    1.0000000000000000E+00     1.5624999999968961E-01     0.0000000000000000E+00 
    1.0000000000000000E+00     1.8749999999959971E-01     0.0000000000000000E+00 
    1.0000000000000000E+00     2.1874999999950970E-01     0.0000000000000000E+00 
    1.0000000000000000E+00     2.4999999999941969E-01     0.0000000000000000E+00 
    1.0000000000000000E+00     2.8124999999932920E-01     0.0000000000000000E+00 
    1.0000000000000000E+00     3.1249999999923850E-01     0.0000000000000000E+00 
    1.0000000000000000E+00     3.4374999999914790E-01     0.0000000000000000E+00 
    1.0000000000000000E+00     3.7499999999905720E-01     0.0000000000000000E+00 
    1.0000000000000000E+00     4.0624999999896660E-01     0.0000000000000000E+00 
    1.0000000000000000E+00     4.3749999999887590E-01     0.0000000000000000E+00 
    1.0000000000000000E+00     4.6874999999878530E-01     0.0000000000000000E+00 
    1.0000000000000000E+00     4.9999999999869471E-01     0.0000000000000000E+00 
    1.0000000000000000E+00     5.3124999999877620E-01     0.0000000000000000E+00 
    1.0000000000000000E+00     5.6249999999885780E-01     0.0000000000000000E+00 
    1.0000000000000000E+00     5.9374999999893940E-01     0.0000000000000000E+00 
    1.0000000000000000E+00     6.2499999999902101E-01     0.0000000000000000E+00 
    1.0000000000000000E+00     6.5624999999910261E-01     0.0000000000000000E+00 
    1.0000000000000000E+00     6.8749999999918421E-01     0.0000000000000000E+00 
    1.0000000000000000E+00     7.1874999999926570E-01     0.0000000000000000E+00 
    1.0000000000000000E+00     7.4999999999934730E-01     0.0000000000000000E+00 
    1.0000000000000000E+00     7.8124999999942890E-01     0.0000000000000000E+00 
    1.0000000000000000E+00     8.1249999999951039E-01     0.0000000000000000E+00 
    1.0000000000000000E+00     8.4374999999959199E-01     0.0000000000000000E+00 
    1.0000000000000000E+00     8.7499999999967359E-01     0.0000000000000000E+00 
    1.0000000000000000E+00     9.0624999999975520E-01     0.0000000000000000E+00 
    1.0000000000000000E+00     9.3749999999983680E-01     0.0000000000000000E+00 
    1.0000000000000000E+00     9.6874999999991840E-01     0.0000000000000000E+00 
    9.6875000000003686E-01     1.0000000000000000E+00     0.0000000000000000E+00 
    9.3750000000011691E-01     1.0000000000000000E+00     0.0000000000000000E+00 
    9.0625000000015765E-01     1.0000000000000000E+00     0.0000000000000000E+00 
    8.7500000000017863E-01     1.0000000000000000E+00     0.0000000000000000E+00 
    8.4375000000028044E-01     1.0000000000000000E+00     0.0000000000000000E+00 
    8.1250000000040856E-01     1.0000000000000000E+00     0.0000000000000000E+00 
    7.8125000000054956E-01     1.0000000000000000E+00     0.0000000000000000E+00 
    7.5000000000066480E-01     1.0000000000000000E+00     0.0000000000000000E+00 
    7.1875000000086831E-01     1.0000000000000000E+00     0.0000000000000000E+00 
    6.8750000000102829E-01     1.0000000000000000E+00     0.0000000000000000E+00 
    6.5625000000114431E-01     1.0000000000000000E+00     0.0000000000000000E+00 
    6.2500000000129829E-01     1.0000000000000000E+00     0.0000000000000000E+00 
    5.9375000000147926E-01     1.0000000000000000E+00     0.0000000000000000E+00 
    5.6250000000168354E-01     1.0000000000000000E+00     0.0000000000000000E+00 
    5.3125000000188671E-01     1.0000000000000000E+00     0.0000000000000000E+00 
    5.0000000000205835E-01     1.0000000000000000E+00     0.0000000000000000E+00 
    4.6875000000192979E-01     1.0000000000000000E+00     0.0000000000000000E+00 
    4.3750000000180111E-01     1.0000000000000000E+00     0.0000000000000000E+00 
    4.0625000000167238E-01     1.0000000000000000E+00     0.0000000000000000E+00 
    3.7500000000154382E-01     1.0000000000000000E+00     0.0000000000000000E+00 
    3.4375000000141509E-01     1.0000000000000000E+00     0.0000000000000000E+00 
    3.1250000000128642E-01     1.0000000000000000E+00     0.0000000000000000E+00 
    2.8125000000115769E-01     1.0000000000000000E+00     0.0000000000000000E+00 
    2.5000000000102918E-01     1.0000000000000000E+00     0.0000000000000000E+00 
    2.1875000000090050E-01     1.0000000000000000E+00     0.0000000000000000E+00 
    1.8750000000077180E-01     1.0000000000000000E+00     0.0000000000000000E+00 
    1.5625000000064329E-01     1.0000000000000000E+00     0.0000000000000000E+00 
    1.2500000000051459E-01     1.0000000000000000E+00     0.0000000000000000E+00 
    9.3750000000385914E-02     1.0000000000000000E+00     0.0000000000000000E+00 
    6.2500000000257239E-02     1.0000000000000000E+00     0.0000000000000000E+00 
    3.1250000000128557E-02     1.0000000000000000E+00     0.0000000000000000E+00 
    0.0000000000000000E+00     9.6875000000003686E-01     0.0000000000000000E+00 
    0.0000000000000000E+00     9.3750000000011691E-01     0.0000000000000000E+00 
    0.0000000000000000E+00     9.0625000000015765E-01     0.0000000000000000E+00 
    0.0000000000000000E+00     8.7500000000017863E-01     0.0000000000000000E+00 
    0.0000000000000000E+00     8.4375000000028044E-01     0.0000000000000000E+00 
    0.0000000000000000E+00     8.1250000000040856E-01     0.0000000000000000E+00 
    0.0000000000000000E+00     7.8125000000054956E-01     0.0000000000000000E+00 
    0.0000000000000000E+00     7.5000000000066480E-01     0.0000000000000000E+00 
    0.0000000000000000E+00     7.1875000000086831E-01     0.0000000000000000E+00 
    0.0000000000000000E+00     6.8750000000102829E-01     0.0000000000000000E+00 
    0.0000000000000000E+00     6.5625000000114431E-01     0.0000000000000000E+00 
    0.0000000000000000E+00     6.2500000000129829E-01     0.0000000000000000E+00 
    0.0000000000000000E+00     5.9375000000147926E-01     0.0000000000000000E+00 
    0.0000000000000000E+00     5.6250000000168354E-01     0.0000000000000000E+00 
    0.0000000000000000E+00     5.3125000000188671E-01     0.0000000000000000E+00 
    0.0000000000000000E+00     5.0000000000205835E-01     0.0000000000000000E+00 
    0.0000000000000000E+00     4.6875000000192979E-01     0.0000000000000000E+00 
    0.0000000000000000E+00     4.3750000000180111E-01     0.0000000000000000E+00 
    0.0000000000000000E+00     4.0625000000167238E-01     0.0000000000000000E+00 
[...]
CELL_DATA 2795 
SCALARS Pressure double 1 
LOOKUP_TABLE default 

    7.7332510374014252E+00 
    1.7520309640553343E+01 
    1.2215743908553968E+01 
    1.1903252379390260E+01 
    9.4951402173940327E+00 
    1.7353827820785920E+01 
    1.8209726757938594E+01 
    6.9091475183915509E+00 
    1.2774551171871751E+01 
    9.8487139502610432E+00 
    8.4076531344344279E+00 
    1.7046684203279241E+01 
    1.7420620777875456E+01 
    1.7316540849629863E+01 
    1.1273727675032628E+01 
    6.7928196041758593E+00 
    1.0968947811195845E+01 
    8.9493668712469301E+00 
    1.6599952993395878E+01 
    1.2196037785003719E+01 
    1.2091187501330685E+01 
    1.7236964074407858E+01 
    1.1584513225024955E+01 
    4.5218871307702851E-01 
    1.7011654670802130E+01 
    1.7377252159980635E+01 
    1.8245492720287679E+01 
    8.1064217693410754E+00 
    1.6950107297604735E+01 
    1.8234224796937369E+01 
    1.2395580553838949E+01 
    1.2401183471806617E+01 
    8.8135599742224109E+00 
    1.2178406716885149E+01 
    3.9812863211001193E+00 
    1.0973679579092114E+01 
    1.2163402964632494E+01 
    1.8278758177157155E+01 
    1.8182975592752488E+01 
    1.7061812943116543E+01 
    9.4672762165449011E+00 
    1.7029988746175572E+01 
    9.3926215839469906E-01 
    1.2181444538289162E+01 
    1.7982641198185963E+01 
    1.7710656072741674E+01 
    1.7033998004527959E+01 
    1.3168354006780907E+01 
    1.7090748250446559E+01 
    1.1221528422556922E+01 
    1.0692664282981491E+01 
    1.2364637286917564E+01 
    1.2069598238903696E+01 
    1.1040085624912349E+01 
    1.2472341305552446E+01 
    1.6341287666316557E+01 
    1.4303809662474931E+01 
    9.5456600164976475E+00 
    1.7244241781348315E+01 
    1.7147331312111824E+01 
    1.1869433499959245E+01 
    1.1755976292285489E+01 
    1.1787666402697509E+01 
    1.8121963191626101E+01 
    1.8426334681560846E+01 
    1.0985425528722851E+01 
    1.2363032342568415E+01 
    1.6793257636781433E+01 
    1.4249549215653493E+01 
    1.1814596013476315E+01 
    1.8424241299187827E+01 
    1.7189501650468642E+01 
    1.0828170229520509E+01 
    1.7841258684860669E+01 
    1.2734845759845719E+01 
    1.6845013989947006E+01 
    1.8292300055599018E+01 
    1.2831171186213396E+01 
    7.8512388570747147E+00 
    1.2381533431495528E+01 
    1.8193602169705034E+01 
    1.8454271730760748E+01 
    1.0996823616655510E+01 
    1.2307518813254458E+01 
    1.8508923595822001E+01 
    1.2161908020575410E+01 
    1.1687682777468828E+01 
    1.4810344801913203E+01 
    7.5257541755349910E+00 
    1.0721442244864647E+01 
    1.2304477709797865E+01 
    1.2933184731939493E+01 
    2.0114867499100715E+01 
    9.2300211224346462E+00 
    1.2371022648206081E+01 
    1.7007761746819227E+01 
    1.7359728998708864E+01 
    8.1393736883298526E+00 
    1.2018993331505243E+01 
    1.2338954352205919E+01 
    1.7386591898436947E+01 
    1.2328751041845779E+01 
    1.7298318698481804E+01 
    4.9298951057392628E+00 
    8.1718529633538424E+00 
    1.2592791586148531E+01 
    1.7528819213020171E+01 
    1.0931804203909030E+01 
    1.1605780523619963E+01 
    1.2306292637227628E+01 
    1.1646748397282412E+01 
    1.3893314680531835E+01 
    1.1299441807695860E+01 
    1.0838788601774537E+01 
    8.5524436255872427E+00 
    1.4704362486301134E+01 
    1.2406760091938878E+01 
    1.8020420265002898E+01 
    1.0677976068598833E+01 
    1.1879698075693268E+01 
    1.7181210137529455E+01 
    9.9644616780660247E+00 
    1.7709768872614454E+01 
    1.2235403225833890E+01 
    1.1798115891074497E+01 
    1.7363742469713600E+01 
    1.2394104296909408E+01 
    1.8308265012165997E+01 
    1.4867156626013914E+01 
    1.6134188832513779E+01 
    1.8264608128978999E+01 
    9.2479331510114520E+00 
    1.2614499007329194E+01 
    1.7362273230473047E+01 
    3.6770296268017288E+00 
    1.2448322852541315E+01 
    1.8225978549203205E+01 
    1.1830572136946435E+01 
    1.3650973618248454E+01 
    8.0451925679264225E+00 
    1.7004455791682204E+01 
    2.0638026882728671E+01 
    1.5458660841779770E+01 
    1.1831579740360208E+01 
    1.0598770742373928E+01 
    1.3189486770811516E+01 
    1.2252600255134562E+01 
    8.5031096015424801E+00 
    1.8260158583652505E+01 
    1.7378836951266791E+01 
    1.7009750903703985E+01 
    1.2925681207578652E+01 
    1.0800306433433569E+01 
    1.2087394281147075E+01 
    1.7883185603982870E+01 
    1.1100269830284706E+01 
    1.2376630472571840E+01 
    1.1297230538342207E+01 
    1.4390366250840591E+01 
    2.0625400009017561E+01 
    1.6999455383668728E+01 
    1.0806853509855495E+01 
    1.7591772469226999E+01 
    1.7482012229002002E+01 
    1.7574503126890473E+01 
    1.8731830135314119E+01 
    1.9332339163693472E+01 
    1.7698168867072479E+01 
    1.2354602748371043E+01 
    1.3436834563625409E+01 
    1.7506804902743170E+01 
    1.8033170406150180E+01 
    8.8814430724976248E+00 
    1.7033159185724088E+01 
    1.7840306828055180E+01 
    8.6391103667578850E+00 
    1.8645386428041999E+01 
    1.8617033913371571E+01 
    1.6681415279060790E+01 
    1.2689028655550857E+01 
    3.2436312499416196E+00 
    1.8227385369943395E+01 
    1.2530790156488894E+01 
    1.8364035868835568E+01 
    1.1747481041279558E+01 
    1.8018059956008358E+01 
    1.1647267663027092E+00 
    1.6118654510936558E+01 
    1.1806479187556299E+01 
    1.0743473931383404E+01 
    1.0472123955444816E+01 
    1.2202968240629644E+01 
    1.3455245375919352E+01 
    1.2891913030606474E+01 
    8.6379641122777340E+00 
    1.8027458274499718E+01 
    1.7388738732333195E+01 
    1.4349571362930625E+01 
    1.2584085048532881E+01 
    1.8650934042466376E+00 
    9.6712021336883449E+00 
    6.7205149625602170E+00 
    1.8245321298072664E+01 
    1.3717866421246944E+01 
    1.7404333573908044E+01 
    1.7467367602711462E+01 
    1.1190432912660430E+01 
    1.4320946926841067E+01 
    1.7002624104879530E+01 
    1.8598461705670314E+01 
    8.0467340491918087E+00 
    1.5379841570248551E+01 
    1.2851145426668280E+01 
    7.1591057889527736E+00 
    1.1182759234440217E+01 
    1.4975696804255334E+01 
    1.7421985513158521E+01 
    1.2254725828536662E+01 
    1.7549742479393387E+01 
    1.7277327487477422E+01 
    1.7216528333784233E+01 
    1.2091948675683675E+01 
    1.0656508196479168E+01 
    1.7018937290946017E+01 
    1.0824002190833450E+01 
    1.2337344975809394E+01 
    1.0610568699812834E+01 
    1.2329967451201442E+01 
    1.7478758266613372E+01 
    7.6944692470842844E+00 
    1.1072098892089421E+01 
    1.8150082331947324E+01 
    1.2100510589223433E+01 
    1.3605624923914229E+01 
    7.8944592926043429E+00 
    1.0898004212177264E+01 
    1.7251491527489314E+01 
    1.7614209914429566E+01 
    6.4400417874045965E+00 
    1.2113150010949234E+01 
    1.0686293534402294E+01 
    1.9074942292498349E+01 
    1.8464584037661833E+01 
    1.9364308702229824E+01 
    1.2133431126699818E+01 
    1.7446210465201506E+01 
    1.6944317389978469E+01 
    1.1985378848941748E+01 
    1.7010172531452977E+01 
    1.2585131642087163E+01 
    7.2338143906327073E+00 
    1.2518674786683547E+01 
    1.8131235938338186E+01 
    1.7006299363174158E+01 
    8.3750653470917271E+00 
    1.7041877129296452E+01 
    1.3486221495599402E+01 
    1.2424964900854240E+01 
    1.1914706941373705E+01 
    1.6842181618357735E+01 
    1.3011968353189053E+01 
    1.7025405668796150E+01 
    1.2106720954025562E+01 
    7.4502147970819346E+00 
    1.2417383327733130E+01 
    1.0485986711769545E+01 
    1.5511096371259766E+01 
    1.8364028316094050E+01 
    1.7016656887948027E+01 
    1.8218855677623750E+01 
    1.2040253915795327E+01 
    8.1508023246236565E+00 
    8.2639076993943910E+00 
    1.2635899524299095E+01 
    1.2308783889932437E+01 
    1.8077728215117868E+00 
    1.6380847940470716E+01 
    1.8771187596093988E+01 
    1.1765275818926002E+01 
    7.5611065198566783E+00 
    1.4295510389841972E+01 
    1.7039256166797351E+01 
    8.9527010551787196E+00 
    6.0830583855347928E+00 
    1.2292777995048032E+01 
    1.7123969236909041E+01 
    1.7917714320107539E+01 
    1.7759959833584865E+01 
    1.7617074715257832E+01 
    8.7849993432920215E+00 
    1.2419574932597836E+01 
    1.6473501700386635E+01 
    9.6673482318089849E+00 
    1.7404910717122579E+01 
    1.4578881179528345E+01 
    8.3836300176579659E+00 
    1.7146541985610696E+01 
    1.8256620994159949E+01 
    1.7182347434471744E+01 
    8.6193188255813915E+00 
    1.2359047586614267E+01 
    9.4649610983657748E+00 
    1.1676700520181711E+01 
    1.7029778377144044E+01 
    1.7015617961898396E+01 
    8.6686099806912225E+00 
    1.8071187739818292E+01 
    1.2960489110870322E+01 
    1.7050732867959226E+01 
    1.8046911666080923E+01 
    1.7037695954594753E+01 
    1.5737057496499146E+01 
    1.9140252702381847E+01 
    1.1706002012465380E+01 
    1.8182895053835772E+01 
    1.7081772951648219E+01 
    1.8267467972540611E+01 
    1.8064796730868032E+01 
    1.1825589358741102E+01 
    1.2204296302342891E+01 
    1.1754322236929356E+01 
    1.5050680212025870E+01 
    4.9523933480138833E+00 
    1.2562475791243811E+01 
    1.9276769864403807E+01 
    1.2589357378335379E+01 
    1.2811528534285630E+01 
    1.8236511422233338E+01 
    1.8497273358866348E+01 
    1.1603971016657308E+01 
    1.7046944615293551E+01 
    1.7011036320278460E+01 
    1.2796535170583697E+01 
    1.8013331902691892E+01 
    8.8093198829668946E+00 
    5.6254233888205736E+00 
    1.3134424438505199E+01 
    1.2603114866453994E+01 
    1.7015870579981055E+01 
    8.1120373839215940E+00 
    1.7668856475897019E+01 
    5.7318206409876442E+00 
    1.2536456892803358E+01 
    1.1844820859139435E+01 
    1.2335593423343031E+01 
    2.0678541716758168E+01 
    4.7992040230904047E+00 
    1.2468021858757872E+01 
    1.4962388146774053E+01 
    1.1926310752678008E+01 
    9.6118361516247006E+00 
    1.7820385202144035E+01 
    2.0209085537783920E+01 
    1.7982312467470368E+01 
    1.2398052298290485E+01 
    7.1230240525575512E+00 
    2.0048959939866204E+01 
    1.7378009170213428E+01 
    9.0391923724512022E+00 
    1.2008246880745114E+01 
    1.8712544448911125E+01 
    4.0847035325930134E+00 
    1.2664779171059314E+01 
    1.7969194519802976E+01 
    1.2351196961814495E+01 
    1.0777805466667346E+01 
    1.2513621058852372E+01 
    1.6610134095021628E+01 
    1.2333195903920956E+01 
    6.3430659581771520E+00 
    1.1435364639072640E+00 
    9.2351434971110073E+00 
    1.8966585589448140E+01 
    1.1753616762167685E+01 
    1.3927631266644514E+01 
    1.3356400285161181E+01 
    1.5303277065845329E+01 
    1.2365013365491000E+01 
    1.7269656462187811E+01 
    2.0693574113326175E+01 
    1.4748884675639022E+01 
    1.8150728523569104E+01 
    6.7447229576492984E-01 
    1.7017862628616150E+01 
    6.9845877407683403E+00 
    1.9460291920509846E+01 
    1.2483629437710935E+01 
    1.0995628178676169E+01 
    9.6517202716118753E+00 
    6.6590061330962218E+00 
    1.3730734159491941E+01 
    9.7961237521501321E+00 
    1.5390239716222998E+01 
    2.7445003039878575E+00 
    1.3530907470199931E+01 
    1.6931323431319289E+01 
    7.5029060227087783E+00 
    1.7535753826727561E+01 
    1.9235259849325253E+01 
    1.7374519355570822E+01 
    1.2325976807846624E+01 
    1.2329392669547092E+01 
    1.2475331469929737E+01 
    7.2157460234183084E+00 
    1.1431169543589741E+01 
    1.1242032898931235E+01 
    1.2462698509583204E+01 
    1.1670673182472793E+01 
    8.5992488795521949E-01 
    7.9792315453890064E+00 
    1.2143061398569372E+01 
    1.2433391156727676E+01 
    1.5814669454266692E+01 
    2.6783087125407290E+00 
    1.2748412402255997E+01 
    1.2611373864268289E+01 
    4.6236657053072365E+00 
    1.7217203827882322E+01 
    1.0844743834901733E+01 
    1.2465533329891613E+01 
    1.7375654115313665E+01 
    6.6849611649781453E+00 
    1.7339451110606863E+01 
    1.0987659447406497E+01 
    1.2161090845074194E+00 
    1.1828375812072693E+01 
    1.8093362997621206E+01 
    1.7017934631483001E+01 
    1.7039510760751138E+01 
    1.2868122276743037E+01 
    1.2539446441271370E+01 
    1.0819558052210223E+01 
    8.6620681136549429E+00 
    1.7508383428165232E+01 
    1.2001776358556800E+01 
    8.4017760206547774E+00 
    1.7034503604081227E+01 
    1.7834027375705780E+01 
    1.2663884133449431E+01 
    1.2149877146562822E+01 
    2.0564400812968991E+01 
    1.2797687346848724E+01 
    1.7525260373250230E+01 
    1.0294437069464268E+01 
    2.0722626736279640E+01 
    8.2152835850718819E+00 
    1.1301146924436168E+01 
    9.2055568616754275E+00 
    1.3075456212726463E+01 
    1.0539219695116161E+01 
    2.0705439893752342E+01 
    1.2855324949486123E+01 
    1.6567179442246591E+01 
    8.4500672841459519E+00 
    1.2359368789496456E+01 
    1.7337354385874452E+01 
    1.0588323310661668E+01 
    9.0638826166962652E+00 
    1.3915803418084820E+01 
    1.7591637792883912E+01 
    9.0536956381608373E+00 
    1.1870158978437317E+01 
    1.2187715961288788E+01 
    1.6988346566230263E+01 
    1.1953531204693524E+01 
    1.7571468093493799E+01 
    1.8300588108153217E+01 
    1.0854214360187878E+01 
    1.0642734326229174E+01 
    9.8091447274184720E+00 
    1.7154673217680386E+01 
    1.2640531539104034E+01 
    2.0250464350856539E+01 
    1.5793162791917716E+01 
    1.7289466861329213E+01 
    1.9912077746055420E+01 
    1.9241794565930615E+01 
    1.2407023906477168E+01 
    1.2445052595391042E+01 
    1.6704342516089010E+01 
    1.7063614371691767E+01 
    1.7712916332838542E+01 
    1.7403016105074869E+01 
    2.0589139806043839E+01 
    1.2797107517799308E+01 
    1.0976215156666960E+01 
    1.2781628108932795E+01 
    1.8200307907481239E+01 
    1.2503552537738777E+01 
    7.3445023367877020E+00 
    1.2307117051619654E+01 
    1.8678460836644661E+01 
    1.2653098442061284E+01 
    1.0989813630088749E+01 
    1.2127318798455079E+01 
    1.8802689994912782E+01 
    1.7100084964353627E+01 
    1.0488970797621956E+01 
    1.8955088087123638E+01 
    1.2435839341410098E+01 
    1.7694228060418126E+01 
    1.8817008235026822E+01 
    1.3179277241885824E+01 
    6.6923615480920899E+00 
    1.3730701163231315E+01 
    6.9205419637081222E+00 
    1.2554220014036263E+01 
    1.2355889079678724E+01 
    1.4502792321464844E+01 
    7.3178625480303543E+00 
    1.5431563621574035E+01 
    1.2372389709228313E+01 
    1.7390897553714183E+01 
    1.3310566075937002E+01 
    1.0253205947249819E+01 
    1.1978981676985283E+01 
    1.3046908952419374E+01 
    1.2921423425232575E+01 
    1.8356071515642153E+01 
    1.0490274047374031E+01 
    1.0311085617397097E+01 
    7.7029506865401256E+00 
    1.7742607833238278E+01 
    1.2028815096563493E+01 
    1.6839486573259379E+01 
    1.2324075047929178E+01 
    8.4468876420605348E+00 
    1.7132523212826769E+01 
    1.2300542909556812E+01 
    9.2056667653017978E+00 
    9.7354294286612486E+00 
    1.0070170553860740E+01 
    1.7428263509451330E+01 
    1.2465002380889967E+01 
    1.8164750221144153E+01 
    1.2260731649508967E+01 
    1.2199361012893089E+01 
    1.1775495738802769E+01 
    1.7234743992199089E+01 
    1.2112001723332424E+01 
    1.0117149345826018E+01 
    1.9230093700878736E+01 
    1.7332880443267932E+01 
    8.6060241055197437E+00 
    3.3785445657462483E+00 
    1.2453027774986280E+01 
    1.1635860063350602E+01 
    1.0628062884140874E+01 
    1.1542083707601789E+01 
    1.7263145968494985E+01 
    1.2111292123076735E+01 
    1.1038317382167632E+01 
    1.7089960160003187E+01 
    8.5301946708400127E+00 
    1.6661548699139303E+01 
    1.1227377482647750E+01 
    1.0121628585274751E+01 
    1.0730302030223108E+01 
    1.7793074476516335E+01 
    1.2338154672947146E+01 
    1.2346753398599635E+01 
    7.4241122793446106E+00 
    8.0262592255334209E+00 
    1.5658259653439071E+01 
    1.2356790409540954E+01 
    1.2498994523379883E+01 
    1.8941074075038205E+01 
    1.0313948759238981E+01 
    1.2369258146872870E+01 
    8.8232999749695189E+00 
    9.1068683734725671E+00 
    1.7216546112339376E+01 
    1.1981696321428501E+01 
    8.8491567395389961E+00 
    1.2930931535571885E+01 
    1.2259288541249807E+01 
    1.7224621039545170E+01 
    1.9044092800289150E+01 
    1.2767136873548020E+00 
    1.2458697162822460E+01 
    1.2601839354766199E+01 
    1.7308376208177467E+01 
    1.1912637484335555E+01 
    1.2310047117707018E+01 
    1.8421021003351207E+01 
    1.0774900768367040E+01 
    8.9292636252978763E+00 
    1.4796412232626510E+01 
    1.7034392680108670E+01 
    1.8264818011051755E+01 
    1.8568870835976728E+01 
    1.2276070763090138E+01 
    1.2448686620757341E+01 
    1.3765946829109499E+01 
    8.1848035637725207E+00 
    1.7190259480318446E+01 
    9.6177063735017505E+00 
    8.5165250528189542E+00 
    1.5414932454335055E+01 
    1.4476887687772329E+01 
    8.3552549131917271E+00 
    1.7076811194618987E+01 
    1.8249227852511748E+01 
    1.2816044747387149E+01 
    1.9157727986553940E+01 
    1.7116639029538653E+01 
    1.1977264129324716E+01 
    1.7937053295667589E+01 
    9.1025653480607911E+00 
    1.7056549834563882E+01 
    1.2457370149114498E+01 
    1.2413940067295851E+01 
    1.9133322126350304E+01 
    1.2071979012309814E+01 
    1.5122028253689582E+01 
    1.0712187692851568E+01 
    1.8385079044026103E+01 
    1.6941237365565772E+01 
    1.1171856838089951E+01 
    1.7004566477272395E+01 
    1.1262941478743182E+01 
    1.2317244060506658E+01 
    1.8202164443138262E+01 
    1.7400131457518281E+01 
    1.8252709543967963E+01 
    1.7312288591389127E+01 
    1.1436586490574362E+01 
    1.1689352065138699E+01 
    1.8261140664065458E+01 
    1.1838547004194895E+01 
    1.6836735983750291E+01 
    1.2054742148497514E+01 
    4.9827507913477849E+00 
    8.6016245986299111E+00 
    7.9685191638707451E+00 
    1.8206528394334065E+01 
    1.9052473075737272E+01 
    1.7026455460297182E+01 
    1.4150933284188930E+01 
    1.7368249540100560E+01 
    1.7087134026995770E+01 
    1.7790900568020017E+01 
    7.1705266310831339E+00 
    4.6369568235388208E+00 
    1.3884962196166049E+01 
    1.2095217844842674E+01 
    1.7267245729512631E+01 
    1.7264299674264443E+01 
    1.2622968957786341E+01 
    1.7309117288965307E+01 
    1.2442099776776221E+01 
    1.2354421824581257E+01 
    6.4724218294468256E+00 
    4.6231507249070276E+00 
    1.8797873623375544E+01 
    9.6662917655934049E+00 
    1.1098769926023490E+01 
    1.2515516308069168E+01 
    2.0567575690192534E+01 
    1.2612187006014993E+01 
    1.2810459268805698E+01 
    5.2721472462738648E+00 
    1.2612084940782662E+01 
    1.2627066369263366E+01 
    1.7589221679692887E+01 
    1.0738648874806930E+01 
    1.1848537487907569E+01 
    1.8988219323984339E+01 
    1.2468326996383785E+01 
    1.7045373422540589E+01 
    1.7306135529424338E+01 
    1.5121058365372955E+01 
    1.0515026690964978E+01 
    1.7311803845148518E+01 
    1.2238493526326502E+01 
    1.7232058505358534E+01 
    1.6971514294495591E+01 
    1.8228846403630616E+01 
    1.7309543080810872E+01 
    1.6130519169177944E+01 
    1.2455121356661673E+01 
    8.2869464176833159E+00 
    2.0432369185550037E+01 
    9.8133334359405673E+00 
    1.8141274755039216E+01 
    1.2452191199466386E+01 
    1.0373269504656408E+01 
    6.1773886256871240E+00 
    1.2666146146129735E+01 
    1.7295780961605285E+01 
    1.7290548373652499E+01 
    1.2296901093309927E+01 
    1.2445603838288285E+01 
    1.9217223476763817E+01 
    1.8504333031302544E+01 
    1.2633601381479743E+01 
    4.3112256424033095E+00 
    1.5945642286813305E+01 
    2.0701812174605454E+01 
    1.2458858964200067E+01 
    1.4615986892247511E+01 
    1.1912076288615598E+01 
    2.0277348739026959E+01 
    1.8596817137705944E+01 
    1.8303270551707442E+01 
    1.2657693037664428E+01 
    5.7465551874472496E+00 
    1.1862999606111840E+01 
    1.1939187196928524E+01 
    1.1983373749120194E+01 
    4.7061595590679159E+00 