# vtk DataFile Version 2.0
Pressure Field Data 
ASCII 
DATASET UNSTRUCTURED_GRID 

POINTS 2860 double 

    0.0000000000000000E+00     0.0000000000000000E+00     0.0000000000000000E+00 
    1.0000000000000000E+00     0.0000000000000000E+00     0.0000000000000000E+00 
    1.0000000000000000E+00     1.0000000000000000E+00     0.0000000000000000E+00 
    0.0000000000000000E+00     1.0000000000000000E+00     0.0000000000000000E+00 
    2.5000000000000000E-01     2.5000000000000000E-01     0.0000000000000000E+00 
    7.5000000000000000E-01     2.5000000000000000E-01     0.0000000000000000E+00 
    7.5000000000000000E-01     7.5000000000000000E-01     0.0000000000000000E+00 
    2.5000000000000000E-01     7.5000000000000000E-01     0.0000000000000000E+00 
    3.1249999999942091E-02     0.0000000000000000E+00     0.0000000000000000E+00 
    6.2499999999873469E-02     0.0000000000000000E+00     0.0000000000000000E+00 
    9.3749999999826514E-02     0.0000000000000000E+00     0.0000000000000000E+00 
    1.2499999999977961E-01     0.0000000000000000E+00     0.0000000000000000E+00 
    1.5624999999968961E-01     0.0000000000000000E+00     0.0000000000000000E+00 
    1.8749999999959971E-01     0.0000000000000000E+00     0.0000000000000000E+00 
    2.1874999999950970E-01     0.0000000000000000E+00     0.0000000000000000E+00 
    2.4999999999941969E-01     0.0000000000000000E+00     0.0000000000000000E+00 
    2.8124999999932920E-01     0.0000000000000000E+00     0.0000000000000000E+00 
    3.1249999999923850E-01     0.0000000000000000E+00     0.0000000000000000E+00 
    3.4374999999914790E-01     0.0000000000000000E+00     0.0000000000000000E+00 
    3.7499999999905720E-01     0.0000000000000000E+00     0.0000000000000000E+00 
    4.0624999999896660E-01     0.0000000000000000E+00     0.0000000000000000E+00 
    4.3749999999887590E-01     0.0000000000000000E+00     0.0000000000000000E+00 
    4.6874999999878530E-01     0.0000000000000000E+00     0.0000000000000000E+00 
    4.9999999999869471E-01     0.0000000000000000E+00     0.0000000000000000E+00 
    5.3124999999877620E-01     0.0000000000000000E+00     0.0000000000000000E+00 
    5.6249999999885780E-01     0.0000000000000000E+00     0.0000000000000000E+00 
    5.9374999999893940E-01     0.0000000000000000E+00     0.0000000000000000E+00 
    6.2499999999902101E-01     0.0000000000000000E+00     0.0000000000000000E+00 
    6.5624999999910261E-01     0.0000000000000000E+00     0.0000000000000000E+00 
    6.8749999999918421E-01     0.0000000000000000E+00     0.0000000000000000E+00 
    7.1874999999926570E-01     0.0000000000000000E+00     0.0000000000000000E+00 
    7.4999999999934730E-01     0.0000000000000000E+00     0.0000000000000000E+00 
    7.8124999999942890E-01     0.0000000000000000E+00     0.0000000000000000E+00 
    8.1249999999951039E-01     0.0000000000000000E+00     0.0000000000000000E+00 
    8.4374999999959199E-01     0.0000000000000000E+00     0.0000000000000000E+00 
    8.7499999999967359E-01     0.0000000000000000E+00     0.0000000000000000E+00 
    9.0624999999975520E-01     0.0000000000000000E+00     0.0000000000000000E+00 
    9.3749999999983680E-01     0.0000000000000000E+00     0.0000000000000000E+00 
    9.6874999999991840E-01     0.0000000000000000E+00     0.0000000000000000E+00 
    1.0000000000000000E+00     3.1249999999942091E-02     0.0000000000000000E+00 
    1.0000000000000000E+00     6.2499999999873469E-02     0.0000000000000000E+00 
    1.0000000000000000E+00     9.3749999999826514E-02     0.0000000000000000E+00 
    1.0000000000000000E+00     1.2499999999977961E-01     0.0000000000000000E+00 
    1.0000000000000000E+00     1.5624999999968961E-01     0.0000000000000000E+00 
    1.0000000000000000E+00     1.8749999999959971E-01     0.0000000000000000E+00 
    1.0000000000000000E+00     2.1874999999950970E-01     0.0000000000000000E+00 
    1.0000000000000000E+00     2.4999999999941969E-01     0.0000000000000000E+00 
    1.0000000000000000E+00     2.8124999999932920E-01     0.0000000000000000E+00 
    1.0000000000000000E+00     3.1249999999923850E-01     0.0000000000000000E+00 
    1.0000000000000000E+00     3.4374999999914790E-01     0.0000000000000000E+00 
    1.0000000000000000E+00     3.7499999999905720E-01     0.0000000000000000E+00 
    1.0000000000000000E+00     4.0624999999896660E-01     0.0000000000000000E+00 
    1.0000000000000000E+00     4.3749999999887590E-01     0.0000000000000000E+00 
    1.0000000000000000E+00     4.6874999999878530E-01     0.0000000000000000E+00 
    1.0000000000000000E+00     4.9999999999869471E-01     0.0000000000000000E+00 
    1.0000000000000000E+00     5.3124999999877620E-01     0.0000000000000000E+00 
    1.0000000000000000E+00     5.6249999999885780E-01     0.0000000000000000E+00 
    1.0000000000000000E+00     5.9374999999893940E-01     0.0000000000000000E+00 
    1.0000000000000000E+00     6.2499999999902101E-01     0.0000000000000000E+00 
    1.0000000000000000E+00     6.5624999999910261E-01     0.0000000000000000E+00 
    1.0000000000000000E+00     6.8749999999918421E-01     0.0000000000000000E+00 
    1.0000000000000000E+00     7.1874999999926570E-01     0.0000000000000000E+00 
    1.0000000000000000E+00     7.4999999999934730E-01     0.0000000000000000E+00 
    1.0000000000000000E+00     7.8124999999942890E-01     0.0000000000000000E+00 
    1.0000000000000000E+00     8.1249999999951039E-01     0.0000000000000000E+00 
    1.0000000000000000E+00     8.4374999999959199E-01     0.0000000000000000E+00 
    1.0000000000000000E+00     8.7499999999967359E-01     0.0000000000000000E+00 
    1.0000000000000000E+00     9.0624999999975520E-01     0.0000000000000000E+00 
    1.0000000000000000E+00     9.3749999999983680E-01     0.0000000000000000E+00 
    1.0000000000000000E+00     9.6874999999991840E-01     0.0000000000000000E+00 
    9.6875000000003686E-01     1.0000000000000000E+00     0.0000000000000000E+00 
    9.3750000000011691E-01     1.0000000000000000E+00     0.0000000000000000E+00 
    9.0625000000015765E-01     1.0000000000000000E+00     0.0000000000000000E+00 
    8.7500000000017863E-01     1.0000000000000000E+00     0.0000000000000000E+00 
    8.4375000000028044E-01     1.0000000000000000E+00     0.0000000000000000E+00 
    8.1250000000040856E-01     1.0000000000000000E+00     0.0000000000000000E+00 
    7.8125000000054956E-01     1.0000000000000000E+00     0.0000000000000000E+00 
    7.5000000000066480E-01     1.0000000000000000E+00     0.0000000000000000E+00 
    7.1875000000086831E-01     1.0000000000000000E+00     0.0000000000000000E+00 
    6.8750000000102829E-01     1.0000000000000000E+00     0.0000000000000000E+00 
    6.5625000000114431E-01     1.0000000000000000E+00     0.0000000000000000E+00 
    6.2500000000129829E-01     1.0000000000000000E+00     0.0000000000000000E+00 
    5.9375000000147926E-01     1.0000000000000000E+00     0.0000000000000000E+00 
    5.6250000000168354E-01     1.0000000000000000E+00     0.0000000000000000E+00 
    5.3125000000188671E-01     1.0000000000000000E+00     0.0000000000000000E+00 
    5.0000000000205835E-01     1.0000000000000000E+00     0.0000000000000000E+00 
    4.6875000000192979E-01     1.0000000000000000E+00     0.0000000000000000E+00 
    4.3750000000180111E-01     1.0000000000000000E+00     0.0000000000000000E+00 
    4.0625000000167238E-01     1.0000000000000000E+00     0.0000000000000000E+00 
    3.7500000000154382E-01     1.0000000000000000E+00     0.0000000000000000E+00 
    3.4375000000141509E-01     1.0000000000000000E+00     0.0000000000000000E+00 
    3.1250000000128642E-01     1.0000000000000000E+00     0.0000000000000000E+00 
    2.8125000000115769E-01     1.0000000000000000E+00     0.0000000000000000E+00 
    2.5000000000102918E-01     1.0000000000000000E+00     0.0000000000000000E+00 
    2.1875000000090050E-01     1.0000000000000000E+00     0.0000000000000000E+00 
    1.8750000000077180E-01     1.0000000000000000E+00     0.0000000000000000E+00 
    1.5625000000064329E-01     1.0000000000000000E+00     0.0000000000000000E+00 
    1.2500000000051459E-01     1.0000000000000000E+00     0.0000000000000000E+00 
    9.3750000000385914E-02     1.0000000000000000E+00     0.0000000000000000E+00 
    6.2500000000257239E-02     1.0000000000000000E+00     0.0000000000000000E+00 
    3.1250000000128557E-02     1.0000000000000000E+00     0.0000000000000000E+00 
    0.0000000000000000E+00     9.6875000000003686E-01     0.0000000000000000E+00 
    0.0000000000000000E+00     9.3750000000011691E-01     0.0000000000000000E+00 
    0.0000000000000000E+00     9.0625000000015765E-01     0.0000000000000000E+00 
    0.0000000000000000E+00     8.7500000000017863E-01     0.0000000000000000E+00 
    0.0000000000000000E+00     8.4375000000028044E-01     0.0000000000000000E+00 
    0.0000000000000000E+00     8.1250000000040856E-01     0.0000000000000000E+00 
    0.0000000000000000E+00     7.8125000000054956E-01     0.0000000000000000E+00 
    0.0000000000000000E+00     7.5000000000066480E-01     0.0000000000000000E+00 
    0.0000000000000000E+00     7.1875000000086831E-01     0.0000000000000000E+00 
    0.0000000000000000E+00     6.8750000000102829E-01     0.0000000000000000E+00 
    0.0000000000000000E+00     6.5625000000114431E-01     0.0000000000000000E+00 
    0.0000000000000000E+00     6.2500000000129829E-01     0.0000000000000000E+00 
    0.0000000000000000E+00     5.9375000000147926E-01     0.0000000000000000E+00 
    0.0000000000000000E+00     5.6250000000168354E-01     0.0000000000000000E+00 
    0.0000000000000000E+00     5.3125000000188671E-01     0.0000000000000000E+00 
    0.0000000000000000E+00     5.0000000000205835E-01     0.0000000000000000E+00 
    0.0000000000000000E+00     4.6875000000192979E-01     0.0000000000000000E+00 
    0.0000000000000000E+00     4.3750000000180111E-01     0.0000000000000000E+00 
    0.0000000000000000E+00     4.0625000000167238E-01     0.0000000000000000E+00 
[...]
CELL_DATA 2795 
SCALARS Pressure double 1 
LOOKUP_TABLE default 

    7.0740647176648439E+00 
    1.6010920652971489E+01 
    1.1250308940719446E+01 
    1.0887755080294527E+01 
    8.6767028917986853E+00 
    1.5860346942236216E+01 
    1.6652248762754898E+01 
    6.3277053753162154E+00 
    1.1799457521898992E+01 
    9.0755238292324414E+00 
    7.7441661726523936E+00 
    1.5577908574400698E+01 
    1.5915928650021451E+01 
    1.5826218112391405E+01 
    1.0384505771958148E+01 
    6.2241389019462066E+00 
    1.0024159412275402E+01 
    8.2448455776309206E+00 
    1.5175082420671883E+01 
    1.1234066090216503E+01 
    1.1130768616372611E+01 
    1.5754250538092451E+01 
    1.0592533187344129E+01 
    4.1357915494649539E-01 
    1.5577329319946628E+01 
    1.5878507786321576E+01 
    1.6685571431407602E+01 
    7.4591402309361099E+00 
    1.5490209067319427E+01 
    1.6677741301359827E+01 
    1.1349428762582820E+01 
    1.1440722121538185E+01 
    8.1012671403252803E+00 
    1.1213468340904857E+01 
    3.6425789785258531E+00 
    1.0029432471957003E+01 
    1.1200188133590837E+01 
    1.6719837255397312E+01 
    1.6627221328026980E+01 
    1.5591856141455239E+01 
    8.6453640445663904E+00 
    1.5559118077478654E+01 
    8.5954501309084685E-01 
    1.1153160787832258E+01 
    1.6436832312554195E+01 
    1.6218663140668625E+01 
    1.5566217570727639E+01 
    1.2238936868597214E+01 
    1.5635703417249903E+01 
    1.0253209202917548E+01 
    9.7719322099684849E+00 
    1.1405439501022959E+01 
    1.1041169427448594E+01 
    1.0085642708463741E+01 
    1.1421156657771087E+01 
    1.4941786109671309E+01 
    1.3254513113104409E+01 
    8.7231349297877880E+00 
    1.5759437551392177E+01 
    1.5673089432446243E+01 
    1.0860766852442138E+01 
    1.0826270333895003E+01 
    1.0780226916528369E+01 
    1.6572895567325791E+01 
    1.6853144348223516E+01 
    1.0037365241843997E+01 
    1.1404057837506278E+01 
    1.5416682142974812E+01 
    1.3184978466146957E+01 
    1.0879684271343082E+01 
    1.6854222597254694E+01 
    1.5708932320347738E+01 
    9.8949379322776245E+00 
    1.6338187979679908E+01 
    1.1665902622069542E+01 
    1.5414830373519004E+01 
    1.6731949664403945E+01 
    1.1751962316261862E+01 
    7.2482142085315626E+00 
    1.1422179641124290E+01 
    1.6637179284685754E+01 
    1.6884734425561650E+01 
    1.0050024130083136E+01 
    1.1346245259330843E+01 
    1.6934047710614500E+01 
    1.1200168210964030E+01 
    1.0687850812583259E+01 
    1.3661590740089927E+01 
    6.9110808285369103E+00 
    9.7968836064366727E+00 
    1.1344111045408669E+01 
    1.1958445315456387E+01 
    1.8469816215463418E+01 
    8.4350134496181699E+00 
    1.1411902481016712E+01 
    1.5541923614246350E+01 
    1.5862163279753020E+01 
    7.4446375605181894E+00 
    1.1064936093454797E+01 
    1.1376697324897728E+01 
    1.5885025537895674E+01 
    1.1370238771089948E+01 
    1.5808982964248024E+01 
    4.5252846812844947E+00 
    7.5312112959358792E+00 
    1.1628998288455378E+01 
    1.6019198179238384E+01 
    9.9904239717219561E+00 
    1.0618008255608736E+01 
    1.1350301916212013E+01 
    1.0650159521768952E+01 
    1.2829343566129289E+01 
    1.0334910148452158E+01 
    9.9052792434284402E+00 
    7.9181010846141309E+00 
    1.3441106735340441E+01 
    1.1445118799064701E+01 
    1.6478108353350699E+01 
    9.8430052064508384E+00 
    1.0866090653086459E+01 
    1.5697112862558837E+01 
    9.1002948197167584E+00 
    1.6184777286759363E+01 
    1.1273626203366364E+01 
    1.0789768831589303E+01 
    1.5864740550618656E+01 
    1.1434484737097737E+01 
    1.6744987504028558E+01 
    1.3682623890658496E+01 
    1.4766695725952854E+01 
    1.6703507467006531E+01 
    8.4517981485070042E+00 
    1.1652865084669342E+01 
    1.5863493506954956E+01 
    3.3817962372197021E+00 
    1.1398724954504511E+01 
    1.6667359878851812E+01 
    1.0820395760421130E+01 
    1.2491312193904518E+01 
    7.4527039794706216E+00 
    1.5539303434839006E+01 
    1.8977429671053596E+01 
    1.4213692241068832E+01 
    1.0820736348100938E+01 
    9.6867270190777113E+00 
    1.2089838282257144E+01 
    1.1290455089826104E+01 
    7.8264409796003402E+00 
    1.6699427490187691E+01 
    1.5899267651479608E+01 
    1.5543747485490536E+01 
    1.1978533908473542E+01 
    9.8678322370098979E+00 
    1.1127825232758132E+01 
    1.6371397500326783E+01 
    1.0144679579179099E+01 
    1.1336587418371550E+01 
    1.0327605610212556E+01 
    1.3151911137814263E+01 
    1.8965179725147390E+01 
    1.5534533663127005E+01 
    9.8760031471501737E+00 
    1.6073913604136475E+01 
    1.5975596020073182E+01 
    1.6061587917253082E+01 
    1.7145127720046297E+01 
    1.7716792327092477E+01 
    1.6213623180470691E+01 
    1.1395830522678112E+01 
    1.2324111312414960E+01 
    1.6031102338470536E+01 
    1.6491157777372546E+01 
    8.1701526517109908E+00 
    1.5565802966681735E+01 
    1.6331504512492984E+01 
    7.9524542359352122E+00 
    1.7059092305172271E+01 
    1.7037341443750922E+01 
    1.5251830188029571E+01 
    1.1736797726420997E+01 
    2.9696076062408672E+00 
    1.6668731669717623E+01 
    1.1569043158388503E+01 
    1.6798229608367826E+01 
    1.0743286117865136E+01 
    1.6487241233706293E+01 
    1.0607183315205631E+00 
    1.4779925122922636E+01 
    1.0873459405599286E+01 
    9.8169642958654162E+00 
    9.5703735477593774E+00 
    1.1242511372181365E+01 
    1.2429949655614838E+01 
    1.1792674028029495E+01 
    8.0402892716527230E+00 
    1.6485142553652821E+01 
    1.5888594653156057E+01 
    1.3312472889738363E+01 
    1.1621550520340868E+01 
    1.7211421900110313E+00 
    8.8372169281362432E+00 
    6.1664837977517699E+00 
    1.6688638363085960E+01 
    1.2582924411149179E+01 
    1.5923747335627620E+01 
    1.5960962615762226E+01 
    1.0229666069325885E+01 
    1.3160191926547686E+01 
    1.5538557866441373E+01 
    1.7019367815369208E+01 
    7.4066454044246015E+00 
    1.4062652048349271E+01 
    1.1791190099270889E+01 
    6.5684630164008535E+00 
    1.0222235507047913E+01 
    1.3824001103067184E+01 
    1.5919247721478339E+01 
    1.1294337210180229E+01 
    1.6038138694510604E+01 
    1.5785074664463918E+01 
    1.5729163914677009E+01 
    1.1132898936205965E+01 
    9.7423580678036128E+00 
    1.5552311945057614E+01 
    9.8914435117485962E+00 
    1.1377403224524935E+01 
    9.6960117794917782E+00 
    1.1283998949762612E+01 
    1.5971190563024614E+01 
    7.0845155553106007E+00 
    1.0120142725723417E+01 
    1.6597877976607780E+01 
    1.1142658884847533E+01 
    1.2480860933572504E+01 
    7.2675860084586699E+00 
    9.9594690517248203E+00 
    1.5761219903234785E+01 
    1.6098217802221846E+01 
    5.9355175499434658E+00 
    1.1152440946768682E+01 
    9.7581810569254586E+00 
    1.7470413774150668E+01 
    1.6893990276259501E+01 
    1.7746368829502543E+01 
    1.1172350278621991E+01 
    1.5941555312721642E+01 
    1.5489254679613214E+01 
    1.1034545246820571E+01 
    1.5544220062865511E+01 
    1.1622974685963474E+01 
    6.6552269743505734E+00 
    1.1476138206302403E+01 
    1.6581545934648226E+01 
    1.5540711380567531E+01 
    7.7075840840051031E+00 
    1.5573552479290305E+01 
    1.2453914434113797E+01 
    1.1377145690244022E+01 
    1.0899552235145404E+01 
    1.5392434588250060E+01 
    1.1924908408383368E+01 
    1.5558278042474303E+01 
    1.1080579852307473E+01 
    6.8937674663857553E+00 
    1.1453061920350985E+01 
    9.5833958156592445E+00 
    1.4224165269104953E+01 
    1.6797027511779127E+01 
    1.5550304712597047E+01 
    1.6660658016723232E+01 
    1.1086502777583853E+01 
    7.5038343649669557E+00 
    7.6095648778121321E+00 
    1.1573559291775654E+01 
    1.1350905706693631E+01 
    1.6492358872281161E+00 
    1.4992489743351612E+01 
    1.7180004019620224E+01 
    1.0759423971446648E+01 
    6.9442496397335862E+00 
    1.3091252013517005E+01 
    1.5571792409570435E+01 
    8.1838232244544020E+00 
    5.5735852706645206E+00 
    1.1332679062542653E+01 
    1.5652415000163558E+01 
    1.6381967669131878E+01 
    1.6253847582256974E+01 
    1.6101391071079764E+01 
    8.0474920005082069E+00 
    1.1371869679140739E+01 
    1.5051557124252900E+01 
    8.9085537382534117E+00 
    1.5901650584518990E+01 
    1.3418868250029206E+01 
    7.7242262124956467E+00 
    1.5684753173567284E+01 
    1.6693837376113528E+01 
    1.5715852060770933E+01 
    7.8794771724421393E+00 
    1.1400198403232201E+01 
    8.6485635297647132E+00 
    1.0767385081841251E+01 
    1.5562456374518696E+01 
    1.5549323319259962E+01 
    7.9248921415311857E+00 
    1.6531317179398282E+01 
    1.1968999024927173E+01 
    1.5582955398285705E+01 
    1.6500620025989281E+01 
    1.5570074143319751E+01 
    1.4483626712974210E+01 
    1.7530513055499394E+01 
    1.0706022196019454E+01 
    1.6627160510247901E+01 
    1.5611742730468793E+01 
    1.6706104566385019E+01 
    1.6524098223425131E+01 
    1.0816798211015442E+01 
    1.1240257930358855E+01 
    1.0749200904499343E+01 
    1.3914498411115305E+01 
    4.5437627606343423E+00 
    1.1505167235194865E+01 
    1.7661930437803207E+01 
    1.1625369963736031E+01 
    1.1831450840495393E+01 
    1.6677124716347180E+01 
    1.6923539970984361E+01 
    1.0616592899428529E+01 
    1.5578375940380788E+01 
    1.5544945262238873E+01 
    1.1817632719179649E+01 
    1.6475554163105706E+01 
    8.1116964354269196E+00 
    5.1795549978233835E+00 
    1.2129787482961298E+01 
    1.1639187831750910E+01 
    1.5551239218676887E+01 
    7.4199503339082646E+00 
    1.6164020077594270E+01 
    5.2672362442634029E+00 
    1.1573940132955803E+01 
    1.0839513002983541E+01 
    1.1377172121711871E+01 
    1.9017472016829739E+01 
    4.4053891500292881E+00 
    1.1417137654646679E+01 
    1.3669239978180174E+01 
    1.0980863738320833E+01 
    8.8234755311446023E+00 
    1.6291216960167272E+01 
    1.8560920160231195E+01 
    1.6452987573019566E+01 
    1.1352194493962246E+01 
    6.5301746084962664E+00 
    1.8406798944310776E+01 
    1.5877917023133779E+01 
    8.4616170960337218E+00 
    1.0985608387102140E+01 
    1.7127219983401353E+01 
    3.7514382702370184E+00 
    1.1695700481961447E+01 
    1.6426043876908789E+01 
    1.1391745497741349E+01 
    9.9356645228327505E+00 
    1.1459638811361289E+01 
    1.5261261945550341E+01 
    1.1373726290508156E+01 
    5.8152347448472996E+00 
    1.0348050478885586E+00 
    8.5072288062226846E+00 
    1.7364300903910515E+01 
    1.0748667066908679E+01 
    1.2778995167833356E+01 
    1.2244893573841019E+01 
    1.4160016862877150E+01 
    1.1405211830938708E+01 
    1.5778060793289495E+01 
    1.9032170770997848E+01 
    1.3565705120970282E+01 
    1.6597248090364449E+01 
    6.1567293354601926E-01 
    1.5551559363161731E+01 
    6.4485764792314670E+00 
    1.7838532896010513E+01 
    1.1431681975011880E+01 
    1.0123581279547757E+01 
    8.8185668786636491E+00 
    6.0982051196780533E+00 
    1.2765058517539440E+01 
    9.0186539844667557E+00 
    1.4106493016286905E+01 
    2.4963517061131673E+00 
    1.2493795835720750E+01 
    1.5475676559586839E+01 
    6.9163471044011562E+00 
    1.6061534379473851E+01 
    1.7626018519661564E+01 
    1.5890018843779103E+01 
    1.1285358787174651E+01 
    1.1371395704343458E+01 
    1.1423947145051340E+01 
    6.6065929076444645E+00 
    1.0450765508146395E+01 
    1.0275838291865938E+01 
    1.1412179939456916E+01 
    1.0671466526074081E+01 
    7.8196025180575768E-01 
    7.3920935403299959E+00 
    1.1113789111493505E+01 
    1.1384971876793172E+01 
    1.4496522177310064E+01 
    2.4640217605332841E+00 
    1.1773113109460565E+01 
    1.1646096225861097E+01 
    4.2442568816714141E+00 
    1.5741647365830765E+01 
    9.9117822445533097E+00 
    1.1504492776709712E+01 
    1.5874978117685840E+01 
    6.1243937216309829E+00 
    1.5865171090526317E+01 
    1.0041395504370769E+01 
    1.1237680228303886E+00 
    1.0817921110828816E+01 
    1.6546835493510329E+01 
    1.5551333440497318E+01 
    1.5571219973276053E+01 
    1.1790013608932973E+01 
    1.1577009672643150E+01 
    9.8872194071878088E+00 
    8.0767301517402590E+00 
    1.5996414488849517E+01 
    1.0980815254334269E+01 
    7.8470511886487353E+00 
    1.5566722663515190E+01 
    1.6324710780204107E+01 
    1.1599214595479141E+01 
    1.1190076743033664E+01 
    1.8906831845926941E+01 
    1.1818664098598951E+01 
    1.6013898781011079E+01 
    9.4063641945570300E+00 
    1.9061010120744530E+01 
    7.5656828813673460E+00 
    1.0336764462791271E+01 
    8.4729286938810251E+00 
    1.2074674312146689E+01 
    9.7112259412342130E+00 
    1.9044128728742788E+01 
    1.1871834808708016E+01 
    1.5205355700362132E+01 
    7.7799482839725131E+00 
    1.1400350846728831E+01 
    1.5840597921418961E+01 
    9.7500735430024612E+00 
    8.4045972762096106E+00 
    1.2719090034051076E+01 
    1.6080292225728840E+01 
    8.3418207506548789E+00 
    1.0862721503356767E+01 
    1.1224184749820356E+01 
    1.5524214699311777E+01 
    1.1006897514004548E+01 
    1.6059003988582443E+01 
    1.6737237060605537E+01 
    9.9196027619396858E+00 
    9.7250419565876882E+00 
    9.0399580007389382E+00 
    1.5678917216922828E+01 
    1.1671582629801975E+01 
    1.8601265562887932E+01 
    1.4575795073420958E+01 
    1.5796147432464073E+01 
    1.8274902705572192E+01 
    1.7632765289880847E+01 
    1.1446870021546324E+01 
    1.1395786057201009E+01 
    1.5283346546567905E+01 
    1.5593721245659042E+01 
    1.6185781675640342E+01 
    1.5900695808487860E+01 
    1.8929808273010831E+01 
    1.1818135777203079E+01 
    1.0031488041063652E+01 
    1.1811897953958249E+01 
    1.6643344008730910E+01 
    1.1541999359066155E+01 
    6.7559238039318039E+00 
    1.1267853869892942E+01 
    1.7093957907753282E+01 
    1.1685010746040032E+01 
    1.0043960816065946E+01 
    1.1165454354236719E+01 
    1.7211649610664733E+01 
    1.5622472117964143E+01 
    9.5731559330023739E+00 
    1.7356409513743316E+01 
    1.1475335738800341E+01 
    1.6172809710564461E+01 
    1.7225290132032402E+01 
    1.2104442967222898E+01 
    6.1333543707035796E+00 
    1.2615445867960741E+01 
    6.3435442292770601E+00 
    1.1591821125025433E+01 
    1.1395378145379210E+01 
    1.3304323725599241E+01 
    6.7118717432228392E+00 
    1.4129925362607935E+01 
    1.1412829936337873E+01 
    1.5889700069309709E+01 
    1.2166450450862653E+01 
    9.4152609650654284E+00 
    1.1028691492047791E+01 
    1.1957540361611008E+01 
    1.1933205613542569E+01 
    1.6788814638362791E+01 
    9.5853036026926226E+00 
    9.4222688330373607E+00 
    7.0651313325558673E+00 
    1.6213825791675546E+01 
    1.1074165237630224E+01 
    1.5389178838818275E+01 
    1.1364812869668024E+01 
    7.7271049163576864E+00 
    1.5653838738898168E+01 
    1.1341261738198382E+01 
    8.4099748553818845E+00 
    8.8954045385312526E+00 
    9.2033360075198072E+00 
    1.5923612030373528E+01 
    1.1414323058978894E+01 
    1.6610251115135863E+01 
    1.1301544874208453E+01 
    1.1241005239498065E+01 
    1.0774611927885836E+01 
    1.5746425745677881E+01 
    1.1156757091394304E+01 
    9.2459413628365343E+00 
    1.7621018504683530E+01 
    1.5835962720625810E+01 
    7.9242072907515588E+00 
    3.1074578699428907E+00 
    1.1403150614465273E+01 
    1.0717054616497338E+01 
    9.7111737597909347E+00 
    1.0558601475777122E+01 
    1.5778280343808289E+01 
    1.1085913179693247E+01 
    1.0091275784872371E+01 
    1.5617817417864698E+01 
    7.8556693835964344E+00 
    1.5240632876881090E+01 
    1.0340156988847125E+01 
    9.2437854330171909E+00 
    9.8050535518476654E+00 
    1.6265016079870470E+01 
    1.1379828000759332E+01 
    1.1388109179879052E+01 
    6.7951691519070563E+00 
    7.3417460613512215E+00 
    1.4441127014475001E+01 
    1.1397907461698079E+01 
    1.1445972372069654E+01 
    1.7342300023613880E+01 
    9.4265206040163125E+00 
    1.1410119789753908E+01 
    8.1262716191641804E+00 
    8.3871055439642923E+00 
    1.5737887519583351E+01 
    1.1035056805981299E+01 
    8.0895482079883738E+00 
    1.1970219192989585E+01 
    1.1295795744159699E+01 
    1.5741666663265498E+01 
    1.7440532961185038E+01 
    1.1773977161854237E+00 
    1.1408424862492087E+01 
    1.1637717143299346E+01 
    1.5813578083476301E+01 
    1.0896983974218365E+01 
    1.1352835354266720E+01 
    1.6848218426478983E+01 
    9.8464417160853408E+00 
    8.1626479427333578E+00 
    1.3682763986587192E+01 
    1.5566559886968667E+01 
    1.6703886747821397E+01 
    1.6992306399483859E+01 
    1.1238512922618575E+01 
    1.1399149150545183E+01 
    1.2794478387562860E+01 
    7.5333656027460583E+00 
    1.5709900204296170E+01 
    8.7881517348076610E+00 
    7.8419835472223891E+00 
    1.4269419226567335E+01 
    1.3456869582963126E+01 
    7.6918560554453590E+00 
    1.5605723029487795E+01 
    1.6689101075703970E+01 
    1.1835611882369676E+01 
    1.7548618194638745E+01 
    1.5642652919603076E+01 
    1.0958941557820243E+01 
    1.6402723658978001E+01 
    8.3850504085513968E+00 
    1.5587426277668717E+01 
    1.1407206818860054E+01 
    1.1366631986643247E+01 
    1.7524113967843324E+01 
    1.1113162625167524E+01 
    1.4012606572687982E+01 
    9.7899318685263790E+00 
    1.6816752944478747E+01 
    1.5483085226991967E+01 
    1.0209203939035524E+01 
    1.5539216642037976E+01 
    1.0368858937407502E+01 
    1.1360613118057895E+01 
    1.6645116536077023E+01 
    1.5897107674336327E+01 
    1.6692421521940418E+01 
    1.5817200603167235E+01 
    1.0456217548433026E+01 
    1.0691943153519453E+01 
    1.6700222428878032E+01 
    1.0830191785311614E+01 
    1.5400469957976783E+01 
    1.1098530160287879E+01 
    4.5694502328665170E+00 
    7.9244880699013880E+00 
    7.3422760019641951E+00 
    1.6649147460563871E+01 
    1.7447988179089894E+01 
    1.5559278610476914E+01 
    1.3070482442574537E+01 
    1.5878666562367080E+01 
    1.5615309305947285E+01 
    1.6263982269247872E+01 
    6.5685043431102299E+00 
    4.2569252400560185E+00 
    1.2830221653249838E+01 
    1.1068492581645355E+01 
    1.5780655061296173E+01 
    1.5777872937815079E+01 
    1.1662819946387538E+01 
    1.5819263745497283E+01 
    1.1393028985228087E+01 
    1.1314195723499655E+01 
    5.9296298271636489E+00 
    4.2455170549146972E+00 
    1.7207443862417918E+01 
    8.9072628159550220E+00 
    1.0144130621747721E+01 
    1.1553518756728165E+01 
    1.8909380581693089E+01 
    1.1647596703157900E+01 
    1.1747153598934144E+01 
    4.8336771672408094E+00 
    1.1648097021710900E+01 
    1.1663185541528669E+01 
    1.6110342873789772E+01 
    9.8127744846303333E+00 
    1.0915794716352849E+01 
    1.7387554191054750E+01 
    1.1417378876822951E+01 
    1.5576676626536308E+01 
    1.5836125986530956E+01 
    1.3942197677848954E+01 
    9.6893752640565900E+00 
    1.5816825099874940E+01 
    1.1202585261554898E+01 
    1.5757865437784817E+01 
    1.5508987424308025E+01 
    1.6669991353772748E+01 
    1.5814667545825966E+01 
    1.4815526123143451E+01 
    1.1405120965181379E+01 
    7.6337145398089481E+00 
    1.8777746948033517E+01 
    8.9656297960379128E+00 
    1.6591312782705764E+01 
    1.1402387668381886E+01 
    9.4763167770364163E+00 
    5.6800785898732382E+00 
    1.1703917652277585E+01 
    1.5802117114290384E+01 
    1.5798217891494621E+01 
    1.1340996031205785E+01 
    1.1396241354278752E+01 
    1.7606469780579737E+01 
    1.6931348414529786E+01 
    1.1667718351417507E+01 
    3.9582389642714033E+00 
    1.4707308433731356E+01 
    1.9041027107670548E+01 
    1.1408608345809016E+01 
    1.3492718755134407E+01 
    1.0896254807284295E+01 
    1.8627877909932835E+01 
    1.7017694748109378E+01 
    1.6737925305442499E+01 
    1.1690729340654908E+01 
    5.2738682707809259E+00 
    1.0849885267031478E+01 
    1.0922068349173268E+01 
    1.0963645448060097E+01 
    4.3140497257561510E+00 