# vtk DataFile Version 2.0
Pressure Field Data 
ASCII 
DATASET UNSTRUCTURED_GRID 

POINTS 2860 double 

    0.0000000000000000E+00     0.0000000000000000E+00     0.0000000000000000E+00 
    1.0000000000000000E+00     0.0000000000000000E+00     0.0000000000000000E+00 
    1.0000000000000000E+00     1.0000000000000000E+00     0.0000000000000000E+00 
    0.0000000000000000E+00     1.0000000000000000E+00     0.0000000000000000E+00 
    2.5000000000000000E-01     2.5000000000000000E-01     0.0000000000000000E+00 
    7.5000000000000000E-01     2.5000000000000000E-01     0.0000000000000000E+00 
    7.5000000000000000E-01     7.5000000000000000E-01     0.0000000000000000E+00 
    2.5000000000000000E-01     7.5000000000000000E-01     0.0000000000000000E+00 
    3.1249999999942091E-02     0.0000000000000000E+00     0.0000000000000000E+00 
    6.2499999999873469E-02     0.0000000000000000E+00     0.0000000000000000E+00 
    9.3749999999826514E-02     0.0000000000000000E+00     0.0000000000000000E+00 
    1.2499999999977961E-01     0.0000000000000000E+00     0.0000000000000000E+00 
    1.5624999999968961E-01     0.0000000000000000E+00     0.0000000000000000E+00 
    1.8749999999959971E-01     0.0000000000000000E+00     0.0000000000000000E+00 
    2.1874999999950970E-01     0.0000000000000000E+00     0.0000000000000000E+00 
    2.4999999999941969E-01     0.0000000000000000E+00     0.0000000000000000E+00 
    2.8124999999932920E-01     0.0000000000000000E+00     0.0000000000000000E+00 
    3.1249999999923850E-01     0.0000000000000000E+00     0.0000000000000000E+00 
    3.4374999999914790E-01     0.0000000000000000E+00     0.0000000000000000E+00 
    3.7499999999905720E-01     0.0000000000000000E+00     0.0000000000000000E+00 
    4.0624999999896660E-01     0.0000000000000000E+00     0.0000000000000000E+00 
    4.3749999999887590E-01     0.0000000000000000E+00     0.0000000000000000E+00 
    4.6874999999878530E-01     0.0000000000000000E+00     0.0000000000000000E+00 
    4.9999999999869471E-01     0.0000000000000000E+00     0.0000000000000000E+00 
    5.3124999999877620E-01     0.0000000000000000E+00     0.0000000000000000E+00 
    5.6249999999885780E-01     0.0000000000000000E+00     0.0000000000000000E+00 
    5.9374999999893940E-01     0.0000000000000000E+00     0.0000000000000000E+00 
    6.2499999999902101E-01     0.0000000000000000E+00     0.0000000000000000E+00 
    6.5624999999910261E-01     0.0000000000000000E+00     0.0000000000000000E+00 
    6.8749999999918421E-01     0.0000000000000000E+00     0.0000000000000000E+00 
    7.1874999999926570E-01     0.0000000000000000E+00     0.0000000000000000E+00 
    7.4999999999934730E-01     0.0000000000000000E+00     0.0000000000000000E+00 
    7.8124999999942890E-01     0.0000000000000000E+00     0.0000000000000000E+00 
    8.1249999999951039E-01     0.0000000000000000E+00     0.0000000000000000E+00 
    8.4374999999959199E-01     0.0000000000000000E+00     0.0000000000000000E+00 
    8.7499999999967359E-01     0.0000000000000000E+00     0.0000000000000000E+00 
    9.0624999999975520E-01     0.0000000000000000E+00     0.0000000000000000E+00 
    9.3749999999983680E-01     0.0000000000000000E+00     0.0000000000000000E+00 
    9.6874999999991840E-01     0.0000000000000000E+00     0.0000000000000000E+00 
    1.0000000000000000E+00     3.1249999999942091E-02     0.0000000000000000E+00 
    1.0000000000000000E+00     6.2499999999873469E-02     0.0000000000000000E+00 
    1.0000000000000000E+00     9.3749999999826514E-02     0.0000000000000000E+00 
    1.0000000000000000E+00     1.2499999999977961E-01     0.0000000000000000E+00 
    1.0000000000000000E+00     1.5624999999968961E-01     0.0000000000000000E+00 
    1.0000000000000000E+00     1.8749999999959971E-01     0.0000000000000000E+00 
    1.0000000000000000E+00     2.1874999999950970E-01     0.0000000000000000E+00 
    1.0000000000000000E+00     2.4999999999941969E-01     0.0000000000000000E+00 
    1.0000000000000000E+00     2.8124999999932920E-01     0.0000000000000000E+00 
    1.0000000000000000E+00     3.1249999999923850E-01     0.0000000000000000E+00 
    1.0000000000000000E+00     3.4374999999914790E-01     0.0000000000000000E+00 
    1.0000000000000000E+00     3.7499999999905720E-01     0.0000000000000000E+00 
    1.0000000000000000E+00     4.0624999999896660E-01     0.0000000000000000E+00 
    1.0000000000000000E+00     4.3749999999887590E-01     0.0000000000000000E+00 
    1.0000000000000000E+00     4.6874999999878530E-01     0.0000000000000000E+00 
    1.0000000000000000E+00     4.9999999999869471E-01     0.0000000000000000E+00 
    1.0000000000000000E+00     5.3124999999877620E-01     0.0000000000000000E+00 
    1.0000000000000000E+00     5.6249999999885780E-01     0.0000000000000000E+00 
    1.0000000000000000E+00     5.9374999999893940E-01     0.0000000000000000E+00 
    1.0000000000000000E+00     6.2499999999902101E-01     0.0000000000000000E+00 
    1.0000000000000000E+00     6.5624999999910261E-01     0.0000000000000000E+00 
    1.0000000000000000E+00     6.8749999999918421E-01     0.0000000000000000E+00 
    1.0000000000000000E+00     7.1874999999926570E-01     0.0000000000000000E+00 
    1.0000000000000000E+00     7.4999999999934730E-01     0.0000000000000000E+00 
    1.0000000000000000E+00     7.8124999999942890E-01     0.0000000000000000E+00 
    1.0000000000000000E+00     8.1249999999951039E-01     0.0000000000000000E+00 
    1.0000000000000000E+00     8.4374999999959199E-01     0.0000000000000000E+00 
    1.0000000000000000E+00     8.7499999999967359E-01     0.0000000000000000E+00 
    1.0000000000000000E+00     9.0624999999975520E-01     0.0000000000000000E+00 
    1.0000000000000000E+00     9.3749999999983680E-01     0.0000000000000000E+00 
    1.0000000000000000E+00     9.6874999999991840E-01     0.0000000000000000E+00 
    9.6875000000003686E-01     1.0000000000000000E+00     0.0000000000000000E+00 
    9.3750000000011691E-01     1.0000000000000000E+00     0.0000000000000000E+00 
    9.0625000000015765E-01     1.0000000000000000E+00     0.0000000000000000E+00 
    8.7500000000017863E-01     1.0000000000000000E+00     0.0000000000000000E+00 
    8.4375000000028044E-01     1.0000000000000000E+00     0.0000000000000000E+00 
    8.1250000000040856E-01     1.0000000000000000E+00     0.0000000000000000E+00 
    7.8125000000054956E-01     1.0000000000000000E+00     0.0000000000000000E+00 
    7.5000000000066480E-01     1.0000000000000000E+00     0.0000000000000000E+00 
    7.1875000000086831E-01     1.0000000000000000E+00     0.0000000000000000E+00 
    6.8750000000102829E-01     1.0000000000000000E+00     0.0000000000000000E+00 
    6.5625000000114431E-01     1.0000000000000000E+00     0.0000000000000000E+00 
    6.2500000000129829E-01     1.0000000000000000E+00     0.0000000000000000E+00 
    5.9375000000147926E-01     1.0000000000000000E+00     0.0000000000000000E+00 
    5.6250000000168354E-01     1.0000000000000000E+00     0.0000000000000000E+00 
    5.3125000000188671E-01     1.0000000000000000E+00     0.0000000000000000E+00 
    5.0000000000205835E-01     1.0000000000000000E+00     0.0000000000000000E+00 
    4.6875000000192979E-01     1.0000000000000000E+00     0.0000000000000000E+00 
    4.3750000000180111E-01     1.0000000000000000E+00     0.0000000000000000E+00 
    4.0625000000167238E-01     1.0000000000000000E+00     0.0000000000000000E+00 
    3.7500000000154382E-01     1.0000000000000000E+00     0.0000000000000000E+00 
    3.4375000000141509E-01     1.0000000000000000E+00     0.0000000000000000E+00 
    3.1250000000128642E-01     1.0000000000000000E+00     0.0000000000000000E+00 
    2.8125000000115769E-01     1.0000000000000000E+00     0.0000000000000000E+00 
    2.5000000000102918E-01     1.0000000000000000E+00     0.0000000000000000E+00 
    2.1875000000090050E-01     1.0000000000000000E+00     0.0000000000000000E+00 
    1.8750000000077180E-01     1.0000000000000000E+00     0.0000000000000000E+00 
    1.5625000000064329E-01     1.0000000000000000E+00     0.0000000000000000E+00 
    1.2500000000051459E-01     1.0000000000000000E+00     0.0000000000000000E+00 
    9.3750000000385914E-02     1.0000000000000000E+00     0.0000000000000000E+00 
    6.2500000000257239E-02     1.0000000000000000E+00     0.0000000000000000E+00 
    3.1250000000128557E-02     1.0000000000000000E+00     0.0000000000000000E+00 
    0.0000000000000000E+00     9.6875000000003686E-01     0.0000000000000000E+00 
    0.0000000000000000E+00     9.3750000000011691E-01     0.0000000000000000E+00 
    0.0000000000000000E+00     9.0625000000015765E-01     0.0000000000000000E+00 
    0.0000000000000000E+00     8.7500000000017863E-01     0.0000000000000000E+00 
    0.0000000000000000E+00     8.4375000000028044E-01     0.0000000000000000E+00 
    0.0000000000000000E+00     8.1250000000040856E-01     0.0000000000000000E+00 
    0.0000000000000000E+00     7.8125000000054956E-01     0.0000000000000000E+00 
    0.0000000000000000E+00     7.5000000000066480E-01     0.0000000000000000E+00 
    0.0000000000000000E+00     7.1875000000086831E-01     0.0000000000000000E+00 
    0.0000000000000000E+00     6.8750000000102829E-01     0.0000000000000000E+00 
    0.0000000000000000E+00     6.5625000000114431E-01     0.0000000000000000E+00 
    0.0000000000000000E+00     6.2500000000129829E-01     0.0000000000000000E+00 
    0.0000000000000000E+00     5.9375000000147926E-01     0.0000000000000000E+00 
    0.0000000000000000E+00     5.6250000000168354E-01     0.0000000000000000E+00 
    0.0000000000000000E+00     5.3125000000188671E-01     0.0000000000000000E+00 
    0.0000000000000000E+00     5.0000000000205835E-01     0.0000000000000000E+00 
    0.0000000000000000E+00     4.6875000000192979E-01     0.0000000000000000E+00 
    0.0000000000000000E+00     4.3750000000180111E-01     0.0000000000000000E+00 
    0.0000000000000000E+00     4.0625000000167238E-01     0.0000000000000000E+00 
[...]
CELL_DATA 2795 
SCALARS Pressure double 1 
LOOKUP_TABLE default 

    5.9382475343685810E+00 
    1.3643541258888364E+01 
    9.6234744405303001E+00 
    9.2271197837362369E+00 
    7.3166121372043902E+00 
    1.3520881007458534E+01 
    1.4216133107509696E+01 
    5.2989803934862181E+00 
    1.0180808009371802E+01 
    7.7767436066041409E+00 
    6.6266712657508577E+00 
    1.3276504702532691E+01 
    1.3553177234312155E+01 
    1.3491322746308921E+01 
    8.8804788762488105E+00 
    5.2101588418965274E+00 
    8.4798571780174274E+00 
    7.0599484315662346E+00 
    1.2931548693365386E+01 
    9.6135777957065489E+00 
    9.5079041540513298E+00 
    1.3429442836684517E+01 
    8.9707933961469273E+00 
    3.4831064998303146E-01 
    1.3270933053220503E+01 
    1.3526009931479384E+01 
    1.4246303044390455E+01 
    6.3693962068915724E+00 
    1.3200696078301494E+01 
    1.4242303836945688E+01 
    9.6644632030339412E+00 
    9.8359995155035822E+00 
    6.8841507169838758E+00 
    9.5856064973057187E+00 
    3.0733454296206748E+00 
    8.4850813217871650E+00 
    9.5752362439672147E+00 
    1.4280885881901167E+01 
    1.4194243027295837E+01 
    1.3288800839618558E+01 
    7.2500458479496928E+00 
    1.3244832927970030E+01 
    7.2524570381667153E-01 
    9.4666690465374561E+00 
    1.4017346596686489E+01 
    1.3855144822227979E+01 
    1.3266291664722548E+01 
    1.0514406359715409E+01 
    1.3335701405793268E+01 
    8.6783649688658038E+00 
    8.2614079771440760E+00 
    9.8025392627562127E+00 
    9.3574889466665780E+00 
    8.5294455128274613E+00 
    9.7324794927068474E+00 
    1.2731912436094603E+01 
    1.1475073898267681E+01 
    7.3565863877400792E+00 
    1.3433186411832004E+01 
    1.3359879358911686E+01 
    9.2243821340001446E+00 
    9.2539198497047686E+00 
    9.1331679584513044E+00 
    1.4148110980911548E+01 
    1.4394100771467158E+01 
    8.4896449258542201E+00 
    9.8006433214804307E+00 
    1.3179043094969403E+01 
    1.1275915778853378E+01 
    9.2958623759059478E+00 
    1.4400185074824220E+01 
    1.3375239209925368E+01 
    8.3684925986244991E+00 
    1.3950877534300758E+01 
    9.9627654987090253E+00 
    1.3126945199854955E+01 
    1.4291248575173041E+01 
    9.9744847114264967E+00 
    6.0623183647387027E+00 
    9.8199653426945481E+00 
    1.4202712385978176E+01 
    1.4430643932758770E+01 
    8.4997773995126007E+00 
    9.7332695397232829E+00 
    1.4472297777989530E+01 
    9.5783242409560927E+00 
    9.0532280363981599E+00 
    1.1672343644382535E+01 
    5.7782907288935617E+00 
    8.2835169113346474E+00 
    9.7329304716252327E+00 
    1.0322288287193622E+01 
    1.5907050690736833E+01 
    7.1080689238262478E+00 
    9.8090024161941347E+00 
    1.3245204790563967E+01 
    1.3506805184567391E+01 
    6.2498852437500894E+00 
    9.4511824681488878E+00 
    9.7629067760190757E+00 
    1.3526258184942948E+01 
    9.7646448175338030E+00 
    1.3461266428600881E+01 
    3.7959354082357830E+00 
    6.4423843751863279E+00 
    1.0040187869291589E+01 
    1.3651670331003034E+01 
    8.4505856086258682E+00 
    9.0131567419601328E+00 
    9.7498851473332238E+00 
    9.0210236089258764E+00 
    1.1087379846997774E+01 
    8.7626476672601203E+00 
    8.3767943750676164E+00 
    6.5828260806086947E+00 
    1.1417871765516482E+01 
    9.8360182044467912E+00 
    1.4063429468337450E+01 
    8.4420591547008410E+00 
    9.2101339859262481E+00 
    1.3364311641554913E+01 
    7.6630432074404231E+00 
    1.3795209821487360E+01 
    9.6556639725614080E+00 
    9.1414296289023493E+00 
    1.3508728140574453E+01 
    9.8338511648325628E+00 
    1.4300286025223979E+01 
    1.1683615418229016E+01 
    1.2587581598742840E+01 
    1.4262484225777602E+01 
    7.1226420622715292E+00 
    1.0062138152178338E+01 
    1.3510387750979204E+01 
    2.8462161056964366E+00 
    9.7114852949349846E+00 
    1.4230105475974927E+01 
    9.1700307182427974E+00 
    1.0604493026968301E+01 
    6.2032521961088900E+00 
    1.3243633694586872E+01 
    1.6392688020796271E+01 
    1.2130865083268342E+01 
    9.1682752928510300E+00 
    8.1870890916581462E+00 
    1.0394742072292809E+01 
    9.6726278586930032E+00 
    6.6970310458679183E+00 
    1.4258665294842944E+01 
    1.3598150626568419E+01 
    1.3246826959499804E+01 
    1.0320586234815035E+01 
    8.3407677578164119E+00 
    9.5065898876484525E+00 
    1.3977334153059825E+01 
    8.5837051658969852E+00 
    9.6218225211813735E+00 
    8.7422240950873160E+00 
    1.1170498363819945E+01 
    1.6380985640071323E+01 
    1.3238771720659837E+01 
    8.2953002159500464E+00 
    1.3692827997285702E+01 
    1.3612435791939811E+01 
    1.3689403499007355E+01 
    1.4666302478912511E+01 
    1.5196485938875570E+01 
    1.3853132829385174E+01 
    9.7918842220751063E+00 
    1.0479875534385894E+01 
    1.3685812685375318E+01 
    1.4074071154647605E+01 
    6.9921631593029527E+00 
    1.3265945278037149E+01 
    1.3940669366966363E+01 
    6.8072874462815092E+00 
    1.4580800656077264E+01 
    1.4568621798766708E+01 
    1.2998128151282598E+01 
    1.0125907060421993E+01 
    2.5007858468578275E+00 
    1.4230920276894693E+01 
    9.9804521180396666E+00 
    1.4349697091906057E+01 
    9.1030184927135238E+00 
    1.4072324148267725E+01 
    8.8846698733320661E-01 
    1.2605394881483695E+01 
    9.2975714909723557E+00 
    8.3014214751555748E+00 
    8.0871461499738473E+00 
    9.6257425616364838E+00 
    1.0756756857221637E+01 
    1.0001276610360138E+01 
    6.6828837733196105E+00 
    1.4069532849487665E+01 
    1.3533893177027455E+01 
    1.1397206983922853E+01 
    1.0034108183672096E+01 
    1.4545373223134255E+00 
    7.4553077535690280E+00 
    5.1498066732222600E+00 
    1.4253137958104535E+01 
    1.0911978093512626E+01 
    1.3585177706959879E+01 
    1.3597464873502826E+01 
    8.6578633530982749E+00 
    1.1441711658262395E+01 
    1.3242610732682484E+01 
    1.4551539239841830E+01 
    6.1781348676843901E+00 
    1.1956629929441375E+01 
    1.0033668893114573E+01 
    5.4948491190977142E+00 
    8.6515585309925527E+00 
    1.1954416146019073E+01 
    1.3560883578793668E+01 
    9.6804751403471521E+00 
    1.3667636917638077E+01 
    1.3441208134602849E+01 
    1.3392418049168915E+01 
    9.5130433619956367E+00 
    8.2428640453613671E+00 
    1.3254489928356124E+01 
    8.3637885979392355E+00 
    9.7691193569048203E+00 
    8.1961901558473738E+00 
    9.5673289314347620E+00 
    1.3606018852796890E+01 
    6.0567860810261065E+00 
    8.5634654742495844E+00 
    1.4168778116140773E+01 
    9.5259698674319644E+00 
    1.0802162321559685E+01 
    6.2148653348003622E+00 
    8.4245379206101259E+00 
    1.3420086211236725E+01 
    1.3721578376544361E+01 
    5.0630579887118268E+00 
    9.5301168033850150E+00 
    8.2353174345711349E+00 
    1.4965886327654045E+01 
    1.4438426550135528E+01 
    1.5222687969486280E+01 
    9.5503582873890291E+00 
    1.3580503889583881E+01 
    1.3201748834974323E+01 
    9.4258588346429466E+00 
    1.3247174830311582E+01 
    1.0035420418707609E+01 
    5.5671502197205260E+00 
    9.7716141315172074E+00 
    1.4156209298826381E+01 
    1.3244119338542275E+01 
    6.5918979912274382E+00 
    1.3272612280335233E+01 
    1.0757416782229328E+01 
    9.6925821001982531E+00 
    9.2444770126436726E+00 
    1.3116715453828297E+01 
    1.0235845416483876E+01 
    1.3259601964311093E+01 
    9.4060895848677184E+00 
    5.7696364118891905E+00 
    9.8382295294251332E+00 
    8.0960307020526336E+00 
    1.2132557804800001E+01 
    1.4347044239055283E+01 
    1.3252919011671059E+01 
    1.4223814167589664E+01 
    9.4755183361382933E+00 
    6.4182457664827401E+00 
    6.5101313766634288E+00 
    9.8763565045474611E+00 
    9.7458315597174430E+00 
    1.3821894638713526E+00 
    1.2780195978061100E+01 
    1.4694778045189691E+01 
    9.1157678622825369E+00 
    5.8022112509204886E+00 
    1.1127780626797877E+01 
    1.3271276200815015E+01 
    6.8876450444249553E+00 
    4.6674294412484203E+00 
    9.7214178646682115E+00 
    1.3358806172988507E+01 
    1.3976865449460137E+01 
    1.3870067732655581E+01 
    1.3725360732178601E+01 
    6.7223557610057094E+00 
    9.6861527882934499E+00 
    1.2806001353582582E+01 
    7.6336618089064148E+00 
    1.3540713007327295E+01 
    1.1666473742072883E+01 
    6.6104205838131911E+00 
    1.3376686077513101E+01 
    1.4248968363118296E+01 
    1.3385779725623134E+01 
    6.6301631057961705E+00 
    9.7966316057779377E+00 
    7.2918548236556280E+00 
    9.2437768120423200E+00 
    1.3262992469543782E+01 
    1.3251596499155601E+01 
    6.6690818619484391E+00 
    1.4110552987163452E+01 
    1.0336887168687138E+01 
    1.3285660412403004E+01 
    1.4080396265595397E+01 
    1.3271667980568335E+01 
    1.2367100144646800E+01 
    1.5018522768089246E+01 
    9.0742208449714727E+00 
    1.4194222614452189E+01 
    1.3315434031382724E+01 
    1.4264595776551214E+01 
    1.4103901149347156E+01 
    9.1712756845835539E+00 
    9.6157503232572363E+00 
    9.1064074547192835E+00 
    1.1893784248555345E+01 
    3.8077882106203780E+00 
    9.8111522866316427E+00 
    1.5142678510323314E+01 
    1.0035735348306664E+01 
    1.0217302807490601E+01 
    1.4238380546966342E+01 
    1.4464178448274794E+01 
    9.0127821482557362E+00 
    1.3276805164355643E+01 
    1.3247918343501226E+01 
    1.0205342479709037E+01 
    1.4060309031340005E+01 
    6.9449045833831420E+00 
    4.4058095311236478E+00 
    1.0477004722321094E+01 
    1.0050315147694381E+01 
    1.3253835742216079E+01 
    6.2323860628471071E+00 
    1.3787854090763163E+01 
    4.4853273568072787E+00 
    9.9824785947753778E+00 
    9.2112836547087138E+00 
    9.7722996727259641E+00 
    1.6432149588449207E+01 
    3.7000932610028436E+00 
    9.7288500553411268E+00 
    1.1611762068402696E+01 
    9.3800173600112089E+00 
    7.3523943692982368E+00 
    1.3898227378484362E+01 
    1.5993722063995470E+01 
    1.4042006953843455E+01 
    9.6702054111747771E+00 
    5.4649919122506470E+00 
    1.5848556478320846E+01 
    1.3522953757258147E+01 
    7.0448545613394051E+00 
    9.3107105749688035E+00 
    1.4650365371566391E+01 
    3.1461296731084771E+00 
    1.0098690975187935E+01 
    1.4010461078857336E+01 
    9.7857237078983115E+00 
    8.5229109427834100E+00 
    9.7682339149648563E+00 
    1.3022768897486326E+01 
    9.7660300351510578E+00 
    4.8651821195056613E+00 
    8.5956267580158241E-01 
    7.2790865261706532E+00 
    1.4862955750644453E+01 
    9.1058678500548531E+00 
    1.1107850821594941E+01 
    1.0555577212170125E+01 
    1.2208468883531703E+01 
    9.7996439550368759E+00 
    1.3434609506607872E+01 
    1.6446370125065975E+01 
    1.1582383193586368E+01 
    1.4167700492888367E+01 
    5.1729136311107571E-01 
    1.3253551792203281E+01 
    5.3855020255226762E+00 
    1.5309405524994059E+01 
    9.7423897886049549E+00 
    8.6588664119698073E+00 
    7.4387874323510284E+00 
    5.1071880468511006E+00 
    1.0941890592688424E+01 
    7.7117382710268725E+00 
    1.2030368581205146E+01 
    2.0919031674838249E+00 
    1.0789579245496329E+01 
    1.3189135019096524E+01 
    5.9069723588684013E+00 
    1.3730659707785165E+01 
    1.5114964974192134E+01 
    1.3580261775444148E+01 
    9.6102037317336269E+00 
    9.7672848971330755E+00 
    9.7351242887334823E+00 
    5.5360482213074897E+00 
    8.8481576190819755E+00 
    8.6969250271895699E+00 
    9.7242675378211008E+00 
    9.0393088822990517E+00 
    6.5352321233897415E-01 
    6.1873526755250294E+00 
    9.4235236815134051E+00 
    9.6996689635476141E+00 
    1.2362526112870384E+01 
    2.0696821144391078E+00 
    1.0166446400565745E+01 
    1.0054825459991854E+01 
    3.5585251957163373E+00 
    1.3450276530790701E+01 
    8.3824872580926773E+00 
    9.9081976584491596E+00 
    1.3518956796163213E+01 
    5.1263373035980742E+00 
    1.3566706874948895E+01 
    8.4945171363075627E+00 
    9.4939351702142338E-01 
    9.1662483535237840E+00 
    1.4122210976762165E+01 
    1.3253444757403280E+01 
    1.3271534808527946E+01 
    1.0083612701424389E+01 
    9.9872664249603922E+00 
    8.3622953937844500E+00 
    6.7197605593286092E+00 
    1.3624712273424167E+01 
    9.3085196315007419E+00 
    6.5503036636658987E+00 
    1.3267180234545760E+01 
    1.3937300102047693E+01 
    9.9064561469435581E+00 
    9.5718470550912524E+00 
    1.6326589027292194E+01 
    1.0206170896276726E+01 
    1.3643440857751747E+01 
    7.9383826347584003E+00 
    1.6474949594783638E+01 
    6.4721145568296317E+00 
    8.7651402618218555E+00 
    7.2569970991234634E+00 
    1.0427857901288467E+01 
    8.3117605514477102E+00 
    1.6458505047253066E+01 
    1.0252306553425489E+01 
    1.2959882783457440E+01 
    6.6579880083715874E+00 
    9.7967133165158504E+00 
    1.3490417571772179E+01 
    8.3444185593597933E+00 
    6.9840972938842771E+00 
    1.0794864545467899E+01 
    1.3712846095011967E+01 
    7.1441114664368905E+00 
    9.2310520555179760E+00 
    9.5998487936734946E+00 
    1.3229801936715507E+01 
    9.4065765370874193E+00 
    1.3687580760652287E+01 
    1.4292800669449504E+01 
    8.3891456369323762E+00 
    8.2173336872075886E+00 
    7.7477101309859657E+00 
    1.3366862822849873E+01 
    1.0064929748971108E+01 
    1.6032632799830907E+01 
    1.2574952073013744E+01 
    1.3450443368146583E+01 
    1.5723736626277926E+01 
    1.5122023072348927E+01 
    9.8455630811266168E+00 
    9.7093795250758461E+00 
    1.3029228937480292E+01 
    1.3290090066136022E+01 
    1.3792573139101128E+01 
    1.3542607055843554E+01 
    1.6346868070897479E+01 
    1.0205726979586901E+01 
    8.4866391994858166E+00 
    1.0203678259748989E+01 
    1.4208392454086223E+01 
    9.9530117969141081E+00 
    5.7639353220236673E+00 
    9.5944213673552259E+00 
    1.4618332048854729E+01 
    1.0089651991982352E+01 
    8.4972346489945743E+00 
    9.5414015115985489E+00 
    1.4726572780196109E+01 
    1.3299784907049837E+01 
    8.0545400029703877E+00 
    1.4860253021872399E+01 
    9.8793201402162740E+00 
    1.3788460467706829E+01 
    1.4739133001592201E+01 
    1.0343221969226111E+01 
    5.1300632985493086E+00 
    1.0761788331372545E+01 
    5.3093762078767881E+00 
    1.0004736713960273E+01 
    9.7868290966634675E+00 
    1.1330951745171062E+01 
    5.6154546380323174E+00 
    1.2027352288439356E+01 
    9.8094147531732663E+00 
    1.3533183476981812E+01 
    1.0320707460981733E+01 
    7.8601810817156093E+00 
    9.4204978505957460E+00 
    1.0262021067297965E+01 
    1.0306300895273287E+01 
    1.4338296339796884E+01 
    8.1011316861876779E+00 
    7.9598484158804688E+00 
    5.9096413681359259E+00 
    1.3818855278543380E+01 
    9.4600441085598188E+00 
    1.3099211026025889E+01 
    9.7569824303410684E+00 
    6.4716537992997569E+00 
    1.3327098779306928E+01 
    9.7322933054321883E+00 
    7.0666443773408103E+00 
    7.4950662761328859E+00 
    7.7660432736696148E+00 
    1.3562319066632682E+01 
    9.7262226161678118E+00 
    1.4178765126899977E+01 
    9.6907570253727666E+00 
    9.6288286881729199E+00 
    9.1508219144866203E+00 
    1.3407130626941761E+01 
    9.5468677995063604E+00 
    7.8068025519966611E+00 
    1.5110136997470335E+01 
    1.3484786755872294E+01 
    6.7832781488261977E+00 
    2.6125083245284419E+00 
    9.7158133632294152E+00 
    9.1584853090635132E+00 
    8.2102689760562821E+00 
    8.9587742331350277E+00 
    1.3450196104750544E+01 
    9.4297247114125966E+00 
    8.5411872675225062E+00 
    1.3311169414778774E+01 
    6.7222163953695730E+00 
    1.2990461447154948E+01 
    8.8488070593250896E+00 
    7.7395529110788468E+00 
    8.2911411218127355E+00 
    1.3871115669779051E+01 
    9.7754761047583081E+00 
    9.7835864074613994E+00 
    5.6977600295847006E+00 
    6.1669117279496417E+00 
    1.2351421920125675E+01 
    9.7939906939313506E+00 
    9.7552143281399921E+00 
    1.4846082199904526E+01 
    7.9616981486045599E+00 
    9.8073631045987444E+00 
    6.9536032595886885E+00 
    7.1735972419592997E+00 
    1.3400774562596828E+01 
    9.4376632623457866E+00 
    6.8101186943967962E+00 
    1.0329257207779326E+01 
    9.6754060896336203E+00 
    1.3403516269111261E+01 
    1.4937433178804636E+01 
    1.0013661103802440E+00 
    9.7206300806274424E+00 
    1.0048546536441995E+01 
    1.3465597562414553E+01 
    9.2379871865369765E+00 
    9.7495284529084323E+00 
    1.4389572338826580E+01 
    8.3260194455067218E+00 
    6.8718848465381566E+00 
    1.1849442301230855E+01 
    1.3266720098774538E+01 
    1.4263244606969224E+01 
    1.4528064756261633E+01 
    9.5657050493409788E+00 
    9.7123626166445423E+00 
    1.1008901519921716E+01 
    6.4423338722814858E+00 
    1.3390352054784023E+01 
    7.4129799415064443E+00 
    6.7119477701364145E+00 
    1.2275752669373492E+01 
    1.1546123378472986E+01 
    6.5812654741159644E+00 
    1.3301444088889973E+01 
    1.4249565863679859E+01 
    1.0220902883148270E+01 
    1.5037566145328393E+01 
    1.3333227474302971E+01 
    9.3040544394733686E+00 
    1.3994885517548296E+01 
    7.1777128595683521E+00 
    1.3284710455055631E+01 
    9.7196123374606209E+00 
    9.6814909297020844E+00 
    1.5012895780775771E+01 
    9.4925997376754179E+00 
    1.1998881280455603E+01 
    8.2759649250812330E+00 
    1.4364940498428576E+01 
    1.3194907143007814E+01 
    8.6414317084170573E+00 
    1.3243265081824747E+01 
    8.8643141184149190E+00 
    9.7593301680375397E+00 
    1.4210211264534363E+01 
    1.3536912172922849E+01 
    1.4252686891772029E+01 
    1.3468641959308322E+01 
    8.8533841892123153E+00 
    9.0666637092835600E+00 
    1.4259429744060672E+01 
    9.1891035836035666E+00 
    1.3129934822671244E+01 
    9.4828045784684267E+00 
    3.8385409401868045E+00 
    6.7835353432464052E+00 
    6.2786149796455586E+00 
    1.4213654772692687E+01 
    1.4943565665811558E+01 
    1.3260777465810502E+01 
    1.1322656879003585E+01 
    1.3538817014932929E+01 
    1.3308722640715498E+01 
    1.3874377810073550E+01 
    5.5009302550510304E+00 
    3.5788644668797822E+00 
    1.1122254538904894E+01 
    9.3954571997939187E+00 
    1.3451584918688244E+01 
    1.3449152406448254E+01 
    1.0069512312416341E+01 
    1.3485086388260475E+01 
    9.7068092895225018E+00 
    9.6347574155466660E+00 
    4.9639376437588378E+00 
    3.5652280858545664E+00 
    1.4723237212529757E+01 
    7.6214780910201938E+00 
    8.5834275679855363E+00 
    9.9612509013691675E+00 
    1.6328166928455353E+01 
    1.0057957298794337E+01 
    1.0043667942478264E+01 
    4.0561573722379594E+00 
    1.0059077289196143E+01 
    1.0072850876340745E+01 
    1.3760756502784179E+01 
    8.2963950310831347E+00 
    9.3456198147211502E+00 
    1.4888603467715614E+01 
    9.7287942598689341E+00 
    1.3276167424104260E+01 
    1.3528241737483452E+01 
    1.2073247327643633E+01 
    8.2820897301447882E+00 
    1.3468107378694222E+01 
    9.5273023964656449E+00 
    1.3467163018730536E+01 
    1.3216650977669945E+01 
    1.4232318786681695E+01 
    1.3466914367582968E+01 
    1.2648174227020334E+01 
    9.7177435202255307E+00 
    6.5309012724917377E+00 
    1.6201558996867035E+01 
    7.5657403142656374E+00 
    1.4165257884110988E+01 
    9.7152047080557775E+00 
    8.0037741516794547E+00 
    4.7913272253870991E+00 
    1.0107783940105071E+01 
    1.3455530433713763E+01 
    1.3451753632882808E+01 
    9.7401634109677957E+00 
    9.7094922849095990E+00 
    1.5092880543407400E+01 
    1.4472152571560573E+01 
    1.0075885111494951E+01 
    3.3304228609135689E+00 
    1.2609087243293395E+01 
    1.6456193689050920E+01 
    9.7209963099013610E+00 
    1.1690585059256360E+01 
    9.2357315210805151E+00 
    1.6059109732460410E+01 
    1.4549665816664357E+01 
    1.4289761055954584E+01 
    1.0096743466174519E+01 
    4.4693062517449995E+00 
    9.1938073188029943E+00 
    9.2606752719191210E+00 
    9.3023149733821420E+00 
    3.6250467819116929E+00 