# vtk DataFile Version 2.0
Pressure Field Data 
ASCII 
DATASET UNSTRUCTURED_GRID 

POINTS 2860 double 

    0.0000000000000000E+00     0.0000000000000000E+00     0.0000000000000000E+00 
    1.0000000000000000E+00     0.0000000000000000E+00     0.0000000000000000E+00 
    1.0000000000000000E+00     1.0000000000000000E+00     0.0000000000000000E+00 
    0.0000000000000000E+00     1.0000000000000000E+00     0.0000000000000000E+00 
    2.5000000000000000E-01     2.5000000000000000E-01     0.0000000000000000E+00 
    7.5000000000000000E-01     2.5000000000000000E-01     0.0000000000000000E+00 
    7.5000000000000000E-01     7.5000000000000000E-01     0.0000000000000000E+00 
    2.5000000000000000E-01     7.5000000000000000E-01     0.0000000000000000E+00 
    3.1249999999942091E-02     0.0000000000000000E+00     0.0000000000000000E+00 
    6.2499999999873469E-02     0.0000000000000000E+00     0.0000000000000000E+00 
    9.3749999999826514E-02     0.0000000000000000E+00     0.0000000000000000E+00 
    1.2499999999977961E-01     0.0000000000000000E+00     0.0000000000000000E+00 
    1.5624999999968961E-01     0.0000000000000000E+00     0.0000000000000000E+00 
    1.8749999999959971E-01     0.0000000000000000E+00     0.0000000000000000E+00 
    2.1874999999950970E-01     0.0000000000000000E+00     0.0000000000000000E+00 
    2.4999999999941969E-01     0.0000000000000000E+00     0.0000000000000000E+00 
    2.8124999999932920E-01     0.0000000000000000E+00     0.0000000000000000E+00 
    3.1249999999923850E-01     0.0000000000000000E+00     0.0000000000000000E+00 
    3.4374999999914790E-01     0.0000000000000000E+00     0.0000000000000000E+00 
    3.7499999999905720E-01     0.0000000000000000E+00     0.0000000000000000E+00 
    4.0624999999896660E-01     0.0000000000000000E+00     0.0000000000000000E+00 
    4.3749999999887590E-01     0.0000000000000000E+00     0.0000000000000000E+00 
    4.6874999999878530E-01     0.0000000000000000E+00     0.0000000000000000E+00 
    4.9999999999869471E-01     0.0000000000000000E+00     0.0000000000000000E+00 
    5.3124999999877620E-01     0.0000000000000000E+00     0.0000000000000000E+00 
    5.6249999999885780E-01     0.0000000000000000E+00     0.0000000000000000E+00 
    5.9374999999893940E-01     0.0000000000000000E+00     0.0000000000000000E+00 
    6.2499999999902101E-01     0.0000000000000000E+00     0.0000000000000000E+00 
    6.5624999999910261E-01     0.0000000000000000E+00     0.0000000000000000E+00 
    6.8749999999918421E-01     0.0000000000000000E+00     0.0000000000000000E+00 
    7.1874999999926570E-01     0.0000000000000000E+00     0.0000000000000000E+00 
    7.4999999999934730E-01     0.0000000000000000E+00     0.0000000000000000E+00 
    7.8124999999942890E-01     0.0000000000000000E+00     0.0000000000000000E+00 
    8.1249999999951039E-01     0.0000000000000000E+00     0.0000000000000000E+00 
    8.4374999999959199E-01     0.0000000000000000E+00     0.0000000000000000E+00 
    8.7499999999967359E-01     0.0000000000000000E+00     0.0000000000000000E+00 
    9.0624999999975520E-01     0.0000000000000000E+00     0.0000000000000000E+00 
    9.3749999999983680E-01     0.0000000000000000E+00     0.0000000000000000E+00 
    9.6874999999991840E-01     0.0000000000000000E+00     0.0000000000000000E+00 
    1.0000000000000000E+00     3.1249999999942091E-02     0.0000000000000000E+00 
    1.0000000000000000E+00     6.2499999999873469E-02     0.0000000000000000E+00 
    1.0000000000000000E+00     9.3749999999826514E-02     0.0000000000000000E+00 
    1.0000000000000000E+00     1.2499999999977961E-01     0.0000000000000000E+00 
    1.0000000000000000E+00     1.5624999999968961E-01     0.0000000000000000E+00 
    1.0000000000000000E+00     1.8749999999959971E-01     0.0000000000000000E+00 
    1.0000000000000000E+00     2.1874999999950970E-01     0.0000000000000000E+00 
    1.0000000000000000E+00     2.4999999999941969E-01     0.0000000000000000E+00 
    1.0000000000000000E+00     2.8124999999932920E-01     0.0000000000000000E+00 
    1.0000000000000000E+00     3.1249999999923850E-01     0.0000000000000000E+00 
    1.0000000000000000E+00     3.4374999999914790E-01     0.0000000000000000E+00 
    1.0000000000000000E+00     3.7499999999905720E-01     0.0000000000000000E+00 
    1.0000000000000000E+00     4.0624999999896660E-01     0.0000000000000000E+00 
    1.0000000000000000E+00     4.3749999999887590E-01     0.0000000000000000E+00 
    1.0000000000000000E+00     4.6874999999878530E-01     0.0000000000000000E+00 
    1.0000000000000000E+00     4.9999999999869471E-01     0.0000000000000000E+00 
    1.0000000000000000E+00     5.3124999999877620E-01     0.0000000000000000E+00 
    1.0000000000000000E+00     5.6249999999885780E-01     0.0000000000000000E+00 
    1.0000000000000000E+00     5.9374999999893940E-01     0.0000000000000000E+00 
    1.0000000000000000E+00     6.2499999999902101E-01     0.0000000000000000E+00 
    1.0000000000000000E+00     6.5624999999910261E-01     0.0000000000000000E+00 
    1.0000000000000000E+00     6.8749999999918421E-01     0.0000000000000000E+00 
    1.0000000000000000E+00     7.1874999999926570E-01     0.0000000000000000E+00 
    1.0000000000000000E+00     7.4999999999934730E-01     0.0000000000000000E+00 
    1.0000000000000000E+00     7.8124999999942890E-01     0.0000000000000000E+00 
    1.0000000000000000E+00     8.1249999999951039E-01     0.0000000000000000E+00 
    1.0000000000000000E+00     8.4374999999959199E-01     0.0000000000000000E+00 
    1.0000000000000000E+00     8.7499999999967359E-01     0.0000000000000000E+00 
    1.0000000000000000E+00     9.0624999999975520E-01     0.0000000000000000E+00 
    1.0000000000000000E+00     9.3749999999983680E-01     0.0000000000000000E+00 
    1.0000000000000000E+00     9.6874999999991840E-01     0.0000000000000000E+00 
    9.6875000000003686E-01     1.0000000000000000E+00     0.0000000000000000E+00 
    9.3750000000011691E-01     1.0000000000000000E+00     0.0000000000000000E+00 
    9.0625000000015765E-01     1.0000000000000000E+00     0.0000000000000000E+00 
    8.7500000000017863E-01     1.0000000000000000E+00     0.0000000000000000E+00 
    8.4375000000028044E-01     1.0000000000000000E+00     0.0000000000000000E+00 
    8.1250000000040856E-01     1.0000000000000000E+00     0.0000000000000000E+00 
    7.8125000000054956E-01     1.0000000000000000E+00     0.0000000000000000E+00 
    7.5000000000066480E-01     1.0000000000000000E+00     0.0000000000000000E+00 
    7.1875000000086831E-01     1.0000000000000000E+00     0.0000000000000000E+00 
    6.8750000000102829E-01     1.0000000000000000E+00     0.0000000000000000E+00 
    6.5625000000114431E-01     1.0000000000000000E+00     0.0000000000000000E+00 
    6.2500000000129829E-01     1.0000000000000000E+00     0.0000000000000000E+00 
    5.9375000000147926E-01     1.0000000000000000E+00     0.0000000000000000E+00 
    5.6250000000168354E-01     1.0000000000000000E+00     0.0000000000000000E+00 
    5.3125000000188671E-01     1.0000000000000000E+00     0.0000000000000000E+00 
    5.0000000000205835E-01     1.0000000000000000E+00     0.0000000000000000E+00 
    4.6875000000192979E-01     1.0000000000000000E+00     0.0000000000000000E+00 
    4.3750000000180111E-01     1.0000000000000000E+00     0.0000000000000000E+00 
    4.0625000000167238E-01     1.0000000000000000E+00     0.0000000000000000E+00 
    3.7500000000154382E-01     1.0000000000000000E+00     0.0000000000000000E+00 
    3.4375000000141509E-01     1.0000000000000000E+00     0.0000000000000000E+00 
    3.1250000000128642E-01     1.0000000000000000E+00     0.0000000000000000E+00 
    2.8125000000115769E-01     1.0000000000000000E+00     0.0000000000000000E+00 
    2.5000000000102918E-01     1.0000000000000000E+00     0.0000000000000000E+00 
    2.1875000000090050E-01     1.0000000000000000E+00     0.0000000000000000E+00 
    1.8750000000077180E-01     1.0000000000000000E+00     0.0000000000000000E+00 
    1.5625000000064329E-01     1.0000000000000000E+00     0.0000000000000000E+00 
    1.2500000000051459E-01     1.0000000000000000E+00     0.0000000000000000E+00 
    9.3750000000385914E-02     1.0000000000000000E+00     0.0000000000000000E+00 
    6.2500000000257239E-02     1.0000000000000000E+00     0.0000000000000000E+00 
    3.1250000000128557E-02     1.0000000000000000E+00     0.0000000000000000E+00 
    0.0000000000000000E+00     9.6875000000003686E-01     0.0000000000000000E+00 
    0.0000000000000000E+00     9.3750000000011691E-01     0.0000000000000000E+00 
    0.0000000000000000E+00     9.0625000000015765E-01     0.0000000000000000E+00 
    0.0000000000000000E+00     8.7500000000017863E-01     0.0000000000000000E+00 
    0.0000000000000000E+00     8.4375000000028044E-01     0.0000000000000000E+00 
    0.0000000000000000E+00     8.1250000000040856E-01     0.0000000000000000E+00 
    0.0000000000000000E+00     7.8125000000054956E-01     0.0000000000000000E+00 
    0.0000000000000000E+00     7.5000000000066480E-01     0.0000000000000000E+00 
    0.0000000000000000E+00     7.1875000000086831E-01     0.0000000000000000E+00 
    0.0000000000000000E+00     6.8750000000102829E-01     0.0000000000000000E+00 
    0.0000000000000000E+00     6.5625000000114431E-01     0.0000000000000000E+00 
    0.0000000000000000E+00     6.2500000000129829E-01     0.0000000000000000E+00 
    0.0000000000000000E+00     5.9375000000147926E-01     0.0000000000000000E+00 
    0.0000000000000000E+00     5.6250000000168354E-01     0.0000000000000000E+00 
    0.0000000000000000E+00     5.3125000000188671E-01     0.0000000000000000E+00 
    0.0000000000000000E+00     5.0000000000205835E-01     0.0000000000000000E+00 
    0.0000000000000000E+00     4.6875000000192979E-01     0.0000000000000000E+00 
    0.0000000000000000E+00     4.3750000000180111E-01     0.0000000000000000E+00 
    0.0000000000000000E+00     4.0625000000167238E-01     0.0000000000000000E+00 
[...]
CELL_DATA 2795 
SCALARS Pressure double 1 
LOOKUP_TABLE default 

    7.8149790767294478E+00 
    1.7711443300842873E+01 
    1.2340758703572034E+01 
    1.2031812481657239E+01 
    9.5972015109096773E+00 
    1.7542289463913932E+01 
    1.8406961518861838E+01 
    6.9811968522612196E+00 
    1.2899879917890612E+01 
    9.9507623370342149E+00 
    8.4959015248798444E+00 
    1.7231757704288405E+01 
    1.7611109574833577E+01 
    1.7504558686334878E+01 
    1.1392261060223621E+01 
    6.8635045904582350E+00 
    1.1088440140472974E+01 
    9.0428708737401546E+00 
    1.6777437532397066E+01 
    1.2320978723208082E+01 
    1.2215922293249823E+01 
    1.7423901839237001E+01 
    1.1710381291087311E+01 
    4.5760101706372758E-01 
    1.7190029600993782E+01 
    1.7566986750202080E+01 
    1.8443077207137303E+01 
    8.1903117645391728E+00 
    1.7133762089946501E+01 
    1.8431530329285600E+01 
    1.2528076939436664E+01 
    1.2526600345220682E+01 
    8.9009735336300739E+00 
    1.2303370315415913E+01 
    4.0269849590441229E+00 
    1.1093075875681468E+01 
    1.2288314410010427E+01 
    1.8476409624816412E+01 
    1.8379985222167406E+01 
    1.7247043018085527E+01 
    9.5638891557095356E+00 
    1.7215827036235705E+01 
    9.5038336459492379E-01 
    1.2311248965803319E+01 
    1.8178721893415755E+01 
    1.7899927456452062E+01 
    1.7218939418129587E+01 
    1.3292363626204263E+01 
    1.7273317619053092E+01 
    1.1344510198289299E+01 
    1.0808823876571287E+01 
    1.2489963067465014E+01 
    1.2199151039019641E+01 
    1.1160929429614887E+01 
    1.2605528724576505E+01 
    1.6514216396351635E+01 
    1.4443786535958218E+01 
    9.6482368507776819E+00 
    1.7431505661155345E+01 
    1.7333049353881325E+01 
    1.1997120169670399E+01 
    1.1877340955868160E+01 
    1.1915391775511258E+01 
    1.8318261462152115E+01 
    1.8626032989492003E+01 
    1.1105419879321259E+01 
    1.2488342782295236E+01 
    1.6963919331532217E+01 
    1.4357177554254545E+01 
    1.1937542103431516E+01 
    1.8623209548716865E+01 
    1.7376259920768192E+01 
    1.0946329557273442E+01 
    1.8030858807445608E+01 
    1.2870451964992704E+01 
    1.7023486396428659E+01 
    1.8490198698526903E+01 
    1.2964823302214144E+01 
    7.9297479053459785E+00 
    1.2506945691524651E+01 
    1.8390690708514455E+01 
    1.8653383701912656E+01 
    1.1116721903103645E+01 
    1.2432679637915673E+01 
    1.8708664002407307E+01 
    1.2286766052543173E+01 
    1.1814516009182366E+01 
    1.4931891729477735E+01 
    7.6034641032680428E+00 
    1.0838337108597717E+01 
    1.2429630906146961E+01 
    1.3058590210402093E+01 
    2.0324131902061840E+01 
    9.3290263010772811E+00 
    1.2496376179882954E+01 
    1.7192466908052143E+01 
    1.7549160759288142E+01 
    8.2245517287501908E+00 
    1.2143347355575985E+01 
    1.2464149329836813E+01 
    1.7576634067384003E+01 
    1.2453899663807890E+01 
    1.7486296683125676E+01 
    4.9815917633744622E+00 
    8.2561935690236137E+00 
    1.2719402359169663E+01 
    1.7719990469859507E+01 
    1.1050910649678171E+01 
    1.1730698196726943E+01 
    1.2431169719417541E+01 
    1.1773206917598152E+01 
    1.4031453323533485E+01 
    1.1421302908965856E+01 
    1.0956766514033195E+01 
    8.6251595512913219E+00 
    1.4861355677925969E+01 
    1.2532096985766426E+01 
    1.8215886828268385E+01 
    1.0787725866491433E+01 
    1.2008068740701116E+01 
    1.7368896355275858E+01 
    1.0071205430809011E+01 
    1.7903013077765230E+01 
    1.2360424233502471E+01 
    1.1925941642695896E+01 
    1.7553385451879915E+01 
    1.2519585422092703E+01 
    1.8506395844736304E+01 
    1.4993898894611863E+01 
    1.6300533632694940E+01 
    1.8462357267291868E+01 
    9.3470367478524867E+00 
    1.2740930766125459E+01 
    1.7551980122382279E+01 
    3.7154881005072475E+00 
    1.2581295107325143E+01 
    1.8423381447282740E+01 
    1.1958547778623767E+01 
    1.3793785992579402E+01 
    8.1252918767545737E+00 
    1.7189081876770750E+01 
    2.0849437896007327E+01 
    1.5598105706505182E+01 
    1.1959671401133887E+01 
    1.0713556800800273E+01 
    1.3329299374756529E+01 
    1.2377663254547748E+01 
    8.5930703872959491E+00 
    1.8457905760280529E+01 
    1.7566246858568302E+01 
    1.7194484338383109E+01 
    1.3051592778007935E+01 
    1.0917948017485138E+01 
    1.2212036893401889E+01 
    1.8073491700456376E+01 
    1.1221389475004813E+01 
    1.2507074274744086E+01 
    1.1420280604216153E+01 
    1.4546131747305719E+01 
    2.0836760438428346E+01 
    1.7183982749003583E+01 
    1.0918564825590007E+01 
    1.7784050640353787E+01 
    1.7672756771904613E+01 
    1.7766106598970168E+01 
    1.8933260161331805E+01 
    1.9537660155687071E+01 
    1.7886114191007923E+01 
    1.2479865579241698E+01 
    1.3573468741808496E+01 
    1.7693010470886474E+01 
    1.8228283287929141E+01 
    8.9759113791806406E+00 
    1.7218004050322300E+01 
    1.8029925797202228E+01 
    8.7308101992958171E+00 
    1.8846831403867814E+01 
    1.8817517577208374E+01 
    1.6859555979912464E+01 
    1.2815577105863550E+01 
    3.2816136345655904E+00 
    1.8424838871244333E+01 
    1.2656841198287260E+01 
    1.8562682551849917E+01 
    1.1874738814749094E+01 
    1.8211046916458901E+01 
    1.1792297937652856E+00 
    1.6277998261000594E+01 
    1.1928177163642825E+01 
    1.0860734729044861E+01 
    1.0585566901941833E+01 
    1.2327860453686649E+01 
    1.3589119468069589E+01 
    1.3028492740357963E+01 
    8.7183305603414194E+00 
    1.8222799951209542E+01 
    1.7578641214022205E+01 
    1.4467830146861019E+01 
    1.2710499411686913E+01 
    1.8844361396365461E+00 
    9.7753700766417104E+00 
    6.7906799244466036E+00 
    1.8442709684970652E+01 
    1.3862625589288378E+01 
    1.7591325022132363E+01 
    1.7658101524399012E+01 
    1.1312073970193747E+01 
    1.4471508951941439E+01 
    1.7186917012567356E+01 
    1.8798873673409293E+01 
    8.1232087446603582E+00 
    1.5543429723130119E+01 
    1.2983934493221089E+01 
    7.2327603370273970E+00 
    1.1304663822916760E+01 
    1.5130582608844939E+01 
    1.7612229102418436E+01 
    1.2379752334094754E+01 
    1.7741169648520547E+01 
    1.7466163575620097E+01 
    1.7404723418020630E+01 
    1.2216519841742025E+01 
    1.0771629836146777E+01 
    1.7203754248414779E+01 
    1.0941706485929352E+01 
    1.2462573158423941E+01 
    1.0725973799016129E+01 
    1.2460785351892662E+01 
    1.7669651519668978E+01 
    7.7755611721420896E+00 
    1.1192893805524108E+01 
    1.8346728794751790E+01 
    1.2224974740034863E+01 
    1.3748919281959644E+01 
    7.9781457589406353E+00 
    1.1016941494570789E+01 
    1.7440055558935558E+01 
    1.7806219154293458E+01 
    6.5049381998905247E+00 
    1.2237869290500621E+01 
    1.0802850914078455E+01 
    1.9278770871437700E+01 
    1.8663848062524231E+01 
    1.9569959859754295E+01 
    1.2258200071998505E+01 
    1.7636708561529829E+01 
    1.7126967470443972E+01 
    1.2109319028001346E+01 
    1.7194875690524988E+01 
    1.2711431574077512E+01 
    7.3074039990600133E+00 
    1.2650637213903675E+01 
    1.8327694941722481E+01 
    1.7190940395596453E+01 
    8.4632055886171678E+00 
    1.7226882040210032E+01 
    1.3620741383042926E+01 
    1.2557712189895659E+01 
    1.2043267471786027E+01 
    1.7024125183951259E+01 
    1.3149896692780777E+01 
    1.7210277701730483E+01 
    1.2236468065224656E+01 
    7.5251452967098169E+00 
    1.2542636541469516E+01 
    1.0599276976509739E+01 
    1.5660681196420585E+01 
    1.8562636746606717E+01 
    1.7201433085664753E+01 
    1.8416198822822615E+01 
    1.2164259312527269E+01 
    8.2371751172568608E+00 
    8.3511814152541586E+00 
    1.2770531820740157E+01 
    1.2433819447581799E+01 
    1.8291908085139910E+00 
    1.6550929464335582E+01 
    1.8973244586614999E+01 
    1.1892788503968521E+01 
    7.6398162673647674E+00 
    1.4442747692874542E+01 
    1.7224089112303933E+01 
    9.0476817772453302E+00 
    6.1468038040292052E+00 
    1.2417894459804314E+01 
    1.7309551874502294E+01 
    1.8112317302984309E+01 
    1.7949078514136733E+01 
    1.7809044046637609E+01 
    8.8643819524727743E+00 
    1.2552295789843772E+01 
    1.6652447632568659E+01 
    9.7676015126691293E+00 
    1.7595196449443684E+01 
    1.4732140031869884E+01 
    8.4710661432962251E+00 
    1.7330108795403113E+01 
    1.8454925822006771E+01 
    1.7366973879730249E+01 
    8.7112438190602788E+00 
    1.2484333739077769E+01 
    9.5667866992382713E+00 
    1.1795736217958366E+01 
    1.7214641789171157E+01 
    1.7200352599670200E+01 
    8.7609383422425964E+00 
    1.8265590803307919E+01 
    1.3090331812171558E+01 
    1.7235740835310292E+01 
    1.8242966133427704E+01 
    1.7222643841142784E+01 
    1.5880257257370914E+01 
    1.9344798449906087E+01 
    1.1832670794288589E+01 
    1.8379902027208637E+01 
    1.7267058410097441E+01 
    1.8465265950739109E+01 
    1.8259396279566086E+01 
    1.1953364984791902E+01 
    1.2329288596328949E+01 
    1.1881774075195578E+01 
    1.5176261600433342E+01 
    5.0043935836195423E+00 
    1.2696500614149196E+01 
    1.9482002250885984E+01 
    1.2715962326760639E+01 
    1.2940054578732221E+01 
    1.8434032914172565E+01 
    1.8696741923444534E+01 
    1.1728826249766954E+01 
    1.7231968015744311E+01 
    1.7195785571566848E+01 
    1.2924927019855797E+01 
    1.8207482758237120E+01 
    8.9029555814219439E+00 
    5.6813491276005186E+00 
    1.3265789284574334E+01 
    1.2729787005874401E+01 
    1.7200223180743333E+01 
    8.1974226136103017E+00 
    1.7857967427557178E+01 
    5.7945478757492257E+00 
    1.2662736555018304E+01 
    1.1972023348649349E+01 
    1.2460759513370684E+01 
    2.0890024166612235E+01 
    4.8498877355826444E+00 
    1.2601170986339545E+01 
    1.5124586154456244E+01 
    1.2049832608512341E+01 
    9.6909860285504514E+00 
    1.8013747592816269E+01 
    2.0418764277987684E+01 
    1.8175218754911533E+01 
    1.2530544120784297E+01 
    7.1970958026060181E+00 
    2.0257890147810556E+01 
    1.7567892320680823E+01 
    9.1220748693327334E+00 
    1.2137311647316789E+01 
    1.8913784634590677E+01 
    4.1275607876267548E+00 
    1.2792017769464753E+01 
    1.8164869693020314E+01 
    1.2476467535867421E+01 
    1.0888447758071807E+01 
    1.2647187802272722E+01 
    1.6777101641425048E+01 
    1.2458408577847967E+01 
    6.4089748595762934E+00 
    1.1595255655796324E+00 
    9.3326804451672789E+00 
    1.9170144376792766E+01 
    1.1881055255398540E+01 
    1.4074622722903374E+01 
    1.3497879291255247E+01 
    1.5456844134413497E+01 
    1.2490325891743867E+01 
    1.7458370177988918E+01 
    2.0905101666877144E+01 
    1.4873647761383562E+01 
    1.8347426461211871E+01 
    6.8272779691845997E-01 
    1.7202574985508871E+01 
    7.0571316485534279E+00 
    1.9666460889961559E+01 
    1.2616922497006120E+01 
    1.1110381238991168E+01 
    9.7558108310876825E+00 
    6.7287090465466290E+00 
    1.3849389723835559E+01 
    9.8991385568966273E+00 
    1.5538413543340642E+01 
    2.7810440499452977E+00 
    1.3665931876306271E+01 
    1.7114109630616294E+01 
    7.5784051595324433E+00 
    1.7722712726324776E+01 
    1.9439585819138870E+01 
    1.7562338198902054E+01 
    1.2457786100643641E+01 
    1.2454505709064518E+01 
    1.2608547141432208E+01 
    7.2910514461848539E+00 
    1.1555564876620776E+01 
    1.1364571709942304E+01 
    1.2595798712937460E+01 
    1.1797384572224200E+01 
    8.7095441589459899E-01 
    8.0578047265302182E+00 
    1.2272565641190651E+01 
    1.2566216741448299E+01 
    1.5970673115684422E+01 
    2.7062561510986551E+00 
    1.2876382427072691E+01 
    1.2738153682311411E+01 
    4.6722037889561481E+00 
    1.7403564883530361E+01 
    1.0962651497396964E+01 
    1.2591412908467985E+01 
    1.7565626009542310E+01 
    6.7545690346187905E+00 
    1.7526315409155508E+01 
    1.1107534140549456E+01 
    1.2285917425085964E+00 
    1.1956406874561265E+01 
    1.8288919757067426E+01 
    1.7202739823625631E+01 
    1.7224545576469779E+01 
    1.3004999341162462E+01 
    1.2665726944739001E+01 
    1.0937658234801090E+01 
    8.7445223963111438E+00 
    1.7699917697304059E+01 
    1.2130755740017305E+01 
    8.4801922039009341E+00 
    1.7219459156033142E+01 
    1.8025090247825712E+01 
    1.2798717170327665E+01 
    1.2274593143416869E+01 
    2.0775414846920821E+01 
    1.2926091142706687E+01 
    1.7716670833324368E+01 
    1.0405442545933726E+01 
    2.0934185771485406E+01 
    8.3017452947604848E+00 
    1.1422972446727510E+01 
    9.3038866163467251E+00 
    1.3206350074034324E+01 
    1.0650558637850729E+01 
    2.0916957650390444E+01 
    1.2984242318051415E+01 
    1.6734733915856065E+01 
    8.5395199229411300E+00 
    1.2484665126959545E+01 
    1.7526794727345983E+01 
    1.0700856419763381E+01 
    9.1369857752514392E+00 
    1.4064846889096231E+01 
    1.7782480128305423E+01 
    9.1480359693657753E+00 
    1.1997648302411191E+01 
    1.2312672616666502E+01 
    1.7172776166656419E+01 
    1.2076737269609039E+01 
    1.7763016524572951E+01 
    1.8498663361770177E+01 
    1.0972274574854575E+01 
    1.0758160792644953E+01 
    9.9106709607346346E+00 
    1.7340774134335522E+01 
    1.2765930810763507E+01 
    2.0460290288224279E+01 
    1.5949541921383624E+01 
    1.7478427023721196E+01 
    2.0120330403031311E+01 
    1.9446098593328671E+01 
    1.2532525865217481E+01 
    1.2577988532956645E+01 
    1.6880545069356398E+01 
    1.7248819147237221E+01 
    1.7906493994228967E+01 
    1.7593206022853160E+01 
    2.0800378569381099E+01 
    1.2925505807684573E+01 
    1.1096025365383198E+01 
    1.2907162279124968E+01 
    1.8397480675815494E+01 
    1.2629566188634730E+01 
    7.4232596881661435E+00 
    1.2438750170952696E+01 
    1.8879605816734987E+01 
    1.2780229059138264E+01 
    1.1109710801929998E+01 
    1.2252121045231863E+01 
    1.9004706193508358E+01 
    1.7286983018810645E+01 
    1.0601870115564397E+01 
    1.9158116987193857E+01 
    1.2561501933072208E+01 
    1.7886954947372441E+01 
    1.9019084759635227E+01 
    1.3315696385379718E+01 
    6.7624198251597498E+00 
    1.3868866647878381E+01 
    6.9925581782810218E+00 
    1.2680525458870248E+01 
    1.2481150771645902E+01 
    1.4648813938216044E+01 
    7.3937951419134693E+00 
    1.5592246501175220E+01 
    1.2497745854529848E+01 
    1.7580931698125148E+01 
    1.3454143174010026E+01 
    1.0341444763225009E+01 
    1.2103089836362582E+01 
    1.3185265313672513E+01 
    1.3050903320783402E+01 
    1.8554942421405837E+01 
    1.0604430020148401E+01 
    1.0422837224548179E+01 
    7.7798801734689196E+00 
    1.7936390828866497E+01 
    1.2153060819350534E+01 
    1.7022190381564272E+01 
    1.2449251484388922E+01 
    8.5300597759539851E+00 
    1.7319355206674288E+01 
    1.2425647925579534E+01 
    9.3018406644317579E+00 
    9.8394874667724501E+00 
    1.0178348281693301E+01 
    1.7618779186882129E+01 
    1.2598123651315204E+01 
    1.8361575015450196E+01 
    1.2385711604471803E+01 
    1.2324106214158443E+01 
    1.1902144670311340E+01 
    1.7422975883528366E+01 
    1.2236270459740494E+01 
    1.0226276774815746E+01 
    1.9434411588649180E+01 
    1.7522313835527850E+01 
    8.6972681196281982E+00 
    3.4138265143943123E+00 
    1.2586041259111928E+01 
    1.1757060233971242E+01 
    1.0743985466040890E+01 
    1.1666460089845447E+01 
    1.7450382489613833E+01 
    1.2241126958575272E+01 
    1.1158035843641340E+01 
    1.7275486374586755E+01 
    8.6202142816354979E+00 
    1.6837720447581226E+01 
    1.1343765169740815E+01 
    1.0223351287143068E+01 
    1.0847408202773231E+01 
    1.7986678573569446E+01 
    1.2463323369176997E+01 
    1.2471976613044975E+01 
    7.5018554697087527E+00 
    8.1109287124406055E+00 
    1.5816326533343540E+01 
    1.2482068882455296E+01 
    1.2632417346182404E+01 
    1.9144133422785771E+01 
    1.0425190382658633E+01 
    1.2494604226016076E+01 
    8.9164643014845346E+00 
    9.2026821735095297E+00 
    1.7402454411605500E+01 
    1.2104931119887404E+01 
    8.9434125260037174E+00 
    1.3056676495302952E+01 
    1.2384363565454095E+01 
    1.7411557973928463E+01 
    1.9247795506264865E+01 
    1.2904914567939214E+00 
    1.2591761189823663E+01 
    1.2728514117700934E+01 
    1.7497526857590962E+01 
    1.2041234211203678E+01 
    1.2435034862778249E+01 
    1.8620671191377053E+01 
    1.0892248331578163E+01 
    9.0242699519446870E+00 
    1.4941558612759076E+01 
    1.7219346918311462E+01 
    1.8462537061885474E+01 
    1.8768927274967304E+01 
    1.2407491096888489E+01 
    1.2581657631320004E+01 
    1.3895963620233870E+01 
    8.2713580724923652E+00 
    1.7376912349805718E+01 
    9.7212827308383503E+00 
    8.6066880613434904E+00 
    1.5560152870487050E+01 
    1.4606231280065217E+01 
    8.4436406420055068E+00 
    1.7262185479119324E+01 
    1.8446839227650631E+01 
    1.2944611341211976E+01 
    1.9362182854845017E+01 
    1.7302420727642968E+01 
    1.2106223443791261E+01 
    1.8130770277338470E+01 
    9.1992184045927683E+00 
    1.7241635470970301E+01 
    1.2590422090805585E+01 
    1.2546614675558230E+01 
    1.9337794637967374E+01 
    1.2196620931360551E+01 
    1.5251692187591221E+01 
    1.0828386654726538E+01 
    1.8583849361483587E+01 
    1.7124534805606828E+01 
    1.1294039674927781E+01 
    1.7189211362997991E+01 
    1.1381939971653484E+01 
    1.2442208890351925E+01 
    1.8399351608845404E+01 
    1.7590398795477462E+01 
    1.8450341791979504E+01 
    1.7501470114534502E+01 
    1.1561060118832081E+01 
    1.1815644661630730E+01 
    1.8458867113332047E+01 
    1.1966238053071622E+01 
    1.7016047501554567E+01 
    1.2179043743118722E+01 
    5.0362168525209361E+00 
    8.6915343839180661E+00 
    8.0510413659614866E+00 
    1.8403760638337538E+01 
    1.9256303751995180E+01 
    1.7211344378877946E+01 
    1.4291103558027551E+01 
    1.7556149190198131E+01 
    1.7272605653982726E+01 
    1.7983955173723867E+01 
    7.2449463502974067E+00 
    4.6861700572585514E+00 
    1.4022459307970859E+01 
    1.2225027286790915E+01 
    1.7454760822492602E+01 
    1.7451791546520290E+01 
    1.2749540984348851E+01 
    1.7497081791920657E+01 
    1.2575009902854658E+01 
    1.2486124923676753E+01 
    6.5399259680654067E+00 
    4.6717331564075177E+00 
    1.8999803755839849E+01 
    9.7684728523454645E+00 
    1.1219807781171593E+01 
    1.2641668522521949E+01 
    2.0778669979414378E+01 
    1.2738939185766688E+01 
    1.2945601857450667E+01 
    5.3292857429084552E+00 
    1.2738812347827018E+01 
    1.2753891141082425E+01 
    1.7775836606680286E+01 
    1.0855767843542127E+01 
    1.1970205496367720E+01 
    1.9191529286854529E+01 
    1.2601475548525531E+01 
    1.7230454609744815E+01 
    1.7492577842482607E+01 
    1.5272085456084097E+01 
    1.0625292302371150E+01 
    1.7500952777332348E+01 
    1.2369689197498680E+01 
    1.7418448091508527E+01 
    1.7155669746471343E+01 
    1.8426282688286754E+01 
    1.7498720861118155E+01 
    1.6285929944996525E+01 
    1.2588152508641700E+01 
    8.3736323740122636E+00 
    2.0642975481038896E+01 
    9.9194757081903617E+00 
    1.8337717887237510E+01 
    1.2585196226874606E+01 
    1.0486328562212019E+01 
    6.2420390905832743E+00 
    1.2793232488247982E+01 
    1.7484764260043768E+01 
    1.7479218624773168E+01 
    1.2421741307968295E+01 
    1.2578550759821516E+01 
    1.9421866511529963E+01 
    1.8703885909718792E+01 
    1.2760527597707902E+01 
    4.3571241479444733E+00 
    1.6096180639339877E+01 
    2.0913261038236406E+01 
    1.2591923720968314E+01 
    1.4760771841044770E+01 
    1.2040671496262860E+01 
    2.0487262314911288E+01 
    1.8797181244013764E+01 
    1.8501926962256253E+01 
    1.2784799716549704E+01 
    5.8097707236641343E+00 
    1.1991332251678889E+01 
    1.2067943226185712E+01 
    1.2112491259188319E+01 
    4.7571981100121477E+00 