# vtk DataFile Version 2.0
Pressure Field Data 
ASCII 
DATASET UNSTRUCTURED_GRID 

POINTS 2860 double 

    0.0000000000000000E+00     0.0000000000000000E+00     0.0000000000000000E+00 
    1.0000000000000000E+00     0.0000000000000000E+00     0.0000000000000000E+00 
    1.0000000000000000E+00     1.0000000000000000E+00     0.0000000000000000E+00 
    0.0000000000000000E+00     1.0000000000000000E+00     0.0000000000000000E+00 
    2.5000000000000000E-01     2.5000000000000000E-01     0.0000000000000000E+00 
    7.5000000000000000E-01     2.5000000000000000E-01     0.0000000000000000E+00 
    7.5000000000000000E-01     7.5000000000000000E-01     0.0000000000000000E+00 
    2.5000000000000000E-01     7.5000000000000000E-01     0.0000000000000000E+00 
    3.1249999999942091E-02     0.0000000000000000E+00     0.0000000000000000E+00 
    6.2499999999873469E-02     0.0000000000000000E+00     0.0000000000000000E+00 
    9.3749999999826514E-02     0.0000000000000000E+00     0.0000000000000000E+00 
    1.2499999999977961E-01     0.0000000000000000E+00     0.0000000000000000E+00 
    1.5624999999968961E-01     0.0000000000000000E+00     0.0000000000000000E+00 
    1.8749999999959971E-01     0.0000000000000000E+00     0.0000000000000000E+00 
    2.1874999999950970E-01     0.0000000000000000E+00     0.0000000000000000E+00 
    2.4999999999941969E-01     0.0000000000000000E+00     0.0000000000000000E+00 
    2.8124999999932920E-01     0.0000000000000000E+00     0.0000000000000000E+00 
    3.1249999999923850E-01     0.0000000000000000E+00     0.0000000000000000E+00 
    3.4374999999914790E-01     0.0000000000000000E+00     0.0000000000000000E+00 
    3.7499999999905720E-01     0.0000000000000000E+00     0.0000000000000000E+00 
    4.0624999999896660E-01     0.0000000000000000E+00     0.0000000000000000E+00 
    4.3749999999887590E-01     0.0000000000000000E+00     0.0000000000000000E+00 
    4.6874999999878530E-01     0.0000000000000000E+00     0.0000000000000000E+00 
    4.9999999999869471E-01     0.0000000000000000E+00     0.0000000000000000E+00 
    5.3124999999877620E-01     0.0000000000000000E+00     0.0000000000000000E+00 
    5.6249999999885780E-01     0.0000000000000000E+00     0.0000000000000000E+00 
    5.9374999999893940E-01     0.0000000000000000E+00     0.0000000000000000E+00 
    6.2499999999902101E-01     0.0000000000000000E+00     0.0000000000000000E+00 
    6.5624999999910261E-01     0.0000000000000000E+00     0.0000000000000000E+00 
    6.8749999999918421E-01     0.0000000000000000E+00     0.0000000000000000E+00 
    7.1874999999926570E-01     0.0000000000000000E+00     0.0000000000000000E+00 
    7.4999999999934730E-01     0.0000000000000000E+00     0.0000000000000000E+00 
    7.8124999999942890E-01     0.0000000000000000E+00     0.0000000000000000E+00 
    8.1249999999951039E-01     0.0000000000000000E+00     0.0000000000000000E+00 
    8.4374999999959199E-01     0.0000000000000000E+00     0.0000000000000000E+00 
    8.7499999999967359E-01     0.0000000000000000E+00     0.0000000000000000E+00 
    9.0624999999975520E-01     0.0000000000000000E+00     0.0000000000000000E+00 
    9.3749999999983680E-01     0.0000000000000000E+00     0.0000000000000000E+00 
    9.6874999999991840E-01     0.0000000000000000E+00     0.0000000000000000E+00 
    1.0000000000000000E+00     3.1249999999942091E-02     0.0000000000000000E+00 
    1.0000000000000000E+00     6.2499999999873469E-02     0.0000000000000000E+00 
    1.0000000000000000E+00     9.3749999999826514E-02     0.0000000000000000E+00 
    1.0000000000000000E+00     1.2499999999977961E-01     0.0000000000000000E+00 
    1.0000000000000000E+00     1.5624999999968961E-01     0.0000000000000000E+00 
    1.0000000000000000E+00     1.8749999999959971E-01     0.0000000000000000E+00 
    1.0000000000000000E+00     2.1874999999950970E-01     0.0000000000000000E+00 
    1.0000000000000000E+00     2.4999999999941969E-01     0.0000000000000000E+00 
    1.0000000000000000E+00     2.8124999999932920E-01     0.0000000000000000E+00 
    1.0000000000000000E+00     3.1249999999923850E-01     0.0000000000000000E+00 
    1.0000000000000000E+00     3.4374999999914790E-01     0.0000000000000000E+00 
    1.0000000000000000E+00     3.7499999999905720E-01     0.0000000000000000E+00 
    1.0000000000000000E+00     4.0624999999896660E-01     0.0000000000000000E+00 
    1.0000000000000000E+00     4.3749999999887590E-01     0.0000000000000000E+00 
    1.0000000000000000E+00     4.6874999999878530E-01     0.0000000000000000E+00 
    1.0000000000000000E+00     4.9999999999869471E-01     0.0000000000000000E+00 
    1.0000000000000000E+00     5.3124999999877620E-01     0.0000000000000000E+00 
    1.0000000000000000E+00     5.6249999999885780E-01     0.0000000000000000E+00 
    1.0000000000000000E+00     5.9374999999893940E-01     0.0000000000000000E+00 
    1.0000000000000000E+00     6.2499999999902101E-01     0.0000000000000000E+00 
    1.0000000000000000E+00     6.5624999999910261E-01     0.0000000000000000E+00 
    1.0000000000000000E+00     6.8749999999918421E-01     0.0000000000000000E+00 
    1.0000000000000000E+00     7.1874999999926570E-01     0.0000000000000000E+00 
    1.0000000000000000E+00     7.4999999999934730E-01     0.0000000000000000E+00 
    1.0000000000000000E+00     7.8124999999942890E-01     0.0000000000000000E+00 
    1.0000000000000000E+00     8.1249999999951039E-01     0.0000000000000000E+00 
    1.0000000000000000E+00     8.4374999999959199E-01     0.0000000000000000E+00 
    1.0000000000000000E+00     8.7499999999967359E-01     0.0000000000000000E+00 
    1.0000000000000000E+00     9.0624999999975520E-01     0.0000000000000000E+00 
    1.0000000000000000E+00     9.3749999999983680E-01     0.0000000000000000E+00 
    1.0000000000000000E+00     9.6874999999991840E-01     0.0000000000000000E+00 
    9.6875000000003686E-01     1.0000000000000000E+00     0.0000000000000000E+00 
    9.3750000000011691E-01     1.0000000000000000E+00     0.0000000000000000E+00 
    9.0625000000015765E-01     1.0000000000000000E+00     0.0000000000000000E+00 
    8.7500000000017863E-01     1.0000000000000000E+00     0.0000000000000000E+00 
    8.4375000000028044E-01     1.0000000000000000E+00     0.0000000000000000E+00 
    8.1250000000040856E-01     1.0000000000000000E+00     0.0000000000000000E+00 
    7.8125000000054956E-01     1.0000000000000000E+00     0.0000000000000000E+00 
    7.5000000000066480E-01     1.0000000000000000E+00     0.0000000000000000E+00 
    7.1875000000086831E-01     1.0000000000000000E+00     0.0000000000000000E+00 
    6.8750000000102829E-01     1.0000000000000000E+00     0.0000000000000000E+00 
    6.5625000000114431E-01     1.0000000000000000E+00     0.0000000000000000E+00 
    6.2500000000129829E-01     1.0000000000000000E+00     0.0000000000000000E+00 
    5.9375000000147926E-01     1.0000000000000000E+00     0.0000000000000000E+00 
    5.6250000000168354E-01     1.0000000000000000E+00     0.0000000000000000E+00 
    5.3125000000188671E-01     1.0000000000000000E+00     0.0000000000000000E+00 
    5.0000000000205835E-01     1.0000000000000000E+00     0.0000000000000000E+00 
    4.6875000000192979E-01     1.0000000000000000E+00     0.0000000000000000E+00 
    4.3750000000180111E-01     1.0000000000000000E+00     0.0000000000000000E+00 
    4.0625000000167238E-01     1.0000000000000000E+00     0.0000000000000000E+00 
    3.7500000000154382E-01     1.0000000000000000E+00     0.0000000000000000E+00 
    3.4375000000141509E-01     1.0000000000000000E+00     0.0000000000000000E+00 
    3.1250000000128642E-01     1.0000000000000000E+00     0.0000000000000000E+00 
    2.8125000000115769E-01     1.0000000000000000E+00     0.0000000000000000E+00 
    2.5000000000102918E-01     1.0000000000000000E+00     0.0000000000000000E+00 
    2.1875000000090050E-01     1.0000000000000000E+00     0.0000000000000000E+00 
    1.8750000000077180E-01     1.0000000000000000E+00     0.0000000000000000E+00 
    1.5625000000064329E-01     1.0000000000000000E+00     0.0000000000000000E+00 
    1.2500000000051459E-01     1.0000000000000000E+00     0.0000000000000000E+00 
    9.3750000000385914E-02     1.0000000000000000E+00     0.0000000000000000E+00 
    6.2500000000257239E-02     1.0000000000000000E+00     0.0000000000000000E+00 
    3.1250000000128557E-02     1.0000000000000000E+00     0.0000000000000000E+00 
    0.0000000000000000E+00     9.6875000000003686E-01     0.0000000000000000E+00 
    0.0000000000000000E+00     9.3750000000011691E-01     0.0000000000000000E+00 
    0.0000000000000000E+00     9.0625000000015765E-01     0.0000000000000000E+00 
    0.0000000000000000E+00     8.7500000000017863E-01     0.0000000000000000E+00 
    0.0000000000000000E+00     8.4375000000028044E-01     0.0000000000000000E+00 
    0.0000000000000000E+00     8.1250000000040856E-01     0.0000000000000000E+00 
    0.0000000000000000E+00     7.8125000000054956E-01     0.0000000000000000E+00 
    0.0000000000000000E+00     7.5000000000066480E-01     0.0000000000000000E+00 
    0.0000000000000000E+00     7.1875000000086831E-01     0.0000000000000000E+00 
    0.0000000000000000E+00     6.8750000000102829E-01     0.0000000000000000E+00 
    0.0000000000000000E+00     6.5625000000114431E-01     0.0000000000000000E+00 
    0.0000000000000000E+00     6.2500000000129829E-01     0.0000000000000000E+00 
    0.0000000000000000E+00     5.9375000000147926E-01     0.0000000000000000E+00 
    0.0000000000000000E+00     5.6250000000168354E-01     0.0000000000000000E+00 
    0.0000000000000000E+00     5.3125000000188671E-01     0.0000000000000000E+00 
    0.0000000000000000E+00     5.0000000000205835E-01     0.0000000000000000E+00 
    0.0000000000000000E+00     4.6875000000192979E-01     0.0000000000000000E+00 
    0.0000000000000000E+00     4.3750000000180111E-01     0.0000000000000000E+00 
    0.0000000000000000E+00     4.0625000000167238E-01     0.0000000000000000E+00 
[...]
CELL_DATA 2795 
SCALARS Pressure double 1 
LOOKUP_TABLE default 

    5.5930284173535103E+00 
    1.2855310889836586E+01 
    9.1019297613897638E+00 
    8.7004437705085564E+00 
    6.8958448051090606E+00 
    1.2744591956675979E+01 
    1.3402715123319899E+01 
    4.9895305126899183E+00 
    9.6329500897958837E+00 
    7.3588226305286204E+00 
    6.2612148506363710E+00 
    1.2515164480170666E+01 
    1.2765988357836687E+01 
    1.2716678838302295E+01 
    8.3946512175869668E+00 
    4.9054550508149450E+00 
    7.9956347313802922E+00 
    6.6747998781545448E+00 
    1.2192803118732082E+01 
    9.0945637894464131E+00 
    8.9855440674052076E+00 
    1.2658507721163542E+01 
    8.4579458654908297E+00 
    3.2817781229220921E-01 
    1.2497271133454413E+01 
    1.2743170895415169E+01 
    1.3431826777761257E+01 
    6.0175154887698463E+00 
    1.2444104915156949E+01 
    1.3428991409291253E+01 
    9.1457897360645859E+00 
    9.3412537832798446E+00 
    6.5034350349916021E+00 
    9.0619681362677849E+00 
    2.8926911855384798E+00 
    8.0004128128152896E+00 
    9.0518493937448490E+00 
    1.3466279103179428E+01 
    1.3382184383504727E+01 
    1.2526706183056300E+01 
    6.8291811075063764E+00 
    1.2475492927942664E+01 
    6.8370076755898512E-01 
    8.9273168385281334E+00 
    1.3209820058056543E+01 
    1.3056808753829209E+01 
    1.2505585867912286E+01 
    9.9584248669632132E+00 
    1.2571126560440923E+01 
    8.1842175354697186E+00 
    7.7886726381991975E+00 
    9.3069756586152348E+00 
    8.8218967058524758E+00 
    8.0429635938329298E+00 
    9.2159401091343653E+00 
    1.2006145472066651E+01 
    1.0859227760422948E+01 
    6.9336508773830134E+00 
    1.2661942509447549E+01 
    1.2593292414405095E+01 
    8.7158640254351170E+00 
    8.7477371554892560E+00 
    8.6112991423396341E+00 
    1.3338733987306046E+01 
    1.3572069248662240E+01 
    8.0050256742488912E+00 
    9.3051577802069207E+00 
    1.2427474445179611E+01 
    1.0659328481587453E+01 
    8.7858395651946246E+00 
    1.3580201187122425E+01 
    1.2597935441346445E+01 
    7.8899298726198248E+00 
    1.3147166894005071E+01 
    9.4655094881180410E+00 
    1.2362661790819182E+01 
    1.3476048781668551E+01 
    9.4000538205814816E+00 
    5.6975218039081668E+00 
    9.3233926752454011E+00 
    1.3389942724411828E+01 
    1.3610495705761005E+01 
    8.0127148556570642E+00 
    9.2293093276488527E+00 
    1.3649309250011807E+01 
    9.0562387590369369E+00 
    8.5357603335990770E+00 
    1.1025819820338803E+01 
    5.4334951117999317E+00 
    7.8096738248377706E+00 
    9.2314735538015960E+00 
    9.7610429545704402E+00 
    1.5046979576651960E+01 
    6.6985225048643597E+00 
    9.3129198049980495E+00 
    1.2485861794544594E+01 
    1.2721736949559991E+01 
    5.8869066225463706E+00 
    8.9319215967119607E+00 
    9.2595671102474366E+00 
    1.2740435667622734E+01 
    9.2691349931663822E+00 
    1.2678403661507975E+01 
    3.5762574065263277E+00 
    6.0862609070428419E+00 
    9.5245553368393541E+00 
    1.2863448790208050E+01 
    7.9674100331273570E+00 
    8.5151014084847283E+00 
    9.2543978965407110E+00 
    8.5056547313950208E+00 
    1.0532506668393941E+01 
    8.2734833582534648E+00 
    7.8977444023114760E+00 
    6.1896806285882819E+00 
    1.0755134531286947E+01 
    9.3415150161782865E+00 
    1.3257833418024841E+01 
    7.9971032369859474E+00 
    8.6861632250838792E+00 
    1.2588272850870508E+01 
    7.2221268210851122E+00 
    1.2998790326367669E+01 
    9.1421654558775440E+00 
    8.6191993903423700E+00 
    1.2723748837901136E+01 
    9.3363007561489386E+00 
    1.3483651789802552E+01 
    1.1035476471468071E+01 
    1.1873166563282762E+01 
    1.3447342699331351E+01 
    6.7124001596509038E+00 
    9.5419671265780739E+00 
    1.2727099580858585E+01 
    2.6836043218628447E+00 
    9.1944866398432534E+00 
    1.3416419393019261E+01 
    8.6479725915343622E+00 
    9.9905169900860695E+00 
    5.8311776074116866E+00 
    1.2484846625567664E+01 
    1.5524716831946206E+01 
    1.1450323555480947E+01 
    8.6445932300617301E+00 
    7.7184150900741457E+00 
    9.8977689012529790E+00 
    9.1603123500142392E+00 
    6.3279412083503219E+00 
    1.3443548942322105E+01 
    1.2816855923668207E+01 
    1.2487423430836790E+01 
    9.7722391149571717E+00 
    7.8639319638735525E+00 
    8.9846471060864523E+00 
    1.3172368810595236E+01 
    8.0928964016876375E+00 
    9.0709392218671923E+00 
    8.2424440833019492E+00 
    1.0525223003034796E+01 
    1.5513217290440050E+01 
    1.2479758097055900E+01 
    7.8223296589028850E+00 
    1.2899025594754239E+01 
    1.2825759024686235E+01 
    1.2899480519996581E+01 
    1.3837041627121668E+01 
    1.4352009743722387E+01 
    1.3054088657596965E+01 
    9.2968749819168419E+00 
    9.8738397301159999E+00 
    1.2896478714169884E+01 
    1.3267214248992099E+01 
    6.6081930007538032E+00 
    1.2505212162786256E+01 
    1.3137576943865071E+01 
    6.4325747361246988E+00 
    1.3751616420461994E+01 
    1.3743084946296156E+01 
    1.2255252050131599E+01 
    9.6000256463796489E+00 
    2.3502691880516413E+00 
    1.3416894821030160E+01 
    9.4688031973208169E+00 
    1.3531597605011028E+01 
    8.5847742223849064E+00 
    1.3263499546615995E+01 
    8.3536621730713068E-01 
    1.1890748483922447E+01 
    8.7904593626529053E+00 
    7.8267008809541174E+00 
    7.6239991292038738E+00 
    9.1094627470261482E+00 
    1.0217201926709084E+01 
    9.4250529468016921E+00 
    6.2818207436851532E+00 
    1.3263458359204913E+01 
    1.2750160038934000E+01 
    1.0772509118012914E+01 
    9.5172694396353812E+00 
    1.3732544326471923E+00 
    7.0270671118840253E+00 
    4.8466251010873345E+00 
    1.3439848112380973E+01 
    1.0341135393399645E+01 
    1.2802901508184052E+01 
    1.2810513063554620E+01 
    8.1641409591761978E+00 
    1.0800625305668870E+01 
    1.2483369838955520E+01 
    1.3726324593663728E+01 
    5.8117172197336258E+00 
    1.1261009074620805E+01 
    9.4589562836740857E+00 
    5.1691263442764610E+00 
    8.1570344386382061E+00 
    1.1264174387605456E+01 
    1.2775810518102045E+01 
    9.1729084592075694E+00 
    1.2878265824248965E+01 
    1.2661279761046476E+01 
    1.2615142370564771E+01 
    8.9914677653701478E+00 
    7.7757770207745596E+00 
    1.2494813077467864E+01 
    7.8856571900892085E+00 
    9.2718450447910250E+00 
    7.7271192543448128E+00 
    9.0184841029001461E+00 
    1.2818430462580954E+01 
    5.7202867521818623E+00 
    8.0739351902427430E+00 
    1.3357875164074512E+01 
    9.0055880085282780E+00 
    1.0232556904077178E+01 
    5.8701075410707952E+00 
    7.9428588923962868E+00 
    1.2641116811839016E+01 
    1.2929995584101572E+01 
    4.7782840214576785E+00 
    9.0076306208713639E+00 
    7.7642751508878458E+00 
    1.4127174199509707E+01 
    1.3617739548452484E+01 
    1.4376991904896990E+01 
    9.0278178955513209E+00 
    1.2794449050461706E+01 
    1.2445346885623987E+01 
    8.9082617116432079E+00 
    1.2487671916525509E+01 
    9.5174577758189614E+00 
    5.2359659441123645E+00 
    9.2190806738638909E+00 
    1.3346677307031003E+01 
    1.2484786453151486E+01 
    6.2282609320323044E+00 
    1.2511474392839093E+01 
    1.0205983151024556E+01 
    9.1765911106577551E+00 
    8.7231444079136295E+00 
    1.2365532712677258E+01 
    9.7234750701579102E+00 
    1.2499474634987260E+01 
    8.8729833157267706E+00 
    5.4294632688699096E+00 
    9.3382542181100945E+00 
    7.6322899999140716E+00 
    1.1450884026963216E+01 
    1.3528479706583040E+01 
    1.2493648641413600E+01 
    1.3410216501957414E+01 
    8.9569594318268280E+00 
    6.0629857250751877E+00 
    6.1502616134054771E+00 
    9.3758523482494276E+00 
    9.2478163786703380E+00 
    1.2985222323029451E+00 
    1.2052632281154546E+01 
    1.3863134288188967E+01 
    8.5954611170775674E+00 
    5.4580209359078777E+00 
    1.0480928597877984E+01 
    1.2510206667347873E+01 
    6.4898622833012185E+00 
    4.3953239739170566E+00 
    9.2197004445067421E+00 
    1.2599279623922277E+01 
    1.3174819140938860E+01 
    1.3070896816264105E+01 
    1.2934060756547652E+01 
    6.3270283950757058E+00 
    9.1685226754359856E+00 
    1.2061493349163394E+01 
    7.2233940650906394E+00 
    1.2754140924155990E+01 
    1.1005849298223627E+01 
    6.2462548636488320E+00 
    1.2609366428356200E+01 
    1.3431938677632298E+01 
    1.2606157803525809E+01 
    6.2467708749587771E+00 
    9.3011475986319372E+00 
    6.8722416619148996E+00 
    8.7671266444912384E+00 
    1.2502459182720388E+01 
    1.2491795110519346E+01 
    6.2836252872198122E+00 
    1.3300263332933175E+01 
    9.8056426915823582E+00 
    1.2528830482139286E+01 
    1.3272743026818125E+01 
    1.2513081911013948E+01 
    1.1670652093533489E+01 
    1.4177064772757376E+01 
    8.5605298725174404E+00 
    1.3382182914260028E+01 
    1.2555376361326184E+01 
    1.3449240565095732E+01 
    1.3294099556707817E+01 
    8.6529004048020042E+00 
    9.0949358463538328E+00 
    8.5862022922788661E+00 
    1.1231755711031619E+01 
    3.5869484943232295E+00 
    9.2967883293825047E+00 
    1.4298593187645867E+01 
    9.5207192185702958E+00 
    9.6924570808258714E+00 
    1.3424030848219600E+01 
    1.3642241147966466E+01 
    8.5154386561954318E+00 
    1.2515384363790687E+01 
    1.2488504722092333E+01 
    9.6811586400076557E+00 
    1.3252677422067414E+01 
    6.5627839619593065E+00 
    4.1542145621301660E+00 
    9.9389408866363667E+00 
    9.5338348320544188E+00 
    1.2493900075368602E+01 
    5.8707436176323702E+00 
    1.2993877314286472E+01 
    4.2297636264749343E+00 
    9.4721026461693505E+00 
    8.7078875135604399E+00 
    9.2772738008005060E+00 
    1.5564001907036282E+01 
    3.4865982791261096E+00 
    9.2123347215351234E+00 
    1.0938325381550547E+01 
    8.8648304723074016E+00 
    6.9204929681215130E+00 
    1.3101485543296976E+01 
    1.5132036954475231E+01 
    1.3235213374974123E+01 
    9.1547681961833209E+00 
    5.1425406536363747E+00 
    1.4990289220282355E+01 
    1.2738978825759137E+01 
    6.6340132367359743E+00 
    8.7782728387066484E+00 
    1.3821830480355796E+01 
    2.9644687361170425E+00 
    9.5801228307166237E+00 
    1.3204486156512505E+01 
    9.2907535031790900E+00 
    8.0753918678399508E+00 
    9.2528535192156340E+00 
    1.2261826772294674E+01 
    9.2700491922905588E+00 
    4.5807751679426598E+00 
    8.0560341396801338E-01 
    6.8779944951351881E+00 
    1.4025348812211801E+01 
    8.5856006067069597E+00 
    1.0517285333897403E+01 
    1.0048594438513240E+01 
    1.1499912947976691E+01 
    9.3042758529850360E+00 
    1.2654675321108810E+01 
    1.5578047958726581E+01 
    1.0940899508233002E+01 
    1.3356959021853728E+01 
    4.8700007279328056E-01 
    1.2493607609204503E+01 
    5.0700241114771218E+00 
    1.4461728113848864E+01 
    9.2259862547414819E+00 
    8.1865118439897380E+00 
    7.0112978076118226E+00 
    4.8091365058585263E+00 
    1.0352157618919550E+01 
    7.2883501104192767E+00 
    1.1355156978095209E+01 
    1.9626456161137757E+00 
    1.0233457514416346E+01 
    1.2433443273318083E+01 
    5.5773088398785040E+00 
    1.2938693316771063E+01 
    1.4273867369223140E+01 
    1.2800094906766862E+01 
    9.0961952847590428E+00 
    9.2716985852562601E+00 
    9.2186290912693813E+00 
    5.2130841845085145E+00 
    8.3422082980276340E+00 
    8.1995674305844943E+00 
    9.2077391994871327E+00 
    8.5235362774003125E+00 
    6.1413606101300910E-01 
    5.8173757362801215E+00 
    8.8843709693148210E+00 
    9.1835648338023219E+00 
    1.1664514830916627E+01 
    1.9512779115843526E+00 
    9.6442941281693475E+00 
    9.5386283474615947E+00 
    3.3526056642070636E+00 
    1.2683106333134056E+01 
    7.9031130508026539E+00 
    9.4043419122194418E+00 
    1.2734478077992989E+01 
    4.8267867736120085E+00 
    1.2787039953920718E+01 
    8.0087395465690729E+00 
    8.9669799725482957E-01 
    8.6430119500872831E+00 
    1.3312444081133984E+01 
    1.2493638124030834E+01 
    1.2511652395183948E+01 
    9.5898204653851984E+00 
    9.4758588249857496E+00 
    7.8841730719675889E+00 
    6.3165964448722702E+00 
    1.2834531133678047E+01 
    8.7768029358987736E+00 
    6.1682349133471908E+00 
    1.2506695099089221E+01 
    1.3135658000304897E+01 
    9.4021901906513357E+00 
    9.0513158914144682E+00 
    1.5460316835600761E+01 
    9.6819169247775463E+00 
    1.2853932088535242E+01 
    7.4830432397584206E+00 
    1.5606548506099328E+01 
    6.1142418836508341E+00 
    8.2765594649518590E+00 
    6.8594515520663348E+00 
    9.8911693630217812E+00 
    7.8577014320097724E+00 
    1.5590262963717407E+01 
    9.7255234251581317E+00 
    1.2203841673011420E+01 
    6.2907209533304078E+00 
    9.3016909248394857E+00 
    1.2708222447772579E+01 
    7.8880306835962344E+00 
    6.5681471035858365E+00 
    1.0170211039594800E+01 
    1.2925683198216449E+01 
    6.7557642774522817E+00 
    8.7263297721003497E+00 
    9.0779912857089151E+00 
    1.2471341172906177E+01 
    8.8914887019838567E+00 
    1.2897975277156553E+01 
    1.3476350416450822E+01 
    7.9095472488673186E+00 
    7.7470747366944765E+00 
    7.3330109860598558E+00 
    1.2599401416231531E+01 
    9.5438340979314003E+00 
    1.5170446836662277E+01 
    1.1881352071735533E+01 
    1.2669736290143577E+01 
    1.4868031548650832E+01 
    1.4281057747891937E+01 
    9.3493899286919042E+00 
    9.1930460390286548E+00 
    1.2284802087061591E+01 
    1.2527823189000083E+01 
    1.2994547687235480E+01 
    1.2757473912078693E+01 
    1.5479550148123908E+01 
    9.6815010604724225E+00 
    8.0014001248622808E+00 
    9.6607666118575626E+00 
    1.3395531287358056E+01 
    9.4439578003340792E+00 
    5.4410630210123596E+00 
    9.0807320321359253E+00 
    1.3790236140637530E+01 
    9.5715330942719206E+00 
    8.0113787486186983E+00 
    9.0182471927684631E+00 
    1.3895008108908156E+01 
    1.2527729977133649E+01 
    7.5928022549473351E+00 
    1.4024599148816636E+01 
    9.3787133431463712E+00 
    1.2994068377017346E+01 
    1.3907145654568353E+01 
    9.7564041177256193E+00 
    4.8292423845479204E+00 
    1.0141036021275204E+01 
    4.9974171309709741E+00 
    9.4908936625715690E+00 
    9.2894866723508436E+00 
    1.0671844356397314E+01 
    5.2851711066087823E+00 
    1.1326712380065127E+01 
    9.3140652673206272E+00 
    1.2748633694004518E+01 
    9.7258582941909921E+00 
    7.4051710073794963E+00 
    8.9029790196983765E+00 
    9.7636597848354008E+00 
    9.7772912784571968E+00 
    1.3519448024194510E+01 
    7.6374607708442701E+00 
    7.5038232890333836E+00 
    5.5625433098289587E+00 
    1.3020395687789229E+01 
    8.9406556160414326E+00 
    1.2337615208895890E+01 
    9.2607031424106125E+00 
    6.0936586480863175E+00 
    1.2552927686469008E+01 
    9.2329330304050536E+00 
    6.6575803722139595E+00 
    7.0636620868407736E+00 
    7.3201714700434115E+00 
    1.2776019207248263E+01 
    9.2096798552258470E+00 
    1.3367166290407770E+01 
    9.1843867244363633E+00 
    9.1142348657903476E+00 
    8.6471316137182477E+00 
    1.2628611916042471E+01 
    9.0299038264575788E+00 
    7.3590546289166401E+00 
    1.4269096911250072E+01 
    1.2701984578003286E+01 
    6.4096603075549412E+00 
    2.4630125954657522E+00 
    9.1991413197487990E+00 
    8.6560154343120619E+00 
    7.7406658901592520E+00 
    8.4612202410295261E+00 
    1.2677973364598246E+01 
    8.9188615509968088E+00 
    8.0556729522941914E+00 
    1.2547559538934490E+01 
    6.3514704757388429E+00 
    1.2248394001579051E+01 
    8.3689667494140352E+00 
    7.2918820616231024E+00 
    7.8169213437868814E+00 
    1.3073211620218007E+01 
    9.2803600956027577E+00 
    9.2888482706712381E+00 
    5.3658243654002309E+00 
    5.8090284235486243E+00 
    1.1630572900221244E+01 
    9.2990992140053947E+00 
    9.2404665929774676E+00 
    1.4010420984477038E+01 
    7.5053392699166590E+00 
    9.3115938284434083E+00 
    6.5703858608619310E+00 
    6.7787847563200669E+00 
    1.2621357353636270E+01 
    8.9240746995821514E+00 
    6.4169114625029717E+00 
    9.7756563462756425E+00 
    9.1611990316601410E+00 
    1.2624469746920836E+01 
    1.4099253616995313E+01 
    9.4654760902251600E-01 
    9.2039106591995115E+00 
    9.5323813219024380E+00 
    1.2684015001977935E+01 
    8.7130343402674377E+00 
    9.2522248402462850E+00 
    1.3567639127139264E+01 
    7.8497501273273409E+00 
    6.4751953382326626E+00 
    1.1216401393470155E+01 
    1.2506060074060921E+01 
    1.3448291250642720E+01 
    1.3704172644290049E+01 
    9.0507038448040618E+00 
    9.1959237301639121E+00 
    1.0415983040994082E+01 
    6.0861863313545852E+00 
    1.2621785676414271E+01 
    6.9870463124746749E+00 
    6.3419540241349655E+00 
    1.1597442779851361E+01 
    1.0912178718220430E+01 
    6.2180318038001694E+00 
    1.2538601217714250E+01 
    1.3435001685329944E+01 
    9.6958544128562032E+00 
    1.4196477877314738E+01 
    1.2568145920634233E+01 
    8.7864958010299183E+00 
    1.3190936449948035E+01 
    6.7826425328233722E+00 
    1.2522783850718861E+01 
    9.2030106322232825E+00 
    9.1641532856776440E+00 
    1.4171726099817063E+01 
    8.9710924519382722E+00 
    1.1331703741254792E+01 
    7.8025060622668052E+00 
    1.3545721561972870E+01 
    1.2438750887654368E+01 
    8.1490078195849271E+00 
    1.2484402234164298E+01 
    8.3776795747121717E+00 
    9.2640827204951997E+00 
    1.3397420550110672E+01 
    1.2750703059428615E+01 
    1.3438061131878841E+01 
    1.2686808784309264E+01 
    8.3474069460240035E+00 
    8.5571993899509131E+00 
    1.3444362304882450E+01 
    8.6750646196399845E+00 
    1.2378790150254686E+01 
    8.9626655284667152E+00 
    3.6168384818391863E+00 
    6.4113248503564613E+00 
    5.9307389095201248E+00 
    1.3400611725244618E+01 
    1.4104898343739452E+01 
    1.2500959118699946E+01 
    1.0750605380337358E+01 
    1.2760713043570190E+01 
    1.2545262365729842E+01 
    1.3078929869180817E+01 
    5.1793152522941650E+00 
    3.3729114606093296E+00 
    1.0557357905356755E+01 
    8.8663500639444841E+00 
    1.2679303977972697E+01 
    1.2677008964048687E+01 
    9.5496019599131596E+00 
    1.2710793328744623E+01 
    9.1904488052110587E+00 
    9.0984839331059550E+00 
    4.6741569388625122E+00 
    3.3596232158140134E+00 
    1.3891996088059514E+01 
    7.2024490852418879E+00 
    8.0925940449033735E+00 
    9.4527361714108871E+00 
    1.5461515278199888E+01 
    9.5410923074654708E+00 
    9.4871779084938161E+00 
    3.8209612213556268E+00 
    9.5417598792943803E+00 
    9.5544259665512481E+00 
    1.2967031530153813E+01 
    7.8212591308913426E+00 
    8.8422694835415339E+00 
    1.4051942819261654E+01 
    9.2121509739113581E+00 
    1.2515336838118790E+01 
    1.2748939149188656E+01 
    1.1450465419256037E+01 
    7.8260832982872763E+00 
    1.2686149484059621E+01 
    9.0076330822069384E+00 
    1.2695413877626956E+01 
    1.2458998407691325E+01 
    1.3418451471312215E+01 
    1.2685511951630044E+01 
    1.1932095563919408E+01 
    9.2011930746797770E+00 
    6.1701856265151687E+00 
    1.5336708414146148E+01 
    7.1313042072917563E+00 
    1.3355407868533556E+01 
    9.1986323200862987E+00 
    7.5440962145846484E+00 
    4.5194380042546483E+00 
    9.5864828463032747E+00 
    1.2674409234224635E+01 
    1.2670365591258930E+01 
    9.2429489325704601E+00 
    9.1928695469575210E+00 
    1.4250800994767976E+01 
    1.3650088524753953E+01 
    9.5580876936982566E+00 
    3.1392925361125115E+00 
    1.1902319908859619E+01 
    1.5588252041963045E+01 
    9.2044850900222741E+00 
    1.1091790506729007E+01 
    8.7095238076711023E+00 
    1.5196982805772691E+01 
    1.3724342490540307E+01 
    1.3471607189254712E+01 
    9.5780073052901766E+00 
    4.2125432118636335E+00 
    8.6689107486076082E+00 
    8.7349046755949100E+00 
    8.7794351531791772E+00 
    3.4149609196118540E+00 