# vtk DataFile Version 2.0
Pressure Field Data 
ASCII 
DATASET UNSTRUCTURED_GRID 

POINTS 2860 double 

    0.0000000000000000E+00     0.0000000000000000E+00     0.0000000000000000E+00 
    1.0000000000000000E+00     0.0000000000000000E+00     0.0000000000000000E+00 
    1.0000000000000000E+00     1.0000000000000000E+00     0.0000000000000000E+00 
    0.0000000000000000E+00     1.0000000000000000E+00     0.0000000000000000E+00 
    2.5000000000000000E-01     2.5000000000000000E-01     0.0000000000000000E+00 
    7.5000000000000000E-01     2.5000000000000000E-01     0.0000000000000000E+00 
    7.5000000000000000E-01     7.5000000000000000E-01     0.0000000000000000E+00 
    2.5000000000000000E-01     7.5000000000000000E-01     0.0000000000000000E+00 
    3.1249999999942091E-02     0.0000000000000000E+00     0.0000000000000000E+00 
    6.2499999999873469E-02     0.0000000000000000E+00     0.0000000000000000E+00 
    9.3749999999826514E-02     0.0000000000000000E+00     0.0000000000000000E+00 
    1.2499999999977961E-01     0.0000000000000000E+00     0.0000000000000000E+00 
    1.5624999999968961E-01     0.0000000000000000E+00     0.0000000000000000E+00 
    1.8749999999959971E-01     0.0000000000000000E+00     0.0000000000000000E+00 
    2.1874999999950970E-01     0.0000000000000000E+00     0.0000000000000000E+00 
    2.4999999999941969E-01     0.0000000000000000E+00     0.0000000000000000E+00 
    2.8124999999932920E-01     0.0000000000000000E+00     0.0000000000000000E+00 
    3.1249999999923850E-01     0.0000000000000000E+00     0.0000000000000000E+00 
    3.4374999999914790E-01     0.0000000000000000E+00     0.0000000000000000E+00 
    3.7499999999905720E-01     0.0000000000000000E+00     0.0000000000000000E+00 
    4.0624999999896660E-01     0.0000000000000000E+00     0.0000000000000000E+00 
    4.3749999999887590E-01     0.0000000000000000E+00     0.0000000000000000E+00 
    4.6874999999878530E-01     0.0000000000000000E+00     0.0000000000000000E+00 
    4.9999999999869471E-01     0.0000000000000000E+00     0.0000000000000000E+00 
    5.3124999999877620E-01     0.0000000000000000E+00     0.0000000000000000E+00 
    5.6249999999885780E-01     0.0000000000000000E+00     0.0000000000000000E+00 
    5.9374999999893940E-01     0.0000000000000000E+00     0.0000000000000000E+00 
    6.2499999999902101E-01     0.0000000000000000E+00     0.0000000000000000E+00 
    6.5624999999910261E-01     0.0000000000000000E+00     0.0000000000000000E+00 
    6.8749999999918421E-01     0.0000000000000000E+00     0.0000000000000000E+00 
    7.1874999999926570E-01     0.0000000000000000E+00     0.0000000000000000E+00 
    7.4999999999934730E-01     0.0000000000000000E+00     0.0000000000000000E+00 
    7.8124999999942890E-01     0.0000000000000000E+00     0.0000000000000000E+00 
    8.1249999999951039E-01     0.0000000000000000E+00     0.0000000000000000E+00 
    8.4374999999959199E-01     0.0000000000000000E+00     0.0000000000000000E+00 
    8.7499999999967359E-01     0.0000000000000000E+00     0.0000000000000000E+00 
    9.0624999999975520E-01     0.0000000000000000E+00     0.0000000000000000E+00 
    9.3749999999983680E-01     0.0000000000000000E+00     0.0000000000000000E+00 
    9.6874999999991840E-01     0.0000000000000000E+00     0.0000000000000000E+00 
    1.0000000000000000E+00     3.1249999999942091E-02     0.0000000000000000E+00 
    1.0000000000000000E+00     6.2499999999873469E-02     0.0000000000000000E+00 
    1.0000000000000000E+00     9.3749999999826514E-02     0.0000000000000000E+00 
    1.0000000000000000E+00     1.2499999999977961E-01     0.0000000000000000E+00 
    1.0000000000000000E+00     1.5624999999968961E-01     0.0000000000000000E+00 
    1.0000000000000000E+00     1.8749999999959971E-01     0.0000000000000000E+00 
    1.0000000000000000E+00     2.1874999999950970E-01     0.0000000000000000E+00 
    1.0000000000000000E+00     2.4999999999941969E-01     0.0000000000000000E+00 
    1.0000000000000000E+00     2.8124999999932920E-01     0.0000000000000000E+00 
    1.0000000000000000E+00     3.1249999999923850E-01     0.0000000000000000E+00 
    1.0000000000000000E+00     3.4374999999914790E-01     0.0000000000000000E+00 
    1.0000000000000000E+00     3.7499999999905720E-01     0.0000000000000000E+00 
    1.0000000000000000E+00     4.0624999999896660E-01     0.0000000000000000E+00 
    1.0000000000000000E+00     4.3749999999887590E-01     0.0000000000000000E+00 
    1.0000000000000000E+00     4.6874999999878530E-01     0.0000000000000000E+00 
    1.0000000000000000E+00     4.9999999999869471E-01     0.0000000000000000E+00 
    1.0000000000000000E+00     5.3124999999877620E-01     0.0000000000000000E+00 
    1.0000000000000000E+00     5.6249999999885780E-01     0.0000000000000000E+00 
    1.0000000000000000E+00     5.9374999999893940E-01     0.0000000000000000E+00 
    1.0000000000000000E+00     6.2499999999902101E-01     0.0000000000000000E+00 
    1.0000000000000000E+00     6.5624999999910261E-01     0.0000000000000000E+00 
    1.0000000000000000E+00     6.8749999999918421E-01     0.0000000000000000E+00 
    1.0000000000000000E+00     7.1874999999926570E-01     0.0000000000000000E+00 
    1.0000000000000000E+00     7.4999999999934730E-01     0.0000000000000000E+00 
    1.0000000000000000E+00     7.8124999999942890E-01     0.0000000000000000E+00 
    1.0000000000000000E+00     8.1249999999951039E-01     0.0000000000000000E+00 
    1.0000000000000000E+00     8.4374999999959199E-01     0.0000000000000000E+00 
    1.0000000000000000E+00     8.7499999999967359E-01     0.0000000000000000E+00 
    1.0000000000000000E+00     9.0624999999975520E-01     0.0000000000000000E+00 
    1.0000000000000000E+00     9.3749999999983680E-01     0.0000000000000000E+00 
    1.0000000000000000E+00     9.6874999999991840E-01     0.0000000000000000E+00 
    9.6875000000003686E-01     1.0000000000000000E+00     0.0000000000000000E+00 
    9.3750000000011691E-01     1.0000000000000000E+00     0.0000000000000000E+00 
    9.0625000000015765E-01     1.0000000000000000E+00     0.0000000000000000E+00 
    8.7500000000017863E-01     1.0000000000000000E+00     0.0000000000000000E+00 
    8.4375000000028044E-01     1.0000000000000000E+00     0.0000000000000000E+00 
    8.1250000000040856E-01     1.0000000000000000E+00     0.0000000000000000E+00 
    7.8125000000054956E-01     1.0000000000000000E+00     0.0000000000000000E+00 
    7.5000000000066480E-01     1.0000000000000000E+00     0.0000000000000000E+00 
    7.1875000000086831E-01     1.0000000000000000E+00     0.0000000000000000E+00 
    6.8750000000102829E-01     1.0000000000000000E+00     0.0000000000000000E+00 
    6.5625000000114431E-01     1.0000000000000000E+00     0.0000000000000000E+00 
    6.2500000000129829E-01     1.0000000000000000E+00     0.0000000000000000E+00 
    5.9375000000147926E-01     1.0000000000000000E+00     0.0000000000000000E+00 
    5.6250000000168354E-01     1.0000000000000000E+00     0.0000000000000000E+00 
    5.3125000000188671E-01     1.0000000000000000E+00     0.0000000000000000E+00 
    5.0000000000205835E-01     1.0000000000000000E+00     0.0000000000000000E+00 
    4.6875000000192979E-01     1.0000000000000000E+00     0.0000000000000000E+00 
    4.3750000000180111E-01     1.0000000000000000E+00     0.0000000000000000E+00 
    4.0625000000167238E-01     1.0000000000000000E+00     0.0000000000000000E+00 
    3.7500000000154382E-01     1.0000000000000000E+00     0.0000000000000000E+00 
    3.4375000000141509E-01     1.0000000000000000E+00     0.0000000000000000E+00 
    3.1250000000128642E-01     1.0000000000000000E+00     0.0000000000000000E+00 
    2.8125000000115769E-01     1.0000000000000000E+00     0.0000000000000000E+00 
    2.5000000000102918E-01     1.0000000000000000E+00     0.0000000000000000E+00 
    2.1875000000090050E-01     1.0000000000000000E+00     0.0000000000000000E+00 
    1.8750000000077180E-01     1.0000000000000000E+00     0.0000000000000000E+00 
    1.5625000000064329E-01     1.0000000000000000E+00     0.0000000000000000E+00 
    1.2500000000051459E-01     1.0000000000000000E+00     0.0000000000000000E+00 
    9.3750000000385914E-02     1.0000000000000000E+00     0.0000000000000000E+00 
    6.2500000000257239E-02     1.0000000000000000E+00     0.0000000000000000E+00 
    3.1250000000128557E-02     1.0000000000000000E+00     0.0000000000000000E+00 
    0.0000000000000000E+00     9.6875000000003686E-01     0.0000000000000000E+00 
    0.0000000000000000E+00     9.3750000000011691E-01     0.0000000000000000E+00 
    0.0000000000000000E+00     9.0625000000015765E-01     0.0000000000000000E+00 
    0.0000000000000000E+00     8.7500000000017863E-01     0.0000000000000000E+00 
    0.0000000000000000E+00     8.4375000000028044E-01     0.0000000000000000E+00 
    0.0000000000000000E+00     8.1250000000040856E-01     0.0000000000000000E+00 
    0.0000000000000000E+00     7.8125000000054956E-01     0.0000000000000000E+00 
    0.0000000000000000E+00     7.5000000000066480E-01     0.0000000000000000E+00 
    0.0000000000000000E+00     7.1875000000086831E-01     0.0000000000000000E+00 
    0.0000000000000000E+00     6.8750000000102829E-01     0.0000000000000000E+00 
    0.0000000000000000E+00     6.5625000000114431E-01     0.0000000000000000E+00 
    0.0000000000000000E+00     6.2500000000129829E-01     0.0000000000000000E+00 
    0.0000000000000000E+00     5.9375000000147926E-01     0.0000000000000000E+00 
    0.0000000000000000E+00     5.6250000000168354E-01     0.0000000000000000E+00 
    0.0000000000000000E+00     5.3125000000188671E-01     0.0000000000000000E+00 
    0.0000000000000000E+00     5.0000000000205835E-01     0.0000000000000000E+00 
    0.0000000000000000E+00     4.6875000000192979E-01     0.0000000000000000E+00 
    0.0000000000000000E+00     4.3750000000180111E-01     0.0000000000000000E+00 
    0.0000000000000000E+00     4.0625000000167238E-01     0.0000000000000000E+00 
[...]
CELL_DATA 2795 
SCALARS Pressure double 1 
LOOKUP_TABLE default 

    7.7707574826842531E+00 
    2.1365955712477671E+01 
    1.3091765614230320E+01 
    1.2545801761947370E+01 
    9.6738086839617736E+00 
    2.0575277436296791E+01 
    2.2224237048688359E+01 
    6.8833176769896074E+00 
    1.3882709987277320E+01 
    1.0370229477253220E+01 
    8.7189136486675896E+00 
    2.0106111687519089E+01 
    2.0936774779422976E+01 
    2.0517596699103187E+01 
    1.1954612928267837E+01 
    6.7606205096136653E+00 
    1.1364450776529916E+01 
    9.3313628154908024E+00 
    1.9336801721527070E+01 
    1.3072957848390621E+01 
    1.2916682975623416E+01 
    2.0369477827018521E+01 
    1.2128197122072526E+01 
    4.4729575414341766E-01 
    2.0241637177026576E+01 
    2.1108241595203303E+01 
    2.2308687142879457E+01 
    8.3574126672307578E+00 
    1.9936194560019558E+01 
    2.2605138413390115E+01 
    1.3325363272755139E+01 
    1.3388276594707197E+01 
    9.0499771081728486E+00 
    1.3036245378375535E+01 
    4.0286976480097563E+00 
    1.1369687020133467E+01 
    1.3018775416357812E+01 
    2.2701418698914736E+01 
    2.2165767890054937E+01 
    2.0129479940353942E+01 
    9.5881834842097362E+00 
    2.0348320678938990E+01 
    9.2845461287275344E-01 
    1.2944890987778331E+01 
    2.1930537816263396E+01 
    2.1470975388925815E+01 
    2.0087095070977604E+01 
    1.4485621881368354E+01 
    2.0096349548776288E+01 
    1.1666537856346057E+01 
    1.1031561285622789E+01 
    1.3339638944542466E+01 
    1.2771424355962207E+01 
    1.1443392941861525E+01 
    1.3451735753031679E+01 
    1.8908567203321560E+01 
    1.6147050803536981E+01 
    9.7289549813234313E+00 
    2.0396683605378151E+01 
    2.0227724977148181E+01 
    1.2600696728664486E+01 
    1.2537622953288359E+01 
    1.2394322218747194E+01 
    2.2401321264628898E+01 
    2.2840987040144299E+01 
    1.1381441661703725E+01 
    1.3338265315378795E+01 
    1.9654570390128654E+01 
    1.5901314157779254E+01 
    1.2586685959223422E+01 
    2.2665005451770632E+01 
    2.0591392990980168E+01 
    1.1192683311360673E+01 
    2.1627288705717451E+01 
    1.3850388055563290E+01 
    2.0019430636127112E+01 
    2.2758590578268677E+01 
    1.3864435405305427E+01 
    7.9196703015326335E+00 
    1.3364623708280517E+01 
    2.2183673557587294E+01 
    2.3024169375208594E+01 
    1.1419258320835016E+01 
    1.3245182355729250E+01 
    2.3015779677527785E+01 
    1.3021294551036311E+01 
    1.2262218972274917E+01 
    1.6660229076942848E+01 
    7.5383500751964068E+00 
    1.1064698942226379E+01 
    1.3244067906412878E+01 
    1.4106628826385382E+01 
    2.5549927639813593E+01 
    9.3855593278385587E+00 
    1.3349739425478036E+01 
    2.0053981946902056E+01 
    2.0827499381726380E+01 
    8.1890769652696171E+00 
    1.2828530175126062E+01 
    1.3288545841989459E+01 
    2.0883850687182985E+01 
    1.3288398632554664E+01 
    2.0723693949759728E+01 
    4.8585911420307273E+00 
    8.4663247591056603E+00 
    1.3667129247287406E+01 
    2.1406391207131271E+01 
    1.1311094264676054E+01 
    1.2271710669390602E+01 
    1.3265774868785748E+01 
    1.2220173569504009E+01 
    1.5552132534510855E+01 
    1.1869336820439832E+01 
    1.1203142676884799E+01 
    8.6439552584492514E+00 
    1.6660528049143682E+01 
    1.3391433596115931E+01 
    2.2280495777522681E+01 
    1.1349219940211947E+01 
    1.2523652885764681E+01 
    2.0601365664802689E+01 
    1.0176361922894651E+01 
    2.1588473586730935E+01 
    1.3133880819215312E+01 
    1.2410268095671823E+01 
    2.0844581923160614E+01 
    1.3382463606560448E+01 
    2.2581948636393985E+01 
    1.6701910516526699E+01 
    1.8573614376468843E+01 
    2.2353910565031068E+01 
    9.4036930373960921E+00 
    1.3695779446615163E+01 
    2.0977257599587066E+01 
    3.6116269542900863E+00 
    1.3413908199523258E+01 
    2.2263975809182124E+01 
    1.2461211972149227E+01 
    1.5061068976550514E+01 
    8.1189398845224030E+00 
    2.0103549075686157E+01 
    2.6309666381926693E+01 
    1.7573276063209615E+01 
    1.2453061653275379E+01 
    1.0924838914272964E+01 
    1.4542202403891290E+01 
    1.3158791278105820E+01 
    8.8092865266329898E+00 
    2.2415646293442233E+01 
    2.0825245507807029E+01 
    2.0060482226978596E+01 
    1.4121647523161776E+01 
    1.1160068473876828E+01 
    1.2913387172265839E+01 
    2.1633810509698765E+01 
    1.1510725431670160E+01 
    1.3218060395499249E+01 
    1.1767581087437726E+01 
    1.6293402514145942E+01 
    2.6292572733294030E+01 
    2.0029736747717511E+01 
    1.1101956811834507E+01 
    2.1260321647579310E+01 
    2.1307645527631205E+01 
    2.1485658626637097E+01 
    2.3502170926771033E+01 
    2.4450945398236900E+01 
    2.1357839708348319E+01 
    1.3326400116297911E+01 
    1.4751959364475963E+01 
    2.0917839773618642E+01 
    2.2156343825998064E+01 
    9.2108013761826619E+00 
    2.0076425095981808E+01 
    2.1510206473069815E+01 
    8.9615368467038508E+00 
    2.3322592423359762E+01 
    2.3306201482555711E+01 
    1.9467005455784058E+01 
    1.3801004340159823E+01 
    3.3283605004309362E+00 
    2.2338776358075105E+01 
    1.3575687962961517E+01 
    2.2876219867981597E+01 
    1.2358840306308668E+01 
    2.1933651640147900E+01 
    1.1628661377044036E+00 
    1.8562647245949698E+01 
    1.2600664490055141E+01 
    1.1095502386218637E+01 
    1.0775507522365402E+01 
    1.3088892546640214E+01 
    1.4916829958545934E+01 
    1.3951742499453728E+01 
    8.7816291301401517E+00 
    2.2220572648473205E+01 
    2.1088521255971276E+01 
    1.6101255202276459E+01 
    1.3653390774924320E+01 
    1.8144930985057937E+00 
    9.8683054505129650E+00 
    6.6978131096956330E+00 
    2.2668735165276082E+01 
    1.5348432756683609E+01 
    2.0709706529126787E+01 
    2.1202357071956182E+01 
    1.1673864019430118E+01 
    1.6273673456572794E+01 
    2.0019543462053957E+01 
    2.3277841723397231E+01 
    8.0874979731754379E+00 
    1.7683687822682487E+01 
    1.3919193885183457E+01 
    7.1506832850488946E+00 
    1.1632152241455515E+01 
    1.7276397945536836E+01 
    2.1142782001462869E+01 
    1.3168329059752896E+01 
    2.1413155257091315E+01 
    2.0799610687737939E+01 
    2.0687724028272299E+01 
    1.2922320414770461E+01 
    1.1053161179381979E+01 
    2.0082278202908686E+01 
    1.1190619103626346E+01 
    1.3295321672517661E+01 
    1.0934886707391946E+01 
    1.3139445048812476E+01 
    2.1195075697368292E+01 
    7.9686837351033422E+00 
    1.1501487889748280E+01 
    2.2335397493908054E+01 
    1.2940663561778180E+01 
    1.5168054490266710E+01 
    8.1746671570659206E+00 
    1.1282751368341509E+01 
    2.0733687748510569E+01 
    2.1540130416739380E+01 
    6.6690312007079502E+00 
    1.2949265810113165E+01 
    1.1009462350950551E+01 
    2.4055660312176247E+01 
    2.3049303899744540E+01 
    2.4515362825824226E+01 
    1.2979552268181417E+01 
    2.1179112823647269E+01 
    1.9905090300555230E+01 
    1.2790926916143672E+01 
    2.0052815514070723E+01 
    1.3653518061806704E+01 
    7.2513277156885279E+00 
    1.3452472315198822E+01 
    2.2475506482790703E+01 
    2.0043933921039965E+01 
    8.6642617597192988E+00 
    2.0094902333521183E+01 
    1.4962002784155478E+01 
    1.3384694774763572E+01 
    1.2591494471718713E+01 
    1.9750632224331156E+01 
    1.4261074223834955E+01 
    2.0084449918367262E+01 
    1.2842066416700465E+01 
    7.5235484936352517E+00 
    1.3396996567129468E+01 
    1.0795421733241396E+01 
    1.7614816931229054E+01 
    2.2647996110300170E+01 
    2.0094092287883566E+01 
    2.2244467533332966E+01 
    1.2864078499903565E+01 
    8.4404515567278811E+00 
    8.5654470094421082E+00 
    1.3696334199574753E+01 
    1.3260881293277574E+01 
    1.8271161073868412E+00 
    1.8964979151837252E+01 
    2.3555645061702688E+01 
    1.2373261802773589E+01 
    7.5729796297012815E+00 
    1.6010589273882228E+01 
    2.0080623780314621E+01 
    9.0755426007752185E+00 
    6.0331139072653155E+00 
    1.3227379614453890E+01 
    2.0324669814108301E+01 
    2.2104116539964696E+01 
    2.1330779299063266E+01 
    2.1574192405209487E+01 
    8.8440721029413556E+00 
    1.3367774771851524E+01 
    1.9430355826339884E+01 
    1.0167271643760849E+01 
    2.0911594782784722E+01 
    1.6679990921815946E+01 
    8.6940500763490789E+00 
    2.0185823557712727E+01 
    2.2606429058726768E+01 
    2.0504078508198141E+01 
    8.7235724883868659E+00 
    1.3332794662369462E+01 
    9.6427993980066216E+00 
    1.2524330865423536E+01 
    2.0076081027683028E+01 
    2.0057590005558172E+01 
    8.7753662792486686E+00 
    2.1966400535537861E+01 
    1.4199978277086625E+01 
    2.0213829462405059E+01 
    2.2296237940881092E+01 
    2.0141499780586116E+01 
    1.8016198640594656E+01 
    2.4186780856070850E+01 
    1.2324134763515548E+01 
    2.2166223196959880E+01 
    2.0213236910181774E+01 
    2.2377142194719585E+01 
    2.1920202368018323E+01 
    1.2475473439828404E+01 
    1.3078745252133183E+01 
    1.2356940297871816E+01 
    1.7057320014551340E+01 
    4.8816877226827673E+00 
    1.3588891565497917E+01 
    2.4389231691335105E+01 
    1.3662272696610401E+01 
    1.3984085725445693E+01 
    2.2307311139527293E+01 
    2.2789243094857440E+01 
    1.2273737942027919E+01 
    2.0098531087293185E+01 
    2.0066548508090410E+01 
    1.3962352931622338E+01 
    2.1797007677121321E+01 
    9.1573956465387401E+00 
    5.8025341242923352E+00 
    1.4452061976854127E+01 
    1.3681971429882575E+01 
    2.0035725647869818E+01 
    8.1680730649619289E+00 
    2.1145650788911681E+01 
    5.9166065930005267E+00 
    1.3586341955782387E+01 
    1.2595973242535033E+01 
    1.3299173930384814E+01 
    2.6362197253132891E+01 
    4.7349970379716524E+00 
    1.3445522165784284E+01 
    1.7083091160665607E+01 
    1.2721658050525606E+01 
    9.7317171232890924E+00 
    2.1429884065336196E+01 
    2.5673076026854009E+01 
    2.1961669704248902E+01 
    1.3347911927352333E+01 
    7.1079413720438973E+00 
    2.5502385713674691E+01 
    2.0996205092448321E+01 
    9.2863090911041031E+00 
    1.2686479497451966E+01 
    2.3466106003192472E+01 
    4.0134716402546324E+00 
    1.3771441423462521E+01 
    2.2061312147276993E+01 
    1.3318212001378708E+01 
    1.1468901518420532E+01 
    1.3514318982395553E+01 
    1.9601462726301982E+01 
    1.3291040236540415E+01 
    6.2906587003359533E+00 
    1.1484432057666967E+00 
    9.6476362339328450E+00 
    2.3905537457762637E+01 
    1.2354210645130092E+01 
    1.5675225656825852E+01 
    1.4799650874557639E+01 
    1.7771461448803443E+01 
    1.3337357868375731E+01 
    2.0751213117778455E+01 
    2.6381341318279055E+01 
    1.6515037725778935E+01 
    2.2091376402030981E+01 
    6.6962103417193508E-01 
    2.0056410143873311E+01 
    7.0141952649703700E+00 
    2.4659320571783383E+01 
    1.3469090705044236E+01 
    1.1660458939623011E+01 
    9.8483299623438132E+00 
    6.6268528727212370E+00 
    1.5259767753583203E+01 
    1.0267988597843603E+01 
    1.7416817274950503E+01 
    2.7922827123072476E+00 
    1.5026819097839807E+01 
    1.9889759407491255E+01 
    7.7610765533561530E+00 
    2.1060104851447161E+01 
    2.4087481971900033E+01 
    2.0864134594338434E+01 
    1.3249088290765288E+01 
    1.3291669796389204E+01 
    1.3456415921202270E+01 
    7.2069369547191178E+00 
    1.1929765276056525E+01 
    1.1688334030864908E+01 
    1.3437598171578694E+01 
    1.2256315861546886E+01 
    8.5874682108867639E-01 
    8.0883063626327836E+00 
    1.2878440579126826E+01 
    1.3396556983100231E+01 
    1.8076411854518984E+01 
    2.6217086473873148E+00 
    1.3892620828121238E+01 
    1.3694093438466005E+01 
    4.5504059577446805E+00 
    2.0520038479916728E+01 
    1.1238588344543544E+01 
    1.3484816319072809E+01 
    2.0925134881467038E+01 
    6.6467834840747377E+00 
    2.0712355512334227E+01 
    1.1376693261898627E+01 
    1.1801222849149406E+00 
    1.2451445979032282E+01 
    2.2152365137244544E+01 
    2.0071831702254777E+01 
    2.0120986823039956E+01 
    1.4054389455822889E+01 
    1.3590442404388480E+01 
    1.1193972953586883E+01 
    8.8282930489711955E+00 
    2.1100857039850574E+01 
    1.2680436913358241E+01 
    8.5911054440194334E+00 
    2.0099996487922247E+01 
    2.1746975539445419E+01 
    1.3733016835810970E+01 
    1.3009692957483662E+01 
    2.6208543024871098E+01 
    1.3964026752110417E+01 
    2.1257490280870851E+01 
    1.0571204894428829E+01 
    2.6414967847211091E+01 
    8.5152946580521025E+00 
    1.1876317239557435E+01 
    9.5858324642395303E+00 
    1.4366633850012605E+01 
    1.1118098120027563E+01 
    2.6394053656197254E+01 
    1.4047564437603342E+01 
    1.9586085258477159E+01 
    8.7601133383328786E+00 
    1.3332498867575396E+01 
    2.0942714959427995E+01 
    1.1156528210557582E+01 
    9.2062802936885522E+00 
    1.5476537123410052E+01 
    2.1007285341173439E+01 
    9.4583302676246550E+00 
    1.2625475340749439E+01 
    1.3055005167139818E+01 
    2.0013778929356850E+01 
    1.2761457735444615E+01 
    2.1494624743957967E+01 
    2.2459750785521035E+01 
    1.1224844826353447E+01 
    1.0976375671458152E+01 
    1.0336148801895192E+01 
    2.0274312344501979E+01 
    1.3706449975183853E+01 
    2.5733925940542349E+01 
    1.8295176297731526E+01 
    2.0793341766095278E+01 
    2.5301718530572401E+01 
    2.4093849425791795E+01 
    1.3398751227945661E+01 
    1.3412557281914077E+01 
    1.9485444332189431E+01 
    2.0122521469482301E+01 
    2.1428900939686010E+01 
    2.1014203675025644E+01 
    2.6244099249014294E+01 
    1.3963185483943466E+01 
    1.1389554359525576E+01 
    1.3905699758308954E+01 
    2.2200231963686488E+01 
    1.3537992052340064E+01 
    7.5674870281250044E+00 
    1.3222895699811252E+01 
    2.3412553476804863E+01 
    1.3754494813118026E+01 
    1.1387520937532329E+01 
    1.2967473404078770E+01 
    2.3622687396956934E+01 
    2.0489375039581940E+01 
    1.0746471098401079E+01 
    2.3855378489618747E+01 
    1.3440751352776319E+01 
    2.1695621031471209E+01 
    2.3617822777665900E+01 
    1.4434749206844170E+01 
    6.6605760787701289E+00 
    1.5222012879884231E+01 
    6.8980782005001808E+00 
    1.3611015504932434E+01 
    1.3320689535825363E+01 
    1.6337212346569977E+01 
    7.3140611434493321E+00 
    1.7756881417337688E+01 
    1.3349567400344707E+01 
    2.1007661862911736E+01 
    1.4608147633839980E+01 
    1.0462514821525341E+01 
    1.2780829452792243E+01 
    1.4320711991115900E+01 
    1.4143335170342501E+01 
    2.2820361087574661E+01 
    1.0798753973184073E+01 
    1.0590166945733566E+01 
    7.7160551916220257E+00 
    2.1568059511027982E+01 
    1.2842173950697749E+01 
    2.0019691809696226E+01 
    1.3278132320494057E+01 
    8.4925300429509978E+00 
    2.0511453238059900E+01 
    1.3242358502633454E+01 
    9.3270781863127326E+00 
    9.9329468885246524E+00 
    1.0318279646700992E+01 
    2.1038278759602523E+01 
    1.3440933789654043E+01 
    2.2117833119349452E+01 
    1.3182099688145994E+01 
    1.3091607023118929E+01 
    1.2490148311702947E+01 
    2.0686836304179799E+01 
    1.2970224039790288E+01 
    1.0369780345401592E+01 
    2.4097936410512187E+01 
    2.0848129663986448E+01 
    8.9318943144146896E+00 
    3.3105329418357186E+00 
    1.3422530371847573E+01 
    1.2383543411386102E+01 
    1.0963895222072974E+01 
    1.2179028176159058E+01 
    2.0408509817482560E+01 
    1.2947782432371065E+01 
    1.1493578682726609E+01 
    2.0167093389239298E+01 
    8.8519068636178027E+00 
    1.9421854475011283E+01 
    1.1937306715665079E+01 
    1.0289872174195750E+01 
    1.1090781866227582E+01 
    2.1880591122796513E+01 
    1.3303478594419834E+01 
    1.3315083000201410E+01 
    7.4320167354077515E+00 
    8.0799234782801523E+00 
    1.8232688914691185E+01 
    1.3329210612768764E+01 
    1.3491071172924324E+01 
    2.3853465698929046E+01 
    1.0596032101162537E+01 
    1.3346952155002423E+01 
    9.1798832967623429E+00 
    9.4952608756269434E+00 
    2.0607789009939939E+01 
    1.2807177681278793E+01 
    8.9693318973700507E+00 
    1.4122200752988416E+01 
    1.3164264545748543E+01 
    2.0642075847311833E+01 
    2.4015741751690069E+01 
    1.2473282346881511E+00 
    1.3430722632299453E+01 
    1.3680184817776952E+01 
    2.0820322892387782E+01 
    1.2567609835657642E+01 
    1.3265820484153629E+01 
    2.2811318564278146E+01 
    1.1126752195416554E+01 
    9.0543582277219574E+00 
    1.6861236058376591E+01 
    2.0092317086128194E+01 
    2.2343444749698612E+01 
    2.3218905446476587E+01 
    1.3168615510047776E+01 
    1.3417355317165104E+01 
    1.5345459852144824E+01 
    8.4647569815318935E+00 
    2.0310379665445936E+01 
    9.8088618339820250E+00 
    8.8345467693795108E+00 
    1.7720586038965912E+01 
    1.6341815200595509E+01 
    8.6546788828382866E+00 
    2.0154616504152948E+01 
    2.2315747996422704E+01 
    1.3990631877792374E+01 
    2.4198603755127699E+01 
    2.0209280967187279E+01 
    1.2707321161791711E+01 
    2.1636986209590606E+01 
    9.4936758857676331E+00 
    2.0109367244213114E+01 
    1.3429345454076984E+01 
    1.3360644309640197E+01 
    2.4173906658893038E+01 
    1.2892739411312599E+01 
    1.7225034997351873E+01 
    1.1058711422473985E+01 
    2.2657884681021116E+01 
    1.9913438598895645E+01 
    1.1609380814427549E+01 
    2.0085909772528574E+01 
    1.1929316259415359E+01 
    1.3279486379822746E+01 
    2.2210760066534966E+01 
    2.0913808403882360E+01 
    2.2321170634925508E+01 
    2.0820486184635904E+01 
    1.1957918377752463E+01 
    1.2325171577166083E+01 
    2.2349164160668558E+01 
    1.2520952831025818E+01 
    1.9707787975345997E+01 
    1.2875687450549922E+01 
    4.9319262402627047E+00 
    8.9380316026191426E+00 
    8.2593019647677473E+00 
    2.2216779283501406E+01 
    2.4035957809466755E+01 
    2.0097742045671804E+01 
    1.5925599938453738E+01 
    2.0619033668727532E+01 
    2.0156536829260570E+01 
    2.1373154217737554E+01 
    7.1561670967573043E+00 
    4.5809418097106080E+00 
    1.5539868226009377E+01 
    1.2830365559716178E+01 
    2.0428816309526969E+01 
    2.0426569060578821E+01 
    1.3708998378374808E+01 
    2.0492334463706065E+01 
    1.3408022926931878E+01 
    1.3222993520504360E+01 
    6.4285656673706226E+00 
    4.5540795684334734E+00 
    2.3611672317847283E+01 
    1.0137681714323655E+01 
    1.1515461772008294E+01 
    1.3556242354442242E+01 
    2.6216294186168142E+01 
    1.3695136778482262E+01 
    1.3905764393707793E+01 
    5.2504794920910181E+00 
    1.3694892409679481E+01 
    1.3716516006490028E+01 
    2.1096248552546584E+01 
    1.1103755139741542E+01 
    1.2670315143342581E+01 
    2.3923619630044467E+01 
    1.3444584602243378E+01 
    2.0118311371849956E+01 
    2.0591283838230037E+01 
    1.7332369787202911E+01 
    1.1110821161052659E+01 
    2.0810399309116054E+01 
    1.3084907008668782E+01 
    2.0499736467792211E+01 
    1.9981278620977310E+01 
    2.2270414198619196E+01 
    2.0848624056694117E+01 
    1.8603324840366781E+01 
    1.3426280218304065E+01 
    8.5913148705647071E+00 
    2.6033832713642106E+01 
    1.0031655951436859E+01 
    2.2463767636183292E+01 
    1.3421815660975524E+01 
    1.0682238778794428E+01 
    6.2309045788175013E+00 
    1.3773018078880753E+01 
    2.0792623709591794E+01 
    2.0759400218974971E+01 
    1.3251821773067341E+01 
    1.3411751396215088E+01 
    2.4249742980115386E+01 
    2.3093130062968427E+01 
    1.3726142041849105E+01 
    4.2632957623545034E+00 
    1.8433273340744787E+01 
    2.6385617283387774E+01 
    1.3432016775406337E+01 
    1.6599579149866948E+01 
    1.2561204109197808E+01 
    2.5817879981333157E+01 
    2.3233392922008672E+01 
    2.2595155525964707E+01 
    1.3760982714893709E+01 
    5.8420926020235218E+00 
    1.2493563095050362E+01 
    1.2603667765885481E+01 
    1.2685056093896389E+01 
    4.6772339739477200E+00 