# vtk DataFile Version 2.0
Pressure Field Data 
ASCII 
DATASET UNSTRUCTURED_GRID 

POINTS 2860 double 

    0.0000000000000000E+00     0.0000000000000000E+00     0.0000000000000000E+00 
    1.0000000000000000E+00     0.0000000000000000E+00     0.0000000000000000E+00 
    1.0000000000000000E+00     1.0000000000000000E+00     0.0000000000000000E+00 
    0.0000000000000000E+00     1.0000000000000000E+00     0.0000000000000000E+00 
    2.5000000000000000E-01     2.5000000000000000E-01     0.0000000000000000E+00 
    7.5000000000000000E-01     2.5000000000000000E-01     0.0000000000000000E+00 
    7.5000000000000000E-01     7.5000000000000000E-01     0.0000000000000000E+00 
    2.5000000000000000E-01     7.5000000000000000E-01     0.0000000000000000E+00 
    3.1249999999942091E-02     0.0000000000000000E+00     0.0000000000000000E+00 
    6.2499999999873469E-02     0.0000000000000000E+00     0.0000000000000000E+00 
    9.3749999999826514E-02     0.0000000000000000E+00     0.0000000000000000E+00 
    1.2499999999977961E-01     0.0000000000000000E+00     0.0000000000000000E+00 
    1.5624999999968961E-01     0.0000000000000000E+00     0.0000000000000000E+00 
    1.8749999999959971E-01     0.0000000000000000E+00     0.0000000000000000E+00 
    2.1874999999950970E-01     0.0000000000000000E+00     0.0000000000000000E+00 
    2.4999999999941969E-01     0.0000000000000000E+00     0.0000000000000000E+00 
    2.8124999999932920E-01     0.0000000000000000E+00     0.0000000000000000E+00 
    3.1249999999923850E-01     0.0000000000000000E+00     0.0000000000000000E+00 
    3.4374999999914790E-01     0.0000000000000000E+00     0.0000000000000000E+00 
    3.7499999999905720E-01     0.0000000000000000E+00     0.0000000000000000E+00 
    4.0624999999896660E-01     0.0000000000000000E+00     0.0000000000000000E+00 
    4.3749999999887590E-01     0.0000000000000000E+00     0.0000000000000000E+00 
    4.6874999999878530E-01     0.0000000000000000E+00     0.0000000000000000E+00 
    4.9999999999869471E-01     0.0000000000000000E+00     0.0000000000000000E+00 
    5.3124999999877620E-01     0.0000000000000000E+00     0.0000000000000000E+00 
    5.6249999999885780E-01     0.0000000000000000E+00     0.0000000000000000E+00 
    5.9374999999893940E-01     0.0000000000000000E+00     0.0000000000000000E+00 
    6.2499999999902101E-01     0.0000000000000000E+00     0.0000000000000000E+00 
    6.5624999999910261E-01     0.0000000000000000E+00     0.0000000000000000E+00 
    6.8749999999918421E-01     0.0000000000000000E+00     0.0000000000000000E+00 
    7.1874999999926570E-01     0.0000000000000000E+00     0.0000000000000000E+00 
    7.4999999999934730E-01     0.0000000000000000E+00     0.0000000000000000E+00 
    7.8124999999942890E-01     0.0000000000000000E+00     0.0000000000000000E+00 
    8.1249999999951039E-01     0.0000000000000000E+00     0.0000000000000000E+00 
    8.4374999999959199E-01     0.0000000000000000E+00     0.0000000000000000E+00 
    8.7499999999967359E-01     0.0000000000000000E+00     0.0000000000000000E+00 
    9.0624999999975520E-01     0.0000000000000000E+00     0.0000000000000000E+00 
    9.3749999999983680E-01     0.0000000000000000E+00     0.0000000000000000E+00 
    9.6874999999991840E-01     0.0000000000000000E+00     0.0000000000000000E+00 
    1.0000000000000000E+00     3.1249999999942091E-02     0.0000000000000000E+00 
    1.0000000000000000E+00     6.2499999999873469E-02     0.0000000000000000E+00 
    1.0000000000000000E+00     9.3749999999826514E-02     0.0000000000000000E+00 
    1.0000000000000000E+00     1.2499999999977961E-01     0.0000000000000000E+00 
    1.0000000000000000E+00     1.5624999999968961E-01     0.0000000000000000E+00 
    1.0000000000000000E+00     1.8749999999959971E-01     0.0000000000000000E+00 
    1.0000000000000000E+00     2.1874999999950970E-01     0.0000000000000000E+00 
    1.0000000000000000E+00     2.4999999999941969E-01     0.0000000000000000E+00 
    1.0000000000000000E+00     2.8124999999932920E-01     0.0000000000000000E+00 
    1.0000000000000000E+00     3.1249999999923850E-01     0.0000000000000000E+00 
    1.0000000000000000E+00     3.4374999999914790E-01     0.0000000000000000E+00 
    1.0000000000000000E+00     3.7499999999905720E-01     0.0000000000000000E+00 
    1.0000000000000000E+00     4.0624999999896660E-01     0.0000000000000000E+00 
    1.0000000000000000E+00     4.3749999999887590E-01     0.0000000000000000E+00 
    1.0000000000000000E+00     4.6874999999878530E-01     0.0000000000000000E+00 
    1.0000000000000000E+00     4.9999999999869471E-01     0.0000000000000000E+00 
    1.0000000000000000E+00     5.3124999999877620E-01     0.0000000000000000E+00 
    1.0000000000000000E+00     5.6249999999885780E-01     0.0000000000000000E+00 
    1.0000000000000000E+00     5.9374999999893940E-01     0.0000000000000000E+00 
    1.0000000000000000E+00     6.2499999999902101E-01     0.0000000000000000E+00 
    1.0000000000000000E+00     6.5624999999910261E-01     0.0000000000000000E+00 
    1.0000000000000000E+00     6.8749999999918421E-01     0.0000000000000000E+00 
    1.0000000000000000E+00     7.1874999999926570E-01     0.0000000000000000E+00 
    1.0000000000000000E+00     7.4999999999934730E-01     0.0000000000000000E+00 
    1.0000000000000000E+00     7.8124999999942890E-01     0.0000000000000000E+00 
    1.0000000000000000E+00     8.1249999999951039E-01     0.0000000000000000E+00 
    1.0000000000000000E+00     8.4374999999959199E-01     0.0000000000000000E+00 
    1.0000000000000000E+00     8.7499999999967359E-01     0.0000000000000000E+00 
    1.0000000000000000E+00     9.0624999999975520E-01     0.0000000000000000E+00 
    1.0000000000000000E+00     9.3749999999983680E-01     0.0000000000000000E+00 
    1.0000000000000000E+00     9.6874999999991840E-01     0.0000000000000000E+00 
    9.6875000000003686E-01     1.0000000000000000E+00     0.0000000000000000E+00 
    9.3750000000011691E-01     1.0000000000000000E+00     0.0000000000000000E+00 
    9.0625000000015765E-01     1.0000000000000000E+00     0.0000000000000000E+00 
    8.7500000000017863E-01     1.0000000000000000E+00     0.0000000000000000E+00 
    8.4375000000028044E-01     1.0000000000000000E+00     0.0000000000000000E+00 
    8.1250000000040856E-01     1.0000000000000000E+00     0.0000000000000000E+00 
    7.8125000000054956E-01     1.0000000000000000E+00     0.0000000000000000E+00 
    7.5000000000066480E-01     1.0000000000000000E+00     0.0000000000000000E+00 
    7.1875000000086831E-01     1.0000000000000000E+00     0.0000000000000000E+00 
    6.8750000000102829E-01     1.0000000000000000E+00     0.0000000000000000E+00 
    6.5625000000114431E-01     1.0000000000000000E+00     0.0000000000000000E+00 
    6.2500000000129829E-01     1.0000000000000000E+00     0.0000000000000000E+00 
    5.9375000000147926E-01     1.0000000000000000E+00     0.0000000000000000E+00 
    5.6250000000168354E-01     1.0000000000000000E+00     0.0000000000000000E+00 
    5.3125000000188671E-01     1.0000000000000000E+00     0.0000000000000000E+00 
    5.0000000000205835E-01     1.0000000000000000E+00     0.0000000000000000E+00 
    4.6875000000192979E-01     1.0000000000000000E+00     0.0000000000000000E+00 
    4.3750000000180111E-01     1.0000000000000000E+00     0.0000000000000000E+00 
    4.0625000000167238E-01     1.0000000000000000E+00     0.0000000000000000E+00 
    3.7500000000154382E-01     1.0000000000000000E+00     0.0000000000000000E+00 
    3.4375000000141509E-01     1.0000000000000000E+00     0.0000000000000000E+00 
    3.1250000000128642E-01     1.0000000000000000E+00     0.0000000000000000E+00 
    2.8125000000115769E-01     1.0000000000000000E+00     0.0000000000000000E+00 
    2.5000000000102918E-01     1.0000000000000000E+00     0.0000000000000000E+00 
    2.1875000000090050E-01     1.0000000000000000E+00     0.0000000000000000E+00 
    1.8750000000077180E-01     1.0000000000000000E+00     0.0000000000000000E+00 
    1.5625000000064329E-01     1.0000000000000000E+00     0.0000000000000000E+00 
    1.2500000000051459E-01     1.0000000000000000E+00     0.0000000000000000E+00 
    9.3750000000385914E-02     1.0000000000000000E+00     0.0000000000000000E+00 
    6.2500000000257239E-02     1.0000000000000000E+00     0.0000000000000000E+00 
    3.1250000000128557E-02     1.0000000000000000E+00     0.0000000000000000E+00 
    0.0000000000000000E+00     9.6875000000003686E-01     0.0000000000000000E+00 
    0.0000000000000000E+00     9.3750000000011691E-01     0.0000000000000000E+00 
    0.0000000000000000E+00     9.0625000000015765E-01     0.0000000000000000E+00 
    0.0000000000000000E+00     8.7500000000017863E-01     0.0000000000000000E+00 
    0.0000000000000000E+00     8.4375000000028044E-01     0.0000000000000000E+00 
    0.0000000000000000E+00     8.1250000000040856E-01     0.0000000000000000E+00 
    0.0000000000000000E+00     7.8125000000054956E-01     0.0000000000000000E+00 
    0.0000000000000000E+00     7.5000000000066480E-01     0.0000000000000000E+00 
    0.0000000000000000E+00     7.1875000000086831E-01     0.0000000000000000E+00 
    0.0000000000000000E+00     6.8750000000102829E-01     0.0000000000000000E+00 
    0.0000000000000000E+00     6.5625000000114431E-01     0.0000000000000000E+00 
    0.0000000000000000E+00     6.2500000000129829E-01     0.0000000000000000E+00 
    0.0000000000000000E+00     5.9375000000147926E-01     0.0000000000000000E+00 
    0.0000000000000000E+00     5.6250000000168354E-01     0.0000000000000000E+00 
    0.0000000000000000E+00     5.3125000000188671E-01     0.0000000000000000E+00 
    0.0000000000000000E+00     5.0000000000205835E-01     0.0000000000000000E+00 
    0.0000000000000000E+00     4.6875000000192979E-01     0.0000000000000000E+00 
    0.0000000000000000E+00     4.3750000000180111E-01     0.0000000000000000E+00 
    0.0000000000000000E+00     4.0625000000167238E-01     0.0000000000000000E+00 
[...]
CELL_DATA 2795 
SCALARS Pressure double 1 
LOOKUP_TABLE default 

    5.7784475579688328E+00 
    1.3284275428753190E+01 
    9.3835475793948575E+00 
    8.9853265576273049E+00 
    7.1226257710322054E+00 
    1.3166766184017581E+01 
    1.3845489799051348E+01 
    5.1553515205857279E+00 
    9.9289023962139566E+00 
    7.5834140674597679E+00 
    6.4578982936472107E+00 
    1.2929051890108612E+01 
    1.3194425987081610E+01 
    1.3137944786885976E+01 
    8.6572823470622104E+00 
    5.0686617464720793E+00 
    8.2572559728322421E+00 
    6.8819497345283178E+00 
    1.2593850350395600E+01 
    9.3743776673705845E+00 
    9.2685123707380548E+00 
    1.3077719250440078E+01 
    8.7352361752066532E+00 
    3.3889087742895341E-01 
    1.2918545857571342E+01 
    1.3169174520065129E+01 
    1.3875182805415488E+01 
    6.2069786906902467E+00 
    1.2855285548759099E+01 
    1.3871758798248978E+01 
    9.4243085644917723E+00 
    9.6042128775069031E+00 
    6.7086973453487238E+00 
    9.3453627249524267E+00 
    2.9894085271455531E+00 
    8.2622731992947731E+00 
    9.3354558403531787E+00 
    1.3909762642782406E+01 
    1.3824197932213906E+01 
    1.2941031510263365E+01 
    7.0548384474873984E+00 
    1.2894106718663872E+01 
    7.0581213411634658E-01 
    9.2195012490548631E+00 
    1.3649432658442018E+01 
    1.3491602702491434E+01 
    1.2919109417161073E+01 
    1.0256140038268043E+01 
    1.2986894971826025E+01 
    8.4513208455918463E+00 
    8.0439566005643570E+00 
    9.5706601605944535E+00 
    9.1117346891401247E+00 
    8.3058148857502907E+00 
    9.4928282461383482E+00 
    1.2399850140594113E+01 
    1.1192723227837384E+01 
    7.1616158846757241E+00 
    1.3081323192510025E+01 
    1.3010090795764905E+01 
    8.9896265999439890E+00 
    9.0217344126009404E+00 
    8.8935398272130577E+00 
    1.3779329800863115E+01 
    1.4019664985986596E+01 
    8.2668636698024525E+00 
    9.5685935449504651E+00 
    1.2836354445287196E+01 
    1.0991185898007643E+01 
    9.0618674533804047E+00 
    1.4026603133616328E+01 
    1.3020963808751111E+01 
    8.1484061919794577E+00 
    1.3584811747230841E+01 
    9.7298843148813727E+00 
    1.2778674359208217E+01 
    1.3919862756789374E+01 
    9.7116033805325124E+00 
    5.8914624160973350E+00 
    9.5876290231193906E+00 
    1.3832356217861401E+01 
    1.4057035400394673E+01 
    8.2757761685474716E+00 
    9.4965789221959458E+00 
    1.4097401222051628E+01 
    9.3390324854229068E+00 
    8.8155868972770008E+00 
    1.1374622558329580E+01 
    5.6175977700183513E+00 
    8.0655633761663736E+00 
    9.4960128003749951E+00 
    1.0063335559269575E+01 
    1.5515513684947965E+01 
    6.9191600641639495E+00 
    9.5767233834007008E+00 
    1.2898612913228638E+01 
    1.3149032336548787E+01 
    6.0818661425268319E+00 
    9.2131039587502546E+00 
    9.5266726848430068E+00 
    1.3168124979908889E+01 
    9.5308233898884307E+00 
    1.3104509114549092E+01 
    3.6936576997145907E+00 
    6.2779076370724312E+00 
    9.7997484162108517E+00 
    1.3292403469863675E+01 
    8.2284317072664006E+00 
    8.7831967548028533E+00 
    9.5175150801839052E+00 
    8.7843174937576673E+00 
    1.0828711683253589E+01 
    8.5370103953013228E+00 
    8.1564997950900171E+00 
    6.3988238268938558E+00 
    1.1115123143033413E+01 
    9.6039208272073946E+00 
    1.3696351110184203E+01 
    8.2354139048013586E+00 
    8.9694399874297428E+00 
    1.3010565797968205E+01 
    7.4595428947235805E+00 
    1.3432271165857198E+01 
    9.4168468555829712E+00 
    8.9016314048672509E+00 
    1.3150981085319511E+01 
    9.6012820388026476E+00 
    1.3928226348984460E+01 
    1.1385168420145673E+01 
    1.2260395746973961E+01 
    1.3891067885812808E+01 
    6.9334123392937927E+00 
    9.8196292980711295E+00 
    1.3153367091504768E+01 
    2.7703814028536091E+00 
    9.4717804988651437E+00 
    1.3859335360842184E+01 
    8.9302005074986877E+00 
    1.0323748944172108E+01 
    6.0293004434622741E+00 
    1.2897296380179624E+01 
    1.5997596744503740E+01 
    1.1818384706307127E+01 
    8.9278179326818279E+00 
    7.9714674748431005E+00 
    1.0174019245289861E+01 
    9.4340785200761648E+00 
    6.5266581733475286E+00 
    1.3887273890940833E+01 
    1.3243335647909817E+01 
    1.2900210638011750E+01 
    1.0065563969386403E+01 
    8.1214617796120177E+00 
    9.2674109572555956E+00 
    1.3610690768859003E+01 
    8.3581034561208352E+00 
    9.3695349920353692E+00 
    8.5125574980409056E+00 
    1.0875458624185461E+01 
    1.5985985313209753E+01 
    1.2892318274281712E+01 
    8.0760446727716442E+00 
    1.3331100560233741E+01 
    1.3253868253279196E+01 
    1.3329370622116080E+01 
    1.4288605876340169E+01 
    1.4811956602580995E+01 
    1.3489365093059304E+01 
    9.5599066107786896E+00 
    1.0203223962591078E+01 
    1.3326234373255659E+01 
    1.3706411803073088E+01 
    6.8150340315459079E+00 
    1.2918740681715329E+01 
    1.3574854515823009E+01 
    6.6343365081358137E+00 
    1.4203158201081274E+01 
    1.4192595788508195E+01 
    1.2658634387478216E+01 
    9.8808274100804141E+00 
    2.4306312288518157E+00 
    1.3860015571910266E+01 
    9.7423550612433445E+00 
    1.3977013439310532E+01 
    8.8648926924591489E+00 
    1.3703820641087766E+01 
    8.6364555207596583E-01 
    1.2278154844166721E+01 
    9.0649394428607533E+00 
    8.0830684157544006E+00 
    7.8740192025315352E+00 
    9.3872193013793268E+00 
    1.0506505202323357E+01 
    9.7373474962231015E+00 
    6.4946402140407171E+00 
    1.3702231841872248E+01 
    1.3176661886041948E+01 
    1.1109042601461178E+01 
    9.7931125615924532E+00 
    1.4164804632900327E+00 
    7.2579446083729122E+00 
    5.0085851267362633E+00 
    1.3882607240753565E+01 
    1.0661828529294914E+01 
    1.3228545467120753E+01 
    1.3238785903860235E+01 
    8.4307069562345731E+00 
    1.1155097927781259E+01 
    1.2896051845942399E+01 
    1.4175659792832947E+01 
    6.0074090438973666E+00 
    1.1639207836615185E+01 
    9.7713585948588264E+00 
    5.3431796963603269E+00 
    8.4242578874924803E+00 
    1.1642624918554368E+01 
    1.3203049310469432E+01 
    9.4421254114885453E+00 
    1.3307857859940832E+01 
    1.3085701782066010E+01 
    1.3038103465481967E+01 
    9.2740673139595433E+00 
    8.0276133606702373E+00 
    1.2907765878835605E+01 
    8.1439142011667442E+00 
    9.5349710121886027E+00 
    7.9803905181792185E+00 
    9.3157161407380773E+00 
    1.3247055928981000E+01 
    5.9013025652320898E+00 
    8.3384137714825748E+00 
    1.3799294337607853E+01 
    9.2875157502069925E+00 
    1.0551962233385950E+01 
    6.0555869491553560E+00 
    8.2030400837787649E+00 
    1.3065014530253864E+01 
    1.3360801368998754E+01 
    4.9313006431600019E+00 
    9.2907822412125860E+00 
    8.0184525731451046E+00 
    1.4583946655724663E+01 
    1.4064577403770766E+01 
    1.4837610401600218E+01 
    9.3110843296384616E+00 
    1.3222227932177313E+01 
    1.2856425861289642E+01 
    9.1885310742578117E+00 
    1.2900512284675152E+01 
    9.7940956829331327E+00 
    5.4124248046619297E+00 
    9.5193099344540322E+00 
    1.3787365475318571E+01 
    1.2897529111247126E+01 
    6.4240416303193015E+00 
    1.2925235814968858E+01 
    1.0500548571055106E+01 
    9.4533049868926664E+00 
    9.0046971142254115E+00 
    1.2773644570029749E+01 
    1.0007320355789703E+01 
    1.2912685564231971E+01 
    9.1616192874632265E+00 
    5.6102055196351728E+00 
    9.6045244136112604E+00 
    7.8826210069932339E+00 
    1.1819554695101939E+01 
    1.3974112902625087E+01 
    1.2906347747769709E+01 
    1.3853087070435405E+01 
    9.2378414385007872E+00 
    6.2541445695128690E+00 
    6.3439231534247318E+00 
    9.6425881754345095E+00 
    9.5111982186347444E+00 
    1.3431859975326950E+00 
    1.2447327842246912E+01 
    1.4316018023324894E+01 
    8.8768174587154931E+00 
    5.6420529456984783E+00 
    1.0832481369220480E+01 
    1.2923922464796727E+01 
    6.7039471454516439E+00 
    4.5410097290156184E+00 
    9.4838883856795899E+00 
    1.3013449200091484E+01 
    1.3611381037499259E+01 
    1.3505939974113760E+01 
    1.3364705399600727E+01 
    6.5382361035508181E+00 
    9.4463148419934893E+00 
    1.2466472093933184E+01 
    7.4436905844834937E+00 
    1.3182241011496910E+01 
    1.1370167739706734E+01 
    6.4422414039001108E+00 
    1.3026652047699075E+01 
    1.3876795472505011E+01 
    1.3030608759617873E+01 
    6.4530919796442037E+00 
    9.5644875480878380E+00 
    7.0983905456714496E+00 
    9.0212161369500716E+00 
    1.2915878453976644E+01 
    1.2904802740741196E+01 
    6.4910597778158001E+00 
    1.3741384876503485E+01 
    1.0089710018059071E+01 
    1.2940156159187731E+01 
    1.3712403828958339E+01 
    1.2925369171572756E+01 
    1.2047865758192756E+01 
    1.4635353098581362E+01 
    8.8379549963342292E+00 
    1.3824185755250875E+01 
    1.2969376161170549E+01 
    1.3893088188594232E+01 
    1.3734947345840656E+01 
    8.9328746849425507E+00 
    9.3760927974663968E+00 
    8.8675226329245991E+00 
    1.1589440196125047E+01 
    3.7049694043095287E+00 
    9.5717698000451854E+00 
    1.4758325475971281E+01 
    9.7955909373469758E+00 
    9.9728601001881092E+00 
    1.3867322985053784E+01 
    1.4089719858279480E+01 
    8.7831014379444827E+00 
    1.2929300708385600E+01 
    1.2901298556684424E+01 
    9.9611852461893555E+00 
    1.3692307179808617E+01 
    6.7685591178179427E+00 
    4.2891937964090463E+00 
    1.0226820147689557E+01 
    9.8095077736419523E+00 
    1.2906974531155981E+01 
    6.0650621839457592E+00 
    1.3425933525023273E+01 
    4.3669697338178519E+00 
    9.7444044793791562E+00 
    8.9785650316759522E+00 
    9.5392419604385186E+00 
    1.6036977004080288E+01 
    3.6006933314426344E+00 
    9.4892369726608568E+00 
    1.1304098660884005E+01 
    9.1437428597024812E+00 
    7.1502311747843574E+00 
    1.3535001244304491E+01 
    1.5601458271058194E+01 
    1.3674404929795752E+01 
    9.4312207622706321E+00 
    5.3150809144972904E+00 
    1.5457825658107641E+01 
    1.3165624733013658E+01 
    6.8517388572962705E+00 
    9.0663741537736851E+00 
    1.4272993781129363E+01 
    3.0614287661362707E+00 
    9.8569858143729387E+00 
    1.3643230078603692E+01 
    9.5533790273080967E+00 
    8.3148115180557021E+00 
    9.5285784326100131E+00 
    1.2676561801787040E+01 
    9.5320565533376360E+00 
    4.7329731520033436E+00 
    8.3427798369864581E-01 
    7.0941442902404539E+00 
    1.4481522674411577E+01 
    8.8669565581960601E+00 
    1.0847766093318779E+01 
    1.0332139448893782E+01 
    1.1887873208692199E+01 
    9.5673592210298537E+00 
    1.3079109989540692E+01 
    1.6051119114455400E+01 
    1.1286830161152313E+01 
    1.3798241568360611E+01 
    5.0311936031833160E-01 
    1.2906693003301520E+01 
    5.2377502086115300E+00 
    1.4923437112128708E+01 
    9.5027724144666514E+00 
    8.4418196301153454E+00 
    7.2417633816617739E+00 
    4.9688394925006643E+00 
    1.0668891414141710E+01 
    7.5166676027358479E+00 
    1.1720175209513188E+01 
    2.0314536118064566E+00 
    1.0530839052067780E+01 
    1.2844110541618303E+01 
    5.7545836400084829E+00 
    1.3370356085775686E+01 
    1.4731930753732552E+01 
    1.3225500373481530E+01 
    9.3719824525924036E+00 
    9.5340018568364346E+00 
    9.4954858282762213E+00 
    5.3862559848456497E+00 
    8.6157138888573872E+00 
    8.4683616780349436E+00 
    9.4846671457099294E+00 
    8.8023866454502357E+00 
    6.3508957838166180E-01 
    6.0136386350456039E+00 
    9.1762677637677044E+00 
    9.4603222348238578E+00 
    1.2042446498467037E+01 
    2.0143309051495231E+00 
    9.9231775631453552E+00 
    9.8141539529792983E+00 
    3.4625984797301137E+00 
    1.3102300451499184E+01 
    8.1619172740558490E+00 
    9.6729145283050215E+00 
    1.3161410346402404E+01 
    4.9872170664578350E+00 
    1.3212492305560970E+01 
    8.2711797352704597E+00 
    9.2461651521021693E-01 
    8.9259692740370014E+00 
    1.3753231928613699E+01 
    1.2906657037883628E+01 
    1.2924736002173329E+01 
    9.8535563745362857E+00 
    9.7486406938374710E+00 
    8.1424005242224613E+00 
    6.5301791289360294E+00 
    1.3264602833109802E+01 
    9.0645258896094916E+00 
    6.3710735733933284E+00 
    1.2920127921999084E+01 
    1.3572109555879429E+01 
    9.6736208293653405E+00 
    9.3332066746315139E+00 
    1.5932258250265345E+01 
    9.9619855840252871E+00 
    1.3283614181377679E+01 
    7.7286871054080466E+00 
    1.6079662105139636E+01 
    6.3068209787869023E+00 
    8.5397228535428340E+00 
    7.0736509433513186E+00 
    1.0178259273862515E+01 
    8.1028661444278303E+00 
    1.6063289064810593E+01 
    1.0007022330230050E+01 
    1.2615587667862879E+01 
    6.4884125178861636E+00 
    9.5650948519982730E+00 
    1.3133887302006139E+01 
    8.1344398418387964E+00 
    6.7889422313973196E+00 
    1.0509147182532596E+01 
    1.3353885180028037E+01 
    6.9645060449494576E+00 
    8.9977494255000821E+00 
    9.3601418851292184E+00 
    1.2883589551298417E+01 
    9.1704278511039146E+00 
    1.3327687629269692E+01 
    1.3920804882955116E+01 
    8.1686101527552637E+00 
    8.0009848379134443E+00 
    7.5555119817219225E+00 
    1.3016772016789739E+01 
    9.8261164362771183E+00 
    1.5640143000719624E+01 
    1.2259507346991544E+01 
    1.3094593107710635E+01 
    1.5334158657107777E+01 
    1.4739047400376263E+01 
    9.6138260690817994E+00 
    9.4699099584568440E+00 
    1.2689108919509870E+01 
    1.2942213307330096E+01 
    1.3428937338188659E+01 
    1.3184758821210165E+01 
    1.5952070591021746E+01 
    9.9615534662139460E+00 
    8.2635164601727880E+00 
    9.9538575490762664E+00 
    1.3837992261788091E+01 
    9.7156289869556129E+00 
    5.6146004595352768E+00 
    9.3563791894223716E+00 
    1.4241161247460816E+01 
    9.8481451525776507E+00 
    8.2738534689679870E+00 
    9.3018123004575752E+00 
    1.4347842788868261E+01 
    1.2947816489830883E+01 
    7.8412248611532673E+00 
    1.4479686078665784E+01 
    9.6459520309176945E+00 
    1.3426417992074061E+01 
    1.4360210336758101E+01 
    1.0076640475921515E+01 
    4.9903399340705148E+00 
    1.0479288285118001E+01 
    5.1644442040484080E+00 
    9.7650603630489581E+00 
    9.5530652957967028E+00 
    1.1030564759393330E+01 
    5.4620281466146174E+00 
    1.1707947128702493E+01 
    9.5777418051949645E+00 
    1.3175596565211222E+01 
    1.0048313573115225E+01 
    7.6472952161087067E+00 
    9.1831809340778463E+00 
    1.0039552962880302E+01 
    1.0060018138591420E+01 
    1.3965282255127818E+01 
    7.8877681242272812E+00 
    7.7499361406895506E+00 
    5.7483920091766931E+00 
    1.3455007748472040E+01 
    9.2219451143968776E+00 
    1.2752022672810469E+01 
    9.5221812392011795E+00 
    6.2961927116496730E+00 
    1.2974209762913098E+01 
    9.4955705567887936E+00 
    6.8773944409977350E+00 
    7.2960675738807241E+00 
    7.5606536255230363E+00 
    1.3203946888405726E+01 
    9.4866079207868932E+00 
    1.3808928064029061E+01 
    9.4534107464831543E+00 
    9.3914368480383779E+00 
    8.9181956497959831E+00 
    1.3052273284410180E+01 
    9.3096630304784185E+00 
    7.6006215267876369E+00 
    1.4727131053947623E+01 
    1.3127999005903254E+01 
    6.6108048360359710E+00 
    2.5427426760658673E+00 
    9.4761978881839841E+00 
    8.9278724360495989E+00 
    7.9942246547489786E+00 
    8.7291935130299105E+00 
    1.3097900148694894E+01 
    9.1933514472716382E+00 
    8.3176921758657318E+00 
    1.2962720188753483E+01 
    6.5510273772220353E+00 
    1.2651325956074633E+01 
    8.6282723464707036E+00 
    7.5313346138343320E+00 
    8.0730054183992905E+00 
    1.3507493953236928E+01 
    9.5427733615722374E+00 
    9.5516414769400075E+00 
    5.5439145340871043E+00 
    6.0013297540589567E+00 
    1.2023684182548640E+01 
    9.5622796046636740E+00 
    9.5157735975244062E+00 
    1.4465513477722135E+01 
    7.7516259546428339E+00 
    9.5753877480571248E+00 
    6.7767472678949572E+00 
    6.9914367084491369E+00 
    1.3045583914747910E+01 
    9.2020805151044129E+00 
    6.6285712117125239E+00 
    1.0072161541221245E+01 
    9.4367427492925575E+00 
    1.3048461403814800E+01 
    1.4555732619691325E+01 
    9.7571877301670651E-01 
    9.4809816051431905E+00 
    9.8078781458514825E+00 
    1.3109355592809118E+01 
    8.9968539821130875E+00 
    9.5157327634790061E+00 
    1.4015184840861043E+01 
    8.1069737009936009E+00 
    6.6887372625011983E+00 
    1.1560406918504601E+01 
    1.2919569242730162E+01 
    1.3891908264371622E+01 
    1.4152776244680046E+01 
    9.3272602308309676E+00 
    9.4728426468313014E+00 
    1.0734769559707798E+01 
    6.2778544476807792E+00 
    1.3039677228205184E+01 
    7.2166613078312620E+00 
    6.5411223135989474E+00 
    1.1965698489295050E+01 
    1.1254236815100450E+01 
    6.4135379803758799E+00 
    1.2953382154549384E+01 
    1.3878405404799485E+01 
    9.9763721608812137E+00 
    1.4654559209317286E+01 
    1.2984145899090624E+01 
    9.0655296457033714E+00 
    1.3628483219410334E+01 
    6.9954784437983797E+00 
    1.2936981764895947E+01 
    9.4800051292340886E+00 
    9.4417598656199608E+00 
    1.4629854900252038E+01 
    9.2535623703782228E+00 
    1.1692610689392589E+01 
    8.0581897215573584E+00 
    1.3991711079557939E+01 
    1.2849680822500497E+01 
    8.4151631791178030E+00 
    1.2896880403802719E+01 
    8.6407428498313070E+00 
    9.5270585099954612E+00 
    1.3839839947867274E+01 
    1.3178598948005854E+01 
    1.3881497877166916E+01 
    1.3112289330278884E+01 
    8.6209085923606246E+00 
    8.8320679713302592E+00 
    1.3888047631296079E+01 
    8.9523251594765441E+00 
    1.2786933631451204E+01 
    9.2444258111155015E+00 
    3.7353301089811626E+00 
    6.6115831104880627E+00 
    6.1179053214077497E+00 
    1.3843172664269099E+01 
    1.4561646842936407E+01 
    1.2913999304920415E+01 
    1.1060610194989261E+01 
    1.3183922293956522E+01 
    1.2960318129814183E+01 
    1.3511728490593420E+01 
    5.3516679513580820E+00 
    3.4829568868416070E+00 
    1.0864127397377759E+01 
    9.1524673333269000E+00 
    1.3099255365729183E+01 
    1.3096885086412163E+01 
    9.8271108476768205E+00 
    1.3131861205824597E+01 
    9.4673400476066387E+00 
    9.3893567127246236E+00 
    4.8293352219771730E+00 
    3.4694647445306881E+00 
    1.4344651442258169E+01 
    7.4283959084435436E+00 
    8.3578031476455497E+00 
    9.7240506230433557E+00 
    1.5933667138793572E+01 
    9.8170310282238802E+00 
    9.7908021000146466E+00 
    3.9466442976304230E+00 
    9.8179271473912486E+00 
    9.8312101385076982E+00 
    1.3399389371734785E+01 
    8.0778205590564109E+00 
    9.1143305904201970E+00 
    1.4507584895297926E+01 
    9.4890967969569999E+00 
    1.2928994922712123E+01 
    1.3173417288653928E+01 
    1.1791183859111369E+01 
    8.0723124903785362E+00 
    1.3111702020833560E+01 
    9.2872235419131464E+00 
    1.3116627233929902E+01 
    1.2870787062857289E+01 
    1.3861469450468515E+01 
    1.3110747634133157E+01 
    1.2320499161122161E+01 
    9.4781615387532252E+00 
    6.3643049489952537E+00 
    1.5807870898752364E+01 
    7.3655741700233248E+00 
    1.3796268459175698E+01 
    9.4756254409587797E+00 
    7.7921485553236769E+00 
    4.6651919534966426E+00 
    9.8648500552567864E+00 
    1.3099498625358253E+01 
    1.3095616203266909E+01 
    9.5070628145424880E+00 
    9.4699175891397260E+00 
    1.4709428459124409E+01 
    1.4097683745804375E+01 
    9.8345311645085616E+00 
    3.2414029579628054E+00 
    1.2286266590317103E+01 
    1.6061112024672980E+01 
    9.4814151607459625E+00 
    1.1417565160780402E+01 
    8.9941094610432941E+00 
    1.5666644994062800E+01 
    1.4173732195224307E+01 
    1.3917077145552657E+01 
    9.8549649757649700E+00 
    4.3501909284885318E+00 
    8.9527962557851613E+00 
    9.0191641165554248E+00 
    9.0617683902491670E+00 
    3.5272514704056106E+00 