# vtk DataFile Version 2.0
Pressure Field Data 
ASCII 
DATASET UNSTRUCTURED_GRID 

POINTS 2860 double 

    0.0000000000000000E+00     0.0000000000000000E+00     0.0000000000000000E+00 
    1.0000000000000000E+00     0.0000000000000000E+00     0.0000000000000000E+00 
    1.0000000000000000E+00     1.0000000000000000E+00     0.0000000000000000E+00 
    0.0000000000000000E+00     1.0000000000000000E+00     0.0000000000000000E+00 
    2.5000000000000000E-01     2.5000000000000000E-01     0.0000000000000000E+00 
    7.5000000000000000E-01     2.5000000000000000E-01     0.0000000000000000E+00 
    7.5000000000000000E-01     7.5000000000000000E-01     0.0000000000000000E+00 
    2.5000000000000000E-01     7.5000000000000000E-01     0.0000000000000000E+00 
    3.1249999999942091E-02     0.0000000000000000E+00     0.0000000000000000E+00 
    6.2499999999873469E-02     0.0000000000000000E+00     0.0000000000000000E+00 
    9.3749999999826514E-02     0.0000000000000000E+00     0.0000000000000000E+00 
    1.2499999999977961E-01     0.0000000000000000E+00     0.0000000000000000E+00 
    1.5624999999968961E-01     0.0000000000000000E+00     0.0000000000000000E+00 
    1.8749999999959971E-01     0.0000000000000000E+00     0.0000000000000000E+00 
    2.1874999999950970E-01     0.0000000000000000E+00     0.0000000000000000E+00 
    2.4999999999941969E-01     0.0000000000000000E+00     0.0000000000000000E+00 
    2.8124999999932920E-01     0.0000000000000000E+00     0.0000000000000000E+00 
    3.1249999999923850E-01     0.0000000000000000E+00     0.0000000000000000E+00 
    3.4374999999914790E-01     0.0000000000000000E+00     0.0000000000000000E+00 
    3.7499999999905720E-01     0.0000000000000000E+00     0.0000000000000000E+00 
    4.0624999999896660E-01     0.0000000000000000E+00     0.0000000000000000E+00 
    4.3749999999887590E-01     0.0000000000000000E+00     0.0000000000000000E+00 
    4.6874999999878530E-01     0.0000000000000000E+00     0.0000000000000000E+00 
    4.9999999999869471E-01     0.0000000000000000E+00     0.0000000000000000E+00 
    5.3124999999877620E-01     0.0000000000000000E+00     0.0000000000000000E+00 
    5.6249999999885780E-01     0.0000000000000000E+00     0.0000000000000000E+00 
    5.9374999999893940E-01     0.0000000000000000E+00     0.0000000000000000E+00 
    6.2499999999902101E-01     0.0000000000000000E+00     0.0000000000000000E+00 
    6.5624999999910261E-01     0.0000000000000000E+00     0.0000000000000000E+00 
    6.8749999999918421E-01     0.0000000000000000E+00     0.0000000000000000E+00 
    7.1874999999926570E-01     0.0000000000000000E+00     0.0000000000000000E+00 
    7.4999999999934730E-01     0.0000000000000000E+00     0.0000000000000000E+00 
    7.8124999999942890E-01     0.0000000000000000E+00     0.0000000000000000E+00 
    8.1249999999951039E-01     0.0000000000000000E+00     0.0000000000000000E+00 
    8.4374999999959199E-01     0.0000000000000000E+00     0.0000000000000000E+00 
    8.7499999999967359E-01     0.0000000000000000E+00     0.0000000000000000E+00 
    9.0624999999975520E-01     0.0000000000000000E+00     0.0000000000000000E+00 
    9.3749999999983680E-01     0.0000000000000000E+00     0.0000000000000000E+00 
    9.6874999999991840E-01     0.0000000000000000E+00     0.0000000000000000E+00 
    1.0000000000000000E+00     3.1249999999942091E-02     0.0000000000000000E+00 
    1.0000000000000000E+00     6.2499999999873469E-02     0.0000000000000000E+00 
    1.0000000000000000E+00     9.3749999999826514E-02     0.0000000000000000E+00 
    1.0000000000000000E+00     1.2499999999977961E-01     0.0000000000000000E+00 
    1.0000000000000000E+00     1.5624999999968961E-01     0.0000000000000000E+00 
    1.0000000000000000E+00     1.8749999999959971E-01     0.0000000000000000E+00 
    1.0000000000000000E+00     2.1874999999950970E-01     0.0000000000000000E+00 
    1.0000000000000000E+00     2.4999999999941969E-01     0.0000000000000000E+00 
    1.0000000000000000E+00     2.8124999999932920E-01     0.0000000000000000E+00 
    1.0000000000000000E+00     3.1249999999923850E-01     0.0000000000000000E+00 
    1.0000000000000000E+00     3.4374999999914790E-01     0.0000000000000000E+00 
    1.0000000000000000E+00     3.7499999999905720E-01     0.0000000000000000E+00 
    1.0000000000000000E+00     4.0624999999896660E-01     0.0000000000000000E+00 
    1.0000000000000000E+00     4.3749999999887590E-01     0.0000000000000000E+00 
    1.0000000000000000E+00     4.6874999999878530E-01     0.0000000000000000E+00 
    1.0000000000000000E+00     4.9999999999869471E-01     0.0000000000000000E+00 
    1.0000000000000000E+00     5.3124999999877620E-01     0.0000000000000000E+00 
    1.0000000000000000E+00     5.6249999999885780E-01     0.0000000000000000E+00 
    1.0000000000000000E+00     5.9374999999893940E-01     0.0000000000000000E+00 
    1.0000000000000000E+00     6.2499999999902101E-01     0.0000000000000000E+00 
    1.0000000000000000E+00     6.5624999999910261E-01     0.0000000000000000E+00 
    1.0000000000000000E+00     6.8749999999918421E-01     0.0000000000000000E+00 
    1.0000000000000000E+00     7.1874999999926570E-01     0.0000000000000000E+00 
    1.0000000000000000E+00     7.4999999999934730E-01     0.0000000000000000E+00 
    1.0000000000000000E+00     7.8124999999942890E-01     0.0000000000000000E+00 
    1.0000000000000000E+00     8.1249999999951039E-01     0.0000000000000000E+00 
    1.0000000000000000E+00     8.4374999999959199E-01     0.0000000000000000E+00 
    1.0000000000000000E+00     8.7499999999967359E-01     0.0000000000000000E+00 
    1.0000000000000000E+00     9.0624999999975520E-01     0.0000000000000000E+00 
    1.0000000000000000E+00     9.3749999999983680E-01     0.0000000000000000E+00 
    1.0000000000000000E+00     9.6874999999991840E-01     0.0000000000000000E+00 
    9.6875000000003686E-01     1.0000000000000000E+00     0.0000000000000000E+00 
    9.3750000000011691E-01     1.0000000000000000E+00     0.0000000000000000E+00 
    9.0625000000015765E-01     1.0000000000000000E+00     0.0000000000000000E+00 
    8.7500000000017863E-01     1.0000000000000000E+00     0.0000000000000000E+00 
    8.4375000000028044E-01     1.0000000000000000E+00     0.0000000000000000E+00 
    8.1250000000040856E-01     1.0000000000000000E+00     0.0000000000000000E+00 
    7.8125000000054956E-01     1.0000000000000000E+00     0.0000000000000000E+00 
    7.5000000000066480E-01     1.0000000000000000E+00     0.0000000000000000E+00 
    7.1875000000086831E-01     1.0000000000000000E+00     0.0000000000000000E+00 
    6.8750000000102829E-01     1.0000000000000000E+00     0.0000000000000000E+00 
    6.5625000000114431E-01     1.0000000000000000E+00     0.0000000000000000E+00 
    6.2500000000129829E-01     1.0000000000000000E+00     0.0000000000000000E+00 
    5.9375000000147926E-01     1.0000000000000000E+00     0.0000000000000000E+00 
    5.6250000000168354E-01     1.0000000000000000E+00     0.0000000000000000E+00 
    5.3125000000188671E-01     1.0000000000000000E+00     0.0000000000000000E+00 
    5.0000000000205835E-01     1.0000000000000000E+00     0.0000000000000000E+00 
    4.6875000000192979E-01     1.0000000000000000E+00     0.0000000000000000E+00 
    4.3750000000180111E-01     1.0000000000000000E+00     0.0000000000000000E+00 
    4.0625000000167238E-01     1.0000000000000000E+00     0.0000000000000000E+00 
    3.7500000000154382E-01     1.0000000000000000E+00     0.0000000000000000E+00 
    3.4375000000141509E-01     1.0000000000000000E+00     0.0000000000000000E+00 
    3.1250000000128642E-01     1.0000000000000000E+00     0.0000000000000000E+00 
    2.8125000000115769E-01     1.0000000000000000E+00     0.0000000000000000E+00 
    2.5000000000102918E-01     1.0000000000000000E+00     0.0000000000000000E+00 
    2.1875000000090050E-01     1.0000000000000000E+00     0.0000000000000000E+00 
    1.8750000000077180E-01     1.0000000000000000E+00     0.0000000000000000E+00 
    1.5625000000064329E-01     1.0000000000000000E+00     0.0000000000000000E+00 
    1.2500000000051459E-01     1.0000000000000000E+00     0.0000000000000000E+00 
    9.3750000000385914E-02     1.0000000000000000E+00     0.0000000000000000E+00 
    6.2500000000257239E-02     1.0000000000000000E+00     0.0000000000000000E+00 
    3.1250000000128557E-02     1.0000000000000000E+00     0.0000000000000000E+00 
    0.0000000000000000E+00     9.6875000000003686E-01     0.0000000000000000E+00 
    0.0000000000000000E+00     9.3750000000011691E-01     0.0000000000000000E+00 
    0.0000000000000000E+00     9.0625000000015765E-01     0.0000000000000000E+00 
    0.0000000000000000E+00     8.7500000000017863E-01     0.0000000000000000E+00 
    0.0000000000000000E+00     8.4375000000028044E-01     0.0000000000000000E+00 
    0.0000000000000000E+00     8.1250000000040856E-01     0.0000000000000000E+00 
    0.0000000000000000E+00     7.8125000000054956E-01     0.0000000000000000E+00 
    0.0000000000000000E+00     7.5000000000066480E-01     0.0000000000000000E+00 
    0.0000000000000000E+00     7.1875000000086831E-01     0.0000000000000000E+00 
    0.0000000000000000E+00     6.8750000000102829E-01     0.0000000000000000E+00 
    0.0000000000000000E+00     6.5625000000114431E-01     0.0000000000000000E+00 
    0.0000000000000000E+00     6.2500000000129829E-01     0.0000000000000000E+00 
    0.0000000000000000E+00     5.9375000000147926E-01     0.0000000000000000E+00 
    0.0000000000000000E+00     5.6250000000168354E-01     0.0000000000000000E+00 
    0.0000000000000000E+00     5.3125000000188671E-01     0.0000000000000000E+00 
    0.0000000000000000E+00     5.0000000000205835E-01     0.0000000000000000E+00 
    0.0000000000000000E+00     4.6875000000192979E-01     0.0000000000000000E+00 
    0.0000000000000000E+00     4.3750000000180111E-01     0.0000000000000000E+00 
    0.0000000000000000E+00     4.0625000000167238E-01     0.0000000000000000E+00 
[...]
CELL_DATA 2795 
SCALARS Pressure double 1 
LOOKUP_TABLE default 

    7.7809905756095157E+00 
    2.0427279672644993E+01 
    1.3033697520809225E+01 
    1.2624281424810853E+01 
    9.6896095267746922E+00 
    1.9899664359541664E+01 
    2.1331389837200017E+01 
    6.8909676288003912E+00 
    1.3755807983700791E+01 
    1.0324345016702059E+01 
    8.6913288479009267E+00 
    1.9448794612690531E+01 
    2.0172286262870173E+01 
    1.9834910108542086E+01 
    1.1914546699293814E+01 
    6.7678156406248560E+00 
    1.1383489219102069E+01 
    9.2973473088039089E+00 
    1.8744992641752610E+01 
    1.3012330986036101E+01 
    1.2870000202172685E+01 
    1.9695721916485290E+01 
    1.2181409564892245E+01 
    4.4726874268713113E-01 
    1.9532132174667243E+01 
    2.0217529752873187E+01 
    2.1399721534353564E+01 
    8.3338852567215618E+00 
    1.9293593596932556E+01 
    2.1465279718301353E+01 
    1.3300176569630345E+01 
    1.3294255947523180E+01 
    9.0275038237826077E+00 
    1.2983143598049633E+01 
    4.0233751359751944E+00 
    1.1389192517369139E+01 
    1.2965173703116481E+01 
    2.1533715255093956E+01 
    2.1299128690378932E+01 
    1.9470116415173017E+01 
    9.6014336031762682E+00 
    1.9650241875529186E+01 
    9.2832535754807388E-01 
    1.2980495891663633E+01 
    2.1060490897922747E+01 
    2.0583648188590686E+01 
    1.9431430310654363E+01 
    1.4299415660156292E+01 
    1.9444137748954518E+01 
    1.1683689531082932E+01 
    1.1051098488373231E+01 
    1.3248708779114981E+01 
    1.2833068525455532E+01 
    1.1460873596750945E+01 
    1.3408602203147518E+01 
    1.8353409437433580E+01 
    1.5821998871377865E+01 
    9.7449123688179675E+00 
    1.9717657847395920E+01 
    1.9563331757187449E+01 
    1.2609048660668192E+01 
    1.2491072318434949E+01 
    1.2471145308713945E+01 
    2.1297107331908141E+01 
    2.1759318698182661E+01 
    1.1399832014922854E+01 
    1.3247160231677325E+01 
    1.9039086320100356E+01 
    1.5597012888764613E+01 
    1.2543438076885387E+01 
    2.1666053586751456E+01 
    1.9843576229053863E+01 
    1.1213674238232469E+01 
    2.0742196344909964E+01 
    1.3767818586909021E+01 
    1.9320081106809010E+01 
    2.1568583865985765E+01 
    1.3786300480121193E+01 
    7.9219643355245344E+00 
    1.3271388501074039E+01 
    2.1302187357974699E+01 
    2.1792743558273049E+01 
    1.1449669330062749E+01 
    1.3166345551778459E+01 
    2.1846733446358890E+01 
    1.2965573382719937E+01 
    1.2328681329946598E+01 
    1.6292400122568182E+01 
    7.5441138160647316E+00 
    1.1084812848399979E+01 
    1.3164195139085903E+01 
    1.3959703810770000E+01 
    2.3988587012541856E+01 
    9.4005056317335338E+00 
    1.3257678795694590E+01 
    1.9401073384075758E+01 
    2.0064759721439685E+01 
    8.2003209971566022E+00 
    1.2783431986130068E+01 
    1.3206537786635206E+01 
    2.0116691332674129E+01 
    1.3201654538383814E+01 
    1.9969714828743431E+01 
    4.8615911009268915E+00 
    8.4397384012317982E+00 
    1.3549046408603466E+01 
    2.0448918230353158E+01 
    1.1330904159192510E+01 
    1.2275267448226652E+01 
    1.3177881098971069E+01 
    1.2285296449390088E+01 
    1.5276855723775078E+01 
    1.1880411338788919E+01 
    1.1222858260847328E+01 
    8.6505043934203201E+00 
    1.6237563613687982E+01 
    1.3298467158544071E+01 
    2.1167920819047826E+01 
    1.1289303143661556E+01 
    1.2594910258919523E+01 
    1.9873770626084792E+01 
    1.0192415596178293E+01 
    2.0693176935638846E+01 
    1.3066888905322642E+01 
    1.2486372273824847E+01 
    2.0080083740240202E+01 
    1.3287806937158214E+01 
    2.1537330951618522E+01 
    1.6330842181648588E+01 
    1.8045725561838502E+01 
    2.1430470746535899E+01 
    9.4186851755190109E+00 
    1.3575529922687261E+01 
    2.0154818637694564E+01 
    3.6133845523988781E+00 
    1.3375312927004593E+01 
    2.1368082243061998E+01 
    1.2531289747960464E+01 
    1.4823732076280308E+01 
    8.1241029470721848E+00 
    1.9441428093429632E+01 
    2.4642374806602202E+01 
    1.7128944439187830E+01 
    1.2530399418424947E+01 
    1.0943902052949433E+01 
    1.4390860244547424E+01 
    1.3089765383529054E+01 
    8.7823919942572424E+00 
    2.1444716976832968E+01 
    2.0054269903417559E+01 
    1.9406844771419706E+01 
    1.3967546566133002E+01 
    1.1178561045780205E+01 
    1.2865941374660080E+01 
    2.0770933698642221E+01 
    1.1529616558482639E+01 
    1.3221288724744733E+01 
    1.1796976173100331E+01 
    1.6155983162515479E+01 
    2.4627047592626262E+01 
    1.9379130688160629E+01 
    1.1110454173955578E+01 
    2.0457757845181536E+01 
    2.0374197306842824E+01 
    2.0515845313997072E+01 
    2.2193755774436841E+01 
    2.3004486766034390E+01 
    2.0520686696297965E+01 
    1.3236208700198656E+01 
    1.4572087931468575E+01 
    2.0166880836669492E+01 
    2.1123557626125585E+01 
    9.1828923871610293E+00 
    1.9421967549413960E+01 
    2.0678277928852363E+01 
    8.9338506307985135E+00 
    2.2087514211764628E+01 
    2.2028706036936395E+01 
    1.8863908595610898E+01 
    1.3672106165890529E+01 
    3.3207517528849357E+00 
    2.1385125359813717E+01 
    1.3465499797395186E+01 
    2.1677874244131882E+01 
    1.2424387842640163E+01 
    2.1009253701229831E+01 
    1.1623754767378593E+00 
    1.8035344818934114E+01 
    1.2551426325191990E+01 
    1.1116411279093267E+01 
    1.0794394369544950E+01 
    1.3024730486933894E+01 
    1.4694505045802666E+01 
    1.3854276166233920E+01 
    8.7837827038520118E+00 
    2.1145272612546140E+01 
    2.0217812424298241E+01 
    1.5780033109803465E+01 
    1.3536558798674280E+01 
    1.8151636105767497E+00 
    9.8846997958134999E+00 
    6.7014109421350794E+00 
    2.1493363398072088E+01 
    1.5116697289933677E+01 
    1.9992900918713058E+01 
    2.0326123696939291E+01 
    1.1707832199547999E+01 
    1.5949607396561463E+01 
    1.9369916251343579E+01 
    2.2006303144984983E+01 
    8.0957432243621081E+00 
    1.7151542403375817E+01 
    1.3841099385227229E+01 
    7.1562112340604012E+00 
    1.1662871635140238E+01 
    1.6852700782120650E+01 
    2.0264041934176952E+01 
    1.3096084255111760E+01 
    2.0470649945797049E+01 
    2.0030158052949705E+01 
    1.9949028688095485E+01 
    1.2873241862229303E+01 
    1.1069047006235365E+01 
    1.9426024312875548E+01 
    1.1209686042079793E+01 
    1.3209770261674787E+01 
    1.0954435299115993E+01 
    1.3151165541798155E+01 
    2.0334686228816803E+01 
    7.9444961016157416E+00 
    1.1531376087211717E+01 
    2.1302770042838237E+01 
    1.2888242663601899E+01 
    1.4954248582350965E+01 
    8.1499347524823627E+00 
    1.1305698470408531E+01 
    1.9986193828412180E+01 
    2.0571650892196114E+01 
    6.6493458661923084E+00 
    1.2899517878231300E+01 
    1.1026547414845119E+01 
    2.2664967854890200E+01 
    2.1812157129939454E+01 
    2.3055413920792311E+01 
    1.2927216310384328E+01 
    2.0297843025984367E+01 
    1.9265202976674814E+01 
    1.2745600107027162E+01 
    1.9400114335515063E+01 
    1.3536831229957238E+01 
    7.2538030198178474E+00 
    1.3428704462012783E+01 
    2.1331090974251119E+01 
    1.9392063948819157E+01 
    8.6383300398635043E+00 
    1.9438751851625028E+01 
    1.4735941783303383E+01 
    1.3345744811907849E+01 
    1.2646575674516329E+01 
    1.9123874305020070E+01 
    1.4138742165911369E+01 
    1.9428471684093903E+01 
    1.2888514607757454E+01 
    7.5216274213576124E+00 
    1.3306540606672087E+01 
    1.0813936308236087E+01 
    1.7167378033984480E+01 
    2.1607901045674311E+01 
    1.9435366722519969E+01 
    2.1353967730674121E+01 
    1.2814407443898244E+01 
    8.4148867665270028E+00 
    8.5389595720481992E+00 
    1.3629742156958724E+01 
    1.3176038581858590E+01 
    1.8251795429257442E+00 
    1.8403996538150189E+01 
    2.2260161670094089E+01 
    1.2445115676383850E+01 
    7.5801530475711330E+00 
    1.5669095193954726E+01 
    1.9425950289011279E+01 
    9.0894343598636240E+00 
    6.0388779406769624E+00 
    1.3148834003154805E+01 
    1.9631454249744749E+01 
    2.1020781481182659E+01 
    2.0532670231950487E+01 
    2.0582839826746106E+01 
    8.8543693212040662E+00 
    1.3335285388723532E+01 
    1.8790740228936205E+01 
    1.0122795885801237E+01 
    2.0145370556024947E+01 
    1.6316234886909470E+01 
    8.6662768239069035E+00 
    1.9527358245599256E+01 
    2.1505351235026311E+01 
    1.9771232878053809E+01 
    8.7365772664122705E+00 
    1.3242066578747311E+01 
    9.6585105643838105E+00 
    1.2447478774094305E+01 
    1.9421528193115403E+01 
    1.9404540123085166E+01 
    8.7885068853780037E+00 
    2.1068265452215599E+01 
    1.4037464484915549E+01 
    1.9533233997446313E+01 
    2.1218098875914986E+01 
    1.9475842978306321E+01 
    1.7534716794522499E+01 
    2.2769755453982700E+01 
    1.2376280716943299E+01 
    2.1299179244218454E+01 
    1.9539007683647004E+01 
    2.1440816158707328E+01 
    2.1043481367508726E+01 
    1.2530801870602584E+01 
    1.3020203256464086E+01 
    1.2429847379545185E+01 
    1.6656111112910519E+01 
    4.8850538873660154E+00 
    1.3532152375198082E+01 
    2.2944856258435632E+01 
    1.3544583851693391E+01 
    1.3839575503713936E+01 
    2.1387050964602501E+01 
    2.1768450419048385E+01 
    1.2274899034847474E+01 
    1.9442234417058447E+01 
    1.9412126429653757E+01 
    1.3819655052228786E+01 
    2.0945891132746574E+01 
    9.1287084566546852E+00 
    5.7856967661132224E+00 
    1.4268524917789001E+01 
    1.3562660088264204E+01 
    1.9384860865280825E+01 
    8.1793557196351525E+00 
    2.0381432480036391E+01 
    5.9002535001012433E+00 
    1.3474913130534359E+01 
    1.2587618788968790E+01 
    1.3211229694201691E+01 
    2.4688750295883317E+01 
    4.7375466087772331E+00 
    1.3402858571623318E+01 
    1.6711368183470157E+01 
    1.2677027407535746E+01 
    9.7390438186989989E+00 
    2.0696470997369325E+01 
    2.4103034326002810E+01 
    2.0994777555834894E+01 
    1.3310502548486205E+01 
    7.1148592727273625E+00 
    2.3920559154680749E+01 
    2.0174400033829240E+01 
    9.2778067660138621E+00 
    1.2756323278528280E+01 
    2.2164050900751651E+01 
    4.0158383529173136E+00 
    1.3644660552239410E+01 
    2.1094693963474992E+01 
    1.3229750864754982E+01 
    1.1406857101197259E+01 
    1.3465025581108673E+01 
    1.8953855828058597E+01 
    1.3205305578210019E+01 
    6.2967488888148830E+00 
    1.1475865373042753E+00 
    9.6162369118154807E+00 
    2.2536790246393423E+01 
    1.2427724355331900E+01 
    1.5411129519188433E+01 
    1.4622646455416122E+01 
    1.7300357615881538E+01 
    1.3247460831318413E+01 
    1.9998499920004761E+01 
    2.4706247231254100E+01 
    1.6160021481133729E+01 
    2.1246854584673038E+01 
    6.6953266718728577E-01 
    1.9403542561826349E+01 
    7.0132089721036293E+00 
    2.3179986352738460E+01 
    1.3424160874803352E+01 
    1.1616930603130987E+01 
    9.8646693392043474E+00 
    6.6339698323580460E+00 
    1.5008889770472843E+01 
    1.0232654237843397E+01 
    1.6986470557387996E+01 
    2.7860031628783775E+00 
    1.4795362813801416E+01 
    1.9251064364778156E+01 
    7.7371990183014283E+00 
    2.0268368173348161E+01 
    2.2801681629223054E+01 
    2.0073275182802249E+01 
    1.3216006204246780E+01 
    1.3203902267584022E+01 
    1.3412762261814240E+01 
    7.2154544162291288E+00 
    1.1964665452601375E+01 
    1.1709095261460337E+01 
    1.3395642540190227E+01 
    1.2322433304260592E+01 
    8.5849680863310940E-01 
    8.0869672758736115E+00 
    1.2922928902008415E+01 
    1.3356903127013494E+01 
    1.7590082916506486E+01 
    2.6230187397947922E+00 
    1.3755737068920691E+01 
    1.3573758570890472E+01 
    4.5532815522878050E+00 
    1.9795499671831038E+01 
    1.1264015971612203E+01 
    1.3381720991428200E+01 
    2.0138942987984535E+01 
    6.6538018984403058E+00 
    1.9968006958758888E+01 
    1.1396451746705944E+01 
    1.1804825293429748E+00 
    1.2526577836272148E+01 
    2.1169603860001310E+01 
    1.9417144933980275E+01 
    1.9460048089674785E+01 
    1.3951469913023537E+01 
    1.3478706121568839E+01 
    1.1216924934974863E+01 
    8.8275614586326920E+00 
    2.0304563217125999E+01 
    1.2748412199804228E+01 
    8.5837240984859644E+00 
    1.9442404496908040E+01 
    2.0793541780533339E+01 
    1.3664266353304553E+01 
    1.2952704108651623E+01 
    2.4550205949579521E+01 
    1.3821189134535304E+01 
    2.0397977361453837E+01 
    1.0588855603059312E+01 
    2.4737672945764547E+01 
    8.4888837129743493E+00 
    1.1885191027921444E+01 
    9.5559394000277358E+00 
    1.4190224563388181E+01 
    1.1081207905983087E+01 
    2.4718240169307769E+01 
    1.3897760927560771E+01 
    1.8931176360830612E+01 
    8.7330133182355638E+00 
    1.3242033614118633E+01 
    2.0124186807882420E+01 
    1.1120328874317865E+01 
    9.2106559557504095E+00 
    1.5194283683267351E+01 
    2.0288600582181878E+01 
    9.4222191177917463E+00 
    1.2618774861393028E+01 
    1.2998201119238717E+01 
    1.9364591646053515E+01 
    1.2713684903312457E+01 
    2.0516250747819964E+01 
    2.1494687576675474E+01 
    1.1244327052008675E+01 
    1.0994935754733678E+01 
    1.0289093915987243E+01 
    1.9602800632565369E+01 
    1.3590925534239826E+01 
    2.4154430739923878E+01 
    1.7791499466791855E+01 
    2.0031821402931953E+01 
    2.3745869644123804E+01 
    2.2807701942836747E+01 
    1.3303322768632537E+01 
    1.3372195964812709E+01 
    1.8880813376461042E+01 
    1.9464329420138036E+01 
    2.0619420694354545E+01 
    2.0199542788837988E+01 
    2.4583736234392241E+01 
    1.3820418061995445E+01 
    1.1418370753216635E+01 
    1.3772763823513873E+01 
    2.1322963734672225E+01 
    1.3430751363654416E+01 
    7.5474368134128538E+00 
    1.3191157997956802E+01 
    2.2123802855256844E+01 
    1.3629128451712967E+01 
    1.1409935451801903E+01 
    1.2917345109974693E+01 
    2.2295641665223016E+01 
    1.9792621660149113E+01 
    1.0761164913739133E+01 
    2.2499053085841030E+01 
    1.3341643444635299E+01 
    2.0694113634000061E+01 
    2.2305152940343572E+01 
    1.4300004884835644E+01 
    6.6667008829752668E+00 
    1.4996787913158723E+01 
    6.9048351940248933E+00 
    1.3497655733212344E+01 
    1.3233324074807205E+01 
    1.5977960519563656E+01 
    7.3220803281504052E+00 
    1.7237497343261690E+01 
    1.3258155424886530E+01 
    2.0188769227749109E+01 
    1.4512080408233686E+01 
    1.0466410421936594E+01 
    1.2736245580034268E+01 
    1.4191675859734596E+01 
    1.3985544675688642E+01 
    2.1671257614343620E+01 
    1.0818160079952206E+01 
    1.0608702457607420E+01 
    7.7251407351541124E+00 
    2.0719197054867678E+01 
    1.2796162670262580E+01 
    1.9324615356200255E+01 
    1.3193412890683073E+01 
    8.5037108640570782E+00 
    1.9783564822237587E+01 
    1.3161244734035616E+01 
    9.3409873878773269E+00 
    9.9489871665667806E+00 
    1.0335589612554095E+01 
    2.0226508683652781E+01 
    1.3398725403829520E+01 
    2.1251209713253765E+01 
    1.3106912580110109E+01 
    1.3024465558120685E+01 
    1.2492330416369123E+01 
    1.9941577554772323E+01 
    1.2911403483771224E+01 
    1.0387540599486288E+01 
    2.2800415399543422E+01 
    2.0076552303509164E+01 
    8.9039920913161641E+00 
    3.3122383424825910E+00 
    1.3382295761138764E+01 
    1.2340907890714220E+01 
    1.0984436789960302E+01 
    1.2189083372869158E+01 
    1.9732807626094811E+01 
    1.2931972245532924E+01 
    1.1519963860578839E+01 
    1.9504881781327192E+01 
    8.8239139644142064E+00 
    1.8822473001772490E+01 
    1.1888642117309759E+01 
    1.0300942728805227E+01 
    1.1113092019224561E+01 
    2.0842131256914833E+01 
    1.3214976166986846E+01 
    1.3225850147125374E+01 
    7.4411999636825588E+00 
    8.0909963670888239E+00 
    1.7707617504420273E+01 
    1.3238889201711279E+01 
    1.3444418990551126E+01 
    2.2490053993948209E+01 
    1.0614259949323353E+01 
    1.3255202000996384E+01 
    9.1504281908493272E+00 
    9.4640063247345196E+00 
    1.9862149071826877E+01 
    1.2754022520720930E+01 
    8.9830193191080543E+00 
    1.3969210232611996E+01 
    1.3096388619346797E+01 
    1.9891573332224294E+01 
    2.2628128430669122E+01 
    1.2474469111599944E+00 
    1.3389855458114823E+01 
    1.3561017322774074E+01 
    2.0052865237582274E+01 
    1.2637836205488680E+01 
    1.3179577411340183E+01 
    2.1746895218036730E+01 
    1.1146670518315748E+01 
    9.0682616790921724E+00 
    1.6476700719704020E+01 
    1.9435939469955734E+01 
    2.1427164193608441E+01 
    2.1957021570999917E+01 
    1.3146422987880714E+01 
    1.3376893682300313E+01 
    1.5087316600891066E+01 
    8.4396355578481597E+00 
    1.9637771109041104E+01 
    9.8250786228691211E+00 
    8.8069855949759965E+00 
    1.7264217217667419E+01 
    1.6000417230538126E+01 
    8.6282309169805114E+00 
    1.9492944066475925E+01 
    2.1404950887839924E+01 
    1.3845575787741751E+01 
    2.2783074136051248E+01 
    1.9543558666164465E+01 
    1.2737749211554656E+01 
    2.0816718143374221E+01 
    9.4634323033621204E+00 
    1.9452328668230173E+01 
    1.3388299847957805E+01 
    1.3328204904292758E+01 
    2.2759148734844540E+01 
    1.2846605445515983E+01 
    1.6809794939820321E+01 
    1.1077807953694677E+01 
    2.1629635840052298E+01 
    1.9272741388611529E+01 
    1.1627571327063063E+01 
    1.9427420987488627E+01 
    1.1890223624895256E+01 
    1.3191088759188219E+01 
    2.1330237008334464E+01 
    2.0144490244363340E+01 
    2.1409576557031901E+01 
    2.0053359501248217E+01 
    1.2007176673521126E+01 
    1.2361946823545795E+01 
    2.1426201846751020E+01 
    1.2556217266224662E+01 
    1.9084657904538954E+01 
    1.2827916378964506E+01 
    4.9341009797810145E+00 
    8.9080001371343798E+00 
    8.2337421810019524E+00 
    2.1336023992832125E+01 
    2.2643641561568920E+01 
    1.9439575415588266E+01 
    1.5619147832986872E+01 
    1.9922189760532937E+01 
    1.9495702564751468E+01 
    2.0649762775066691E+01 
    7.1644008381084934E+00 
    4.5829815647750918E+00 
    1.5265558546233454E+01 
    1.2876188736511024E+01 
    1.9750194194410021E+01 
    1.9747032779788537E+01 
    1.3587556034435087E+01 
    1.9812682706875467E+01 
    1.3368151183782153E+01 
    1.3223608852627752E+01 
    6.4351349922294121E+00 
    4.5566250271564570E+00 
    2.2286303826593826E+01 
    1.0104585490722096E+01 
    1.1536105994622247E+01 
    1.3447307115709371E+01 
    2.4556700531317844E+01 
    1.3574725255909994E+01 
    1.3829171916560471E+01 
    5.2495149667900654E+00 
    1.3574509140087805E+01 
    1.3594335108184110E+01 
    2.0313415217428975E+01 
    1.1127393450764270E+01 
    1.2611186798494916E+01 
    2.2550641745803251E+01 
    1.3402643862523361E+01 
    1.9458832244129081E+01 
    1.9876244704128847E+01 
    1.6908838969996221E+01 
    1.1073447939180475E+01 
    2.0045642986763202E+01 
    1.3086745968415949E+01 
    1.9787148485937184E+01 
    1.9334907355433028E+01 
    2.1372824625876799E+01 
    2.0068034798053844E+01 
    1.8072725363268436E+01 
    1.3385364063279377E+01 
    8.5644014173373773E+00 
    2.4393716044883757E+01 
    1.0048593730430422E+01 
    2.1332649038301856E+01 
    1.3381362301080733E+01 
    1.0701827709126574E+01 
    6.2231122549604230E+00 
    1.3646134497714216E+01 
    2.0030719126445707E+01 
    2.0000222426959301E+01 
    1.3165205162011098E+01 
    1.3372365112325603E+01 
    2.2844285589058014E+01 
    2.1860505610538080E+01 
    1.3603145481761501E+01 
    4.2646633849268172E+00 
    1.7917415486067668E+01 
    2.4711410597242100E+01 
    1.3390490542194566E+01 
    1.6236965122137594E+01 
    1.2635659569868949E+01 
    2.4201692582378371E+01 
    2.1989329464560630E+01 
    2.1566161858465794E+01 
    1.3635083185966561E+01 
    5.8324326221553555E+00 
    1.2571518700796281E+01 
    1.2672143927099109E+01 
    1.2736571974486223E+01 
    4.6774013014719031E+00 