# vtk DataFile Version 2.0
Pressure Field Data 
ASCII 
DATASET UNSTRUCTURED_GRID 

POINTS 2860 double 

    0.0000000000000000E+00     0.0000000000000000E+00     0.0000000000000000E+00 
    1.0000000000000000E+00     0.0000000000000000E+00     0.0000000000000000E+00 
    1.0000000000000000E+00     1.0000000000000000E+00     0.0000000000000000E+00 
    0.0000000000000000E+00     1.0000000000000000E+00     0.0000000000000000E+00 
    2.5000000000000000E-01     2.5000000000000000E-01     0.0000000000000000E+00 
    7.5000000000000000E-01     2.5000000000000000E-01     0.0000000000000000E+00 
    7.5000000000000000E-01     7.5000000000000000E-01     0.0000000000000000E+00 
    2.5000000000000000E-01     7.5000000000000000E-01     0.0000000000000000E+00 
    3.1249999999942091E-02     0.0000000000000000E+00     0.0000000000000000E+00 
    6.2499999999873469E-02     0.0000000000000000E+00     0.0000000000000000E+00 
    9.3749999999826514E-02     0.0000000000000000E+00     0.0000000000000000E+00 
    1.2499999999977961E-01     0.0000000000000000E+00     0.0000000000000000E+00 
    1.5624999999968961E-01     0.0000000000000000E+00     0.0000000000000000E+00 
    1.8749999999959971E-01     0.0000000000000000E+00     0.0000000000000000E+00 
    2.1874999999950970E-01     0.0000000000000000E+00     0.0000000000000000E+00 
    2.4999999999941969E-01     0.0000000000000000E+00     0.0000000000000000E+00 
    2.8124999999932920E-01     0.0000000000000000E+00     0.0000000000000000E+00 
    3.1249999999923850E-01     0.0000000000000000E+00     0.0000000000000000E+00 
    3.4374999999914790E-01     0.0000000000000000E+00     0.0000000000000000E+00 
    3.7499999999905720E-01     0.0000000000000000E+00     0.0000000000000000E+00 
    4.0624999999896660E-01     0.0000000000000000E+00     0.0000000000000000E+00 
    4.3749999999887590E-01     0.0000000000000000E+00     0.0000000000000000E+00 
    4.6874999999878530E-01     0.0000000000000000E+00     0.0000000000000000E+00 
    4.9999999999869471E-01     0.0000000000000000E+00     0.0000000000000000E+00 
    5.3124999999877620E-01     0.0000000000000000E+00     0.0000000000000000E+00 
    5.6249999999885780E-01     0.0000000000000000E+00     0.0000000000000000E+00 
    5.9374999999893940E-01     0.0000000000000000E+00     0.0000000000000000E+00 
    6.2499999999902101E-01     0.0000000000000000E+00     0.0000000000000000E+00 
    6.5624999999910261E-01     0.0000000000000000E+00     0.0000000000000000E+00 
    6.8749999999918421E-01     0.0000000000000000E+00     0.0000000000000000E+00 
    7.1874999999926570E-01     0.0000000000000000E+00     0.0000000000000000E+00 
    7.4999999999934730E-01     0.0000000000000000E+00     0.0000000000000000E+00 
    7.8124999999942890E-01     0.0000000000000000E+00     0.0000000000000000E+00 
    8.1249999999951039E-01     0.0000000000000000E+00     0.0000000000000000E+00 
    8.4374999999959199E-01     0.0000000000000000E+00     0.0000000000000000E+00 
    8.7499999999967359E-01     0.0000000000000000E+00     0.0000000000000000E+00 
    9.0624999999975520E-01     0.0000000000000000E+00     0.0000000000000000E+00 
    9.3749999999983680E-01     0.0000000000000000E+00     0.0000000000000000E+00 
    9.6874999999991840E-01     0.0000000000000000E+00     0.0000000000000000E+00 
    1.0000000000000000E+00     3.1249999999942091E-02     0.0000000000000000E+00 
    1.0000000000000000E+00     6.2499999999873469E-02     0.0000000000000000E+00 
    1.0000000000000000E+00     9.3749999999826514E-02     0.0000000000000000E+00 
    1.0000000000000000E+00     1.2499999999977961E-01     0.0000000000000000E+00 
    1.0000000000000000E+00     1.5624999999968961E-01     0.0000000000000000E+00 
    1.0000000000000000E+00     1.8749999999959971E-01     0.0000000000000000E+00 
    1.0000000000000000E+00     2.1874999999950970E-01     0.0000000000000000E+00 
    1.0000000000000000E+00     2.4999999999941969E-01     0.0000000000000000E+00 
    1.0000000000000000E+00     2.8124999999932920E-01     0.0000000000000000E+00 
    1.0000000000000000E+00     3.1249999999923850E-01     0.0000000000000000E+00 
    1.0000000000000000E+00     3.4374999999914790E-01     0.0000000000000000E+00 
    1.0000000000000000E+00     3.7499999999905720E-01     0.0000000000000000E+00 
    1.0000000000000000E+00     4.0624999999896660E-01     0.0000000000000000E+00 
    1.0000000000000000E+00     4.3749999999887590E-01     0.0000000000000000E+00 
    1.0000000000000000E+00     4.6874999999878530E-01     0.0000000000000000E+00 
    1.0000000000000000E+00     4.9999999999869471E-01     0.0000000000000000E+00 
    1.0000000000000000E+00     5.3124999999877620E-01     0.0000000000000000E+00 
    1.0000000000000000E+00     5.6249999999885780E-01     0.0000000000000000E+00 
    1.0000000000000000E+00     5.9374999999893940E-01     0.0000000000000000E+00 
    1.0000000000000000E+00     6.2499999999902101E-01     0.0000000000000000E+00 
    1.0000000000000000E+00     6.5624999999910261E-01     0.0000000000000000E+00 
    1.0000000000000000E+00     6.8749999999918421E-01     0.0000000000000000E+00 
    1.0000000000000000E+00     7.1874999999926570E-01     0.0000000000000000E+00 
    1.0000000000000000E+00     7.4999999999934730E-01     0.0000000000000000E+00 
    1.0000000000000000E+00     7.8124999999942890E-01     0.0000000000000000E+00 
    1.0000000000000000E+00     8.1249999999951039E-01     0.0000000000000000E+00 
    1.0000000000000000E+00     8.4374999999959199E-01     0.0000000000000000E+00 
    1.0000000000000000E+00     8.7499999999967359E-01     0.0000000000000000E+00 
    1.0000000000000000E+00     9.0624999999975520E-01     0.0000000000000000E+00 
    1.0000000000000000E+00     9.3749999999983680E-01     0.0000000000000000E+00 
    1.0000000000000000E+00     9.6874999999991840E-01     0.0000000000000000E+00 
    9.6875000000003686E-01     1.0000000000000000E+00     0.0000000000000000E+00 
    9.3750000000011691E-01     1.0000000000000000E+00     0.0000000000000000E+00 
    9.0625000000015765E-01     1.0000000000000000E+00     0.0000000000000000E+00 
    8.7500000000017863E-01     1.0000000000000000E+00     0.0000000000000000E+00 
    8.4375000000028044E-01     1.0000000000000000E+00     0.0000000000000000E+00 
    8.1250000000040856E-01     1.0000000000000000E+00     0.0000000000000000E+00 
    7.8125000000054956E-01     1.0000000000000000E+00     0.0000000000000000E+00 
    7.5000000000066480E-01     1.0000000000000000E+00     0.0000000000000000E+00 
    7.1875000000086831E-01     1.0000000000000000E+00     0.0000000000000000E+00 
    6.8750000000102829E-01     1.0000000000000000E+00     0.0000000000000000E+00 
    6.5625000000114431E-01     1.0000000000000000E+00     0.0000000000000000E+00 
    6.2500000000129829E-01     1.0000000000000000E+00     0.0000000000000000E+00 
    5.9375000000147926E-01     1.0000000000000000E+00     0.0000000000000000E+00 
    5.6250000000168354E-01     1.0000000000000000E+00     0.0000000000000000E+00 
    5.3125000000188671E-01     1.0000000000000000E+00     0.0000000000000000E+00 
    5.0000000000205835E-01     1.0000000000000000E+00     0.0000000000000000E+00 
    4.6875000000192979E-01     1.0000000000000000E+00     0.0000000000000000E+00 
    4.3750000000180111E-01     1.0000000000000000E+00     0.0000000000000000E+00 
    4.0625000000167238E-01     1.0000000000000000E+00     0.0000000000000000E+00 
    3.7500000000154382E-01     1.0000000000000000E+00     0.0000000000000000E+00 
    3.4375000000141509E-01     1.0000000000000000E+00     0.0000000000000000E+00 
    3.1250000000128642E-01     1.0000000000000000E+00     0.0000000000000000E+00 
    2.8125000000115769E-01     1.0000000000000000E+00     0.0000000000000000E+00 
    2.5000000000102918E-01     1.0000000000000000E+00     0.0000000000000000E+00 
    2.1875000000090050E-01     1.0000000000000000E+00     0.0000000000000000E+00 
    1.8750000000077180E-01     1.0000000000000000E+00     0.0000000000000000E+00 
    1.5625000000064329E-01     1.0000000000000000E+00     0.0000000000000000E+00 
    1.2500000000051459E-01     1.0000000000000000E+00     0.0000000000000000E+00 
    9.3750000000385914E-02     1.0000000000000000E+00     0.0000000000000000E+00 
    6.2500000000257239E-02     1.0000000000000000E+00     0.0000000000000000E+00 
    3.1250000000128557E-02     1.0000000000000000E+00     0.0000000000000000E+00 
    0.0000000000000000E+00     9.6875000000003686E-01     0.0000000000000000E+00 
    0.0000000000000000E+00     9.3750000000011691E-01     0.0000000000000000E+00 
    0.0000000000000000E+00     9.0625000000015765E-01     0.0000000000000000E+00 
    0.0000000000000000E+00     8.7500000000017863E-01     0.0000000000000000E+00 
    0.0000000000000000E+00     8.4375000000028044E-01     0.0000000000000000E+00 
    0.0000000000000000E+00     8.1250000000040856E-01     0.0000000000000000E+00 
    0.0000000000000000E+00     7.8125000000054956E-01     0.0000000000000000E+00 
    0.0000000000000000E+00     7.5000000000066480E-01     0.0000000000000000E+00 
    0.0000000000000000E+00     7.1875000000086831E-01     0.0000000000000000E+00 
    0.0000000000000000E+00     6.8750000000102829E-01     0.0000000000000000E+00 
    0.0000000000000000E+00     6.5625000000114431E-01     0.0000000000000000E+00 
    0.0000000000000000E+00     6.2500000000129829E-01     0.0000000000000000E+00 
    0.0000000000000000E+00     5.9375000000147926E-01     0.0000000000000000E+00 
    0.0000000000000000E+00     5.6250000000168354E-01     0.0000000000000000E+00 
    0.0000000000000000E+00     5.3125000000188671E-01     0.0000000000000000E+00 
    0.0000000000000000E+00     5.0000000000205835E-01     0.0000000000000000E+00 
    0.0000000000000000E+00     4.6875000000192979E-01     0.0000000000000000E+00 
    0.0000000000000000E+00     4.3750000000180111E-01     0.0000000000000000E+00 
    0.0000000000000000E+00     4.0625000000167238E-01     0.0000000000000000E+00 
[...]
CELL_DATA 2795 
SCALARS Pressure double 1 
LOOKUP_TABLE default 

    6.6274226488754380E+00 
    1.5059216940615203E+01 
    1.0606377968911683E+01 
    1.0222144899223350E+01 
    8.1351030441631771E+00 
    1.4919015762511799E+01 
    1.5672613806633050E+01 
    5.9268362245190920E+00 
    1.1158840739853309E+01 
    8.5774750549138936E+00 
    7.3260925651738145E+00 
    1.4651507312987984E+01 
    1.4966407314921415E+01 
    1.4886755341018315E+01 
    9.7981090955964998E+00 
    5.8302029278325032E+00 
    9.4046640806859827E+00 
    7.7973108094477155E+00 
    1.4271117677799804E+01 
    1.0593085487216575E+01 
    1.0488677808645450E+01 
    1.4818894510862382E+01 
    9.9427603804015767E+00 
    3.8943762724096376E-01 
    1.4655279724511178E+01 
    1.4932869904419899E+01 
    1.5704602322313072E+01 
    7.0476783724530137E+00 
    1.4568467666467320E+01 
    1.5698523923263378E+01 
    1.0669511887872014E+01 
    1.0805495193632398E+01 
    7.6260765485051056E+00 
    1.0569204009476724E+01 
    3.4318478421171235E+00 
    9.4103306532261684E+00 
    1.0557192879557698E+01 
    1.5739201902674040E+01 
    1.5648744618797098E+01 
    1.4664779548089564E+01 
    8.0885916897087604E+00 
    1.4629147818447212E+01 
    8.0989524316775019E-01 
    1.0477996605156642E+01 
    1.5464048200809851E+01 
    1.5275272270751898E+01 
    1.4640410303063479E+01 
    1.1549203176444374E+01 
    1.4712070773757841E+01 
    9.6199080414974087E+00 
    9.1671712654659689E+00 
    1.0771249217916633E+01 
    1.0366295864141323E+01 
    9.4598628559594395E+00 
    1.0739010484009597E+01 
    1.4050967524476469E+01 
    1.2567127261481581E+01 
    8.1788510202917397E+00 
    1.4823343179982871E+01 
    1.4742410505293162E+01 
    1.0202710988811642E+01 
    1.0206702507576759E+01 
    1.0120170835143069E+01 
    1.5597990033041979E+01 
    1.5864345056846219E+01 
    9.4158233269764402E+00 
    1.0770142709634706E+01 
    1.4524470193823442E+01 
    1.2415384138904441E+01 
    1.0255774481827604E+01 
    1.5867314715294228E+01 
    1.4771658471681217E+01 
    9.2836932411673061E+00 
    1.5383507502846884E+01 
    1.0974911695841545E+01 
    1.4498572569105628E+01 
    1.5750573947653040E+01 
    1.1040211774301467E+01 
    6.8317533175068803E+00 
    1.0788389602753744E+01 
    1.5658188981079242E+01 
    1.5897954550842943E+01 
    9.4295780967481271E+00 
    1.0708451911725270E+01 
    1.5944146492081554E+01 
    1.0558572290160603E+01 
    1.0032862903908992E+01 
    1.2860943078305457E+01 
    6.4895034981119366E+00 
    9.1909368971910688E+00 
    1.0707275916768559E+01 
    1.1326048814867164E+01 
    1.7439004393826998E+01 
    7.9074267041230710E+00 
    1.0778074210624977E+01 
    1.4617389979943457E+01 
    1.4916003400583115E+01 
    6.9733398835637690E+00 
    1.0427013291334919E+01 
    1.0738276392626911E+01 
    1.4937176540305257E+01 
    1.0735952491684163E+01 
    1.4866300728298764E+01 
    4.2468404554941159E+00 
    7.1242818212504559E+00 
    1.0999107615829031E+01 
    1.5067408376595752E+01 
    9.3734511471385584E+00 
    9.9731064275083590E+00 
    1.0718148851403754E+01 
    9.9973883890104691E+00 
    1.2136472840584538E+01 
    9.7040771710212450E+00 
    9.2929572655368879E+00 
    7.3910443777332890E+00 
    1.2628842118013768E+01 
    1.0808318427229780E+01 
    1.5507260176034908E+01 
    9.2995007685821225E+00 
    1.0202140343644786E+01 
    1.4759619091829151E+01 
    8.5256963066819633E+00 
    1.5224082179874825E+01 
    1.0633784602543416E+01 
    1.0129161354567415E+01 
    1.4918110956098074E+01 
    1.0800715073103346E+01 
    1.5761931724983137E+01 
    1.2875808197107158E+01 
    1.3887976620376568E+01 
    1.5721838895721795E+01 
    7.9233216631172683E+00 
    1.1026904997026984E+01 
    1.4917698408510310E+01 
    3.1802908176943956E+00 
    1.0717341473306293E+01 
    1.5687179861667044E+01 
    1.0158749828251425E+01 
    1.1734890295904865E+01 
    6.9728154273868439E+00 
    1.4615277037177718E+01 
    1.7937655691431782E+01 
    1.3375305816926495E+01 
    1.0158447598226717E+01 
    9.0864581684546337E+00 
    1.1384088333959799E+01 
    1.0650620331501839E+01 
    7.4031656836121682E+00 
    1.5717918522872967E+01 
    1.4975048067890409E+01 
    1.4619132625483518E+01 
    1.1339034240525276E+01 
    9.2550598945406488E+00 
    1.0486497110788170E+01 
    1.5412879417178804E+01 
    9.5191503757146698E+00 
    1.0650437701751027E+01 
    9.6925719478014845E+00 
    1.2356151594177474E+01 
    1.7925626813591464E+01 
    1.4610369133950254E+01 
    9.2395297538425805E+00 
    1.5116895238452823E+01 
    1.5025602172936042E+01 
    1.5107907147117290E+01 
    1.6148335566128459E+01 
    1.6703189088806759E+01 
    1.5272103421715862E+01 
    1.0761908639170953E+01 
    1.1587589679762333E+01 
    1.5093630895794393E+01 
    1.5519603678807192E+01 
    7.7253898091304771E+00 
    1.4640053189297129E+01 
    1.5373796250235113E+01 
    7.5232779890123052E+00 
    1.6062542481560623E+01 
    1.6044639366012703E+01 
    1.4344051666649493E+01 
    1.1104874816833924E+01 
    2.7992833962997157E+00 
    1.5688418148755451E+01 
    1.0935396739924736E+01 
    1.5813683866943993E+01 
    1.0085688549336563E+01 
    1.5518376598182618E+01 
    9.9662152131868142E-01 
    1.3904889455208021E+01 
    1.0252293037449283E+01 
    9.2102069412413439E+00 
    8.9770348631035120E+00 
    1.0603203100135858E+01 
    1.1765328390799528E+01 
    1.1074083453304173E+01 
    7.5206642227667420E+00 
    1.5514010954140955E+01 
    1.4942096844551337E+01 
    1.2547367434670560E+01 
    1.0992584599164758E+01 
    1.6232090306720790E+00 
    8.2863946037108924E+00 
    5.7773144332212762E+00 
    1.5709376365480253E+01 
    1.1873396039499498E+01 
    1.4986796559356405E+01 
    1.5010890051073313E+01 
    9.6002396628194298E+00 
    1.2476293116078869E+01 
    1.4614363611502773E+01 
    1.6027025339450500E+01 
    6.9237837751577329E+00 
    1.3218020153179248E+01 
    1.1089880193791878E+01 
    6.1666980169086285E+00 
    9.5932227353583261E+00 
    1.3121109473889636E+01 
    1.4971262549732979E+01 
    1.0656352805341209E+01 
    1.5085166131639172E+01 
    1.4843030317048955E+01 
    1.4789980084864672E+01 
    1.0492210022028479E+01 
    9.1424215234676076E+00 
    1.4627311137990855E+01 
    9.2789932934708528E+00 
    1.0741698207312952E+01 
    9.0957256125992494E+00 
    1.0596014517820413E+01 
    1.5020445926274657E+01 
    6.7019848900838159E+00 
    9.4968570702568513E+00 
    1.5621175578143122E+01 
    1.0503386907481312E+01 
    1.1771720832346846E+01 
    6.8758625024831135E+00 
    9.3448786346623596E+00 
    1.4820297562239995E+01 
    1.5142741096392605E+01 
    5.6118224924815303E+00 
    1.0510640772912851E+01 
    9.1462262060576922E+00 
    1.6463214645779328E+01 
    1.5906609444901456E+01 
    1.6731389720524227E+01 
    1.0530692114732632E+01 
    1.4992477209506411E+01 
    1.4568618360906234E+01 
    1.0398847865655611E+01 
    1.4619554703576014E+01 
    1.0992661782980971E+01 
    6.2623598271794236E+00 
    1.0794571807291639E+01 
    1.5606387814917115E+01 
    1.4616223326309937E+01 
    7.2888402156732077E+00 
    1.4647358798748545E+01 
    1.1781801106348730E+01 
    1.0696893475895092E+01 
    1.0235354094793056E+01 
    1.4476029259352261E+01 
    1.1226025552374354E+01 
    1.4632938473161515E+01 
    1.0409057994963668E+01 
    6.4992748872411470E+00 
    1.0813210101392796E+01 
    8.9880899740350326E+00 
    1.3379923426007744E+01 
    1.5811816168959052E+01 
    1.4625484298723729E+01 
    1.5680678402937463E+01 
    1.0449762411547580E+01 
    7.0993585837903712E+00 
    7.1992631661413569E+00 
    1.0885420232646563E+01 
    1.0716813558054296E+01 
    1.5503395084062832E+00 
    1.4101328296867692E+01 
    1.6180621190167546E+01 
    1.0100625797762289E+01 
    6.5050694633126174E+00 
    1.2305783048214225E+01 
    1.4645816673518373E+01 
    7.6694508142144775E+00 
    5.2223852759712974E+00 
    1.0695881414548751E+01 
    1.4726040003351120E+01 
    1.5414980422298726E+01 
    1.5298350626804309E+01 
    1.5146138221852366E+01 
    7.5211039568084175E+00 
    1.0691366511579830E+01 
    1.4149481908643805E+01 
    8.4210474964801580E+00 
    1.4952893793901891E+01 
    1.2742435535898220E+01 
    7.3073866879147404E+00 
    1.4757716904199958E+01 
    1.5710879965560578E+01 
    1.4782397667571958E+01 
    7.3847581946842391E+00 
    1.0766318777533302E+01 
    8.1083602435201403E+00 
    1.0169367530852112E+01 
    1.4636845555367701E+01 
    1.4624389887567427E+01 
    7.4275246035160825E+00 
    1.5559414816993202E+01 
    1.1322627432924572E+01 
    1.4657693564212030E+01 
    1.5527511197068058E+01 
    1.4644629820542834E+01 
    1.3634685767325779E+01 
    1.6520290157708743E+01 
    1.0051537137731142E+01 
    1.5648697988349431E+01 
    1.4685324616595866E+01 
    1.5724261632173128E+01 
    1.5552175581462452E+01 
    1.0156638044180383E+01 
    1.0597446161573982E+01 
    1.0090822968897852E+01 
    1.3105549362758602E+01 
    4.2619245707397173E+00 
    1.0820023059680970E+01 
    1.6648751473336933E+01 
    1.0994934435081236E+01 
    1.1192136471038584E+01 
    1.5696410705990578E+01 
    1.5934471099218046E+01 
    9.9720355929306077E+00 
    1.4651950607924233E+01 
    1.4620287499889912E+01 
    1.1179062312201811E+01 
    1.5505448882880234E+01 
    7.6743032166928478E+00 
    4.8927161360119626E+00 
    1.1475309728192409E+01 
    1.1010185298820456E+01 
    1.4626532144857773E+01 
    6.9517131097765175E+00 
    1.5210525608668791E+01 
    4.9792620208285010E+00 
    1.0942512003269465E+01 
    1.0184263132724119E+01 
    1.0743147495074915E+01 
    1.7977447975765486E+01 
    4.1369140320421751E+00 
    1.0735162345772206E+01 
    1.2842392308874308E+01 
    1.0348826467085601E+01 
    8.2364812823060873E+00 
    1.5328618359899743E+01 
    1.7528303721591950E+01 
    1.5485435203318428E+01 
    1.0673090364211074E+01 
    6.1250076412905514E+00 
    1.7377769856444576E+01 
    1.4931370230600367E+01 
    7.9212631107729807E+00 
    1.0314403045719205E+01 
    1.6131226624584755E+01 
    3.5215197201967876E+00 
    1.1062882599578010E+01 
    1.5454807936352411E+01 
    1.0756909573863760E+01 
    9.3868916956484139E+00 
    1.0776092569189803E+01 
    1.4374770443030265E+01 
    1.0738493867701319E+01 
    5.4475412034854616E+00 
    9.7011245848201855E-01 
    8.0427031738938872E+00 
    1.6358408208798316E+01 
    1.0090321153608398E+01 
    1.2076659680623257E+01 
    1.1534890511279920E+01 
    1.3421135313215320E+01 
    1.0770199784811586E+01 
    1.4836257688481673E+01 
    1.7991952609884770E+01 
    1.2764098548647340E+01 
    1.5620131932262014E+01 
    5.7917751623634484E-01 
    1.4626520196702335E+01 
    6.0615070125835251E+00 
    1.6821339557194896E+01 
    1.0749173339314675E+01 
    9.5517238079053861E+00 
    8.2685737643713129E+00 
    5.7122966491500966E+00 
    1.2034733297601212E+01 
    8.5174335205808998E+00 
    1.3267695351814735E+01 
    2.3498588388772532E+00 
    1.1818465991413209E+01 
    1.4555218908167257E+01 
    6.5397904135379976E+00 
    1.5131981604147608E+01 
    1.6616116262676819E+01 
    1.4961860492835925E+01 
    1.0609311365591012E+01 
    1.0737673627841714E+01 
    1.0741710707050839E+01 
    6.1882470605694069E+00 
    9.8086880949664401E+00 
    9.6432243150620351E+00 
    1.0730394057719474E+01 
    1.0017181976757694E+01 
    7.3417369232949314E-01 
    6.9799543529978525E+00 
    1.0436736193921217E+01 
    1.0704379922427638E+01 
    1.3636136737633795E+01 
    2.3162193090918337E+00 
    1.1136673806083669E+01 
    1.1015291398866008E+01 
    3.9826717919820451E+00 
    1.4815773129286823E+01 
    9.2998949323200701E+00 
    1.0871856756883066E+01 
    1.4928048550865208E+01 
    5.7363948381240144E+00 
    1.4943253032060230E+01 
    9.4216923610535570E+00 
    1.0605429131865394E+00 
    1.0155921640975597E+01 
    1.5572316366098327E+01 
    1.4626325987018213E+01 
    1.4645300616019401E+01 
    1.1094770227617282E+01 
    1.0944845755166462E+01 
    9.2767303714523166E+00 
    7.5727466798451335E+00 
    1.5043091062064791E+01 
    1.0310781708156521E+01 
    7.3706395132932148E+00 
    1.4640991916148527E+01 
    1.5368916165448248E+01 
    1.0910079430737218E+01 
    1.0550108342855474E+01 
    1.7868860564740960E+01 
    1.1179991106365518E+01 
    1.5060998492585517E+01 
    8.8189935495971099E+00 
    1.8020679614436272E+01 
    7.1574481201155651E+00 
    9.7061090378932082E+00 
    8.0144305044128163E+00 
    1.1422361023089088E+01 
    9.1719164686233761E+00 
    1.8003975717860257E+01 
    1.1230388978815139E+01 
    1.4311359560432658E+01 
    7.3606576771362819E+00 
    1.0766257910889889E+01 
    1.4895979643083935E+01 
    9.2092892747918249E+00 
    7.8439777005298188E+00 
    1.1946311762949717E+01 
    1.5127992332313168E+01 
    7.8884321635743868E+00 
    1.0206081563560197E+01 
    1.0581478865016614E+01 
    1.4600580861177928E+01 
    1.0374851066157039E+01 
    1.5105615794649827E+01 
    1.5754220050893325E+01 
    9.3063050286476567E+00 
    9.1207420227629861E+00 
    8.5446823559489236E+00 
    1.4748890699452097E+01 
    1.1029178960917569E+01 
    1.7568059760610804E+01 
    1.3790330889446121E+01 
    1.4853406686681918E+01 
    1.7248755716345830E+01 
    1.6622987143885521E+01 
    1.0812321593506194E+01 
    1.0714700176994150E+01 
    1.4376421603639157E+01 
    1.4666492353464763E+01 
    1.5223715900831339E+01 
    1.4952882849465386E+01 
    1.7890767280445043E+01 
    1.1179500912950093E+01 
    9.4129933880884540E+00 
    1.1173554227995432E+01 
    1.5664109203873677E+01 
    1.0907905611842558E+01 
    6.3882481627692087E+00 
    1.0592586607421689E+01 
    1.6098461056067293E+01 
    1.1052912096250923E+01 
    9.4245224168781956E+00 
    1.0522865129411564E+01 
    1.6212327095272116E+01 
    1.4688946088931170E+01 
    8.9627996628314079E+00 
    1.6352606685253924E+01 
    1.0841034859513202E+01 
    1.5214202484891310E+01 
    1.6225538088557595E+01 
    1.1402370036666643E+01 
    5.7432922611943411E+00 
    1.1878367595038574E+01 
    5.9459547782497246E+00 
    1.0959682017894970E+01 
    1.0759288629070239E+01 
    1.2518784825263497E+01 
    6.2864596862206303E+00 
    1.3289981330276673E+01 
    1.0778316532673108E+01 
    1.4942524152020031E+01 
    1.1425400481361752E+01 
    8.7926613082354841E+00 
    1.0393361125573870E+01 
    1.1256374885314278E+01 
    1.1289023410621706E+01 
    1.5803459120117246E+01 
    8.9915498070014728E+00 
    8.8376419487252083E+00 
    6.6117310072733666E+00 
    1.5250951840712689E+01 
    1.0435979930445834E+01 
    1.4469673582803665E+01 
    1.0729613172901544E+01 
    7.2299160816560182E+00 
    1.4718990899068674E+01 
    1.0705499248197430E+01 
    7.8754432450157354E+00 
    8.3368633443947431E+00 
    8.6292819089968287E+00 
    1.4974490629513461E+01 
    1.0732449123208879E+01 
    1.5632430336739755E+01 
    1.0664930049138293E+01 
    1.0603746604837673E+01 
    1.0121649162495990E+01 
    1.4806362896475960E+01 
    1.0520508410121433E+01 
    8.6711227147340306E+00 
    1.6611197599011955E+01 
    1.4891053555420106E+01 
    7.4972861492234113E+00 
    2.9212560916889063E+00 
    1.0721674219129818E+01 
    1.0104699787038220E+01 
    9.1105018249857608E+00 
    9.9160821819863081E+00 
    1.4841639091011839E+01 
    1.0418551404651886E+01 
    9.4705913890356417E+00 
    1.4689387337640438E+01 
    7.4313552474540732E+00 
    1.4334671387220332E+01 
    9.7563804276387955E+00 
    8.6405573319395845E+00 
    9.1990945435747182E+00 
    1.5302544799543117E+01 
    1.0745968529423740E+01 
    1.0754120695483026E+01 
    6.3652523277688937E+00 
    6.8788699796262378E+00 
    1.3626027422750449E+01 
    1.0763912645624204E+01 
    1.0762812781346767E+01 
    1.6338466129155485E+01 
    8.8408754886630163E+00 
    1.0776176410939389E+01 
    7.6853429789220060E+00 
    7.9275459627094245E+00 
    1.4799784108739612E+01 
    1.0404353071083868E+01 
    7.5822386883028701E+00 
    1.1342077248083717E+01 
    1.0654684711572406E+01 
    1.4802661707289397E+01 
    1.6433908524287077E+01 
    1.1132107022877884E+00 
    1.0726729753518430E+01 
    1.1008185583086670E+01 
    1.4869937656867579E+01 
    1.0231694230720022E+01 
    1.0719480792142782E+01 
    1.5859601868823850E+01 
    9.2375447888837829E+00 
    7.6505647775388130E+00 
    1.2962954112909165E+01 
    1.4640763817459142E+01 
    1.5722345645622134E+01 
    1.6001420212612306E+01 
    1.0563873457981854E+01 
    1.0717898756482349E+01 
    1.2098479531696293E+01 
    7.1257805800577065E+00 
    1.4776424068273098E+01 
    8.2401340875682720E+00 
    7.4194872641261407E+00 
    1.3488356313116956E+01 
    1.2704788435497202E+01 
    7.2768991291459333E+00 
    1.4678097826881816E+01 
    1.5708018218942685E+01 
    1.1196073365336350E+01 
    1.6538767327103013E+01 
    1.4713211978556190E+01 
    1.0293887368070983E+01 
    1.5435162483176088E+01 
    7.9306819469340146E+00 
    1.4660574215295155E+01 
    1.0725592734795484E+01 
    1.0686380200245052E+01 
    1.6514202299407827E+01 
    1.0472097655059963E+01 
    1.3212856283123731E+01 
    9.1834396363240494E+00 
    1.5830785246619786E+01 
    1.4561890080544813E+01 
    9.5794755147006558E+00 
    1.4615041050135504E+01 
    9.7834207645809403E+00 
    1.0728047365436572E+01 
    1.5665871486484653E+01 
    1.4948597718334346E+01 
    1.5711251549547153E+01 
    1.4873346839547761E+01 
    9.8141662219703800E+00 
    1.0039670360394618E+01 
    1.5718653613006481E+01 
    1.0171160832176200E+01 
    1.4487294510802721E+01 
    1.0459664608982871E+01 
    4.2910872653563921E+00 
    7.4960669138526326E+00 
    6.9453741596033574E+00 
    1.5669683836896350E+01 
    1.6440828007843663E+01 
    1.4633955708377826E+01 
    1.2369801649636893E+01 
    1.4938375500290775E+01 
    1.4686924803553339E+01 
    1.5302726611816285E+01 
    6.1523774932327058E+00 
    3.9996382586401569E+00 
    1.2149239911906893E+01 
    1.0396631475245592E+01 
    1.4843434980351976E+01 
    1.4840784893745671E+01 
    1.1036531343574689E+01 
    1.4880047640086572E+01 
    1.0712040866677713E+01 
    1.0638791835992597E+01 
    5.5544828245623714E+00 
    3.9869349057300867E+00 
    1.6208473680052681E+01 
    8.4180364392537577E+00 
    9.5189605007397375E+00 
    1.0921306038448511E+01 
    1.7871026189249623E+01 
    1.1018145995433368E+01 
    1.1062793585922455E+01 
    4.5386024796676834E+00 
    1.1019852075919173E+01 
    1.1035774505467321E+01 
    1.5172039484320660E+01 
    9.2060169159552352E+00 
    1.0297142974110111E+01 
    1.6382612673185040E+01 
    1.0735303472682016E+01 
    1.4650453227160083E+01 
    1.4913425780004973E+01 
    1.3189567976118992E+01 
    9.1454990198048414E+00 
    1.4872943958183297E+01 
    1.0527817212044170E+01 
    1.4834516988975938E+01 
    1.4586156458208746E+01 
    1.5689656593520397E+01 
    1.4871072441602495E+01 
    1.3946384635008872E+01 
    1.0723603463913962E+01 
    7.2215453241707621E+00 
    1.7741446898807808E+01 
    8.4071673052739051E+00 
    1.5615898667088571E+01 
    1.0720969701807626E+01 
    8.8877834275497971E+00 
    5.3410596899061433E+00 
    1.1076361777595025E+01 
    1.4859067262656485E+01 
    1.4855402083381229E+01 
    1.0708709949561536E+01 
    1.0715046422853273E+01 
    1.6595610945654091E+01 
    1.5942516814686069E+01 
    1.1037688768953100E+01 
    3.7207139960750895E+00 
    1.3876146509609825E+01 
    1.8001189579715035E+01 
    1.0726967086846768E+01 
    1.2768473414958985E+01 
    1.0230548990495191E+01 
    1.7594583743570233E+01 
    1.6025283223619194E+01 
    1.5753586928853705E+01 
    1.1060582297167310E+01 
    4.9759694688339389E+00 
    1.0186106499582539E+01 
    1.0255806576665080E+01 
    1.0296667891152120E+01 
    4.0531065508355946E+00 