# vtk DataFile Version 2.0
Pressure Field Data 
ASCII 
DATASET UNSTRUCTURED_GRID 

POINTS 2860 double 

    0.0000000000000000E+00     0.0000000000000000E+00     0.0000000000000000E+00 
    1.0000000000000000E+00     0.0000000000000000E+00     0.0000000000000000E+00 
    1.0000000000000000E+00     1.0000000000000000E+00     0.0000000000000000E+00 
    0.0000000000000000E+00     1.0000000000000000E+00     0.0000000000000000E+00 
    2.5000000000000000E-01     2.5000000000000000E-01     0.0000000000000000E+00 
    7.5000000000000000E-01     2.5000000000000000E-01     0.0000000000000000E+00 
    7.5000000000000000E-01     7.5000000000000000E-01     0.0000000000000000E+00 
    2.5000000000000000E-01     7.5000000000000000E-01     0.0000000000000000E+00 
    3.1249999999942091E-02     0.0000000000000000E+00     0.0000000000000000E+00 
    6.2499999999873469E-02     0.0000000000000000E+00     0.0000000000000000E+00 
    9.3749999999826514E-02     0.0000000000000000E+00     0.0000000000000000E+00 
    1.2499999999977961E-01     0.0000000000000000E+00     0.0000000000000000E+00 
    1.5624999999968961E-01     0.0000000000000000E+00     0.0000000000000000E+00 
    1.8749999999959971E-01     0.0000000000000000E+00     0.0000000000000000E+00 
    2.1874999999950970E-01     0.0000000000000000E+00     0.0000000000000000E+00 
    2.4999999999941969E-01     0.0000000000000000E+00     0.0000000000000000E+00 
    2.8124999999932920E-01     0.0000000000000000E+00     0.0000000000000000E+00 
    3.1249999999923850E-01     0.0000000000000000E+00     0.0000000000000000E+00 
    3.4374999999914790E-01     0.0000000000000000E+00     0.0000000000000000E+00 
    3.7499999999905720E-01     0.0000000000000000E+00     0.0000000000000000E+00 
    4.0624999999896660E-01     0.0000000000000000E+00     0.0000000000000000E+00 
    4.3749999999887590E-01     0.0000000000000000E+00     0.0000000000000000E+00 
    4.6874999999878530E-01     0.0000000000000000E+00     0.0000000000000000E+00 
    4.9999999999869471E-01     0.0000000000000000E+00     0.0000000000000000E+00 
    5.3124999999877620E-01     0.0000000000000000E+00     0.0000000000000000E+00 
    5.6249999999885780E-01     0.0000000000000000E+00     0.0000000000000000E+00 
    5.9374999999893940E-01     0.0000000000000000E+00     0.0000000000000000E+00 
    6.2499999999902101E-01     0.0000000000000000E+00     0.0000000000000000E+00 
    6.5624999999910261E-01     0.0000000000000000E+00     0.0000000000000000E+00 
    6.8749999999918421E-01     0.0000000000000000E+00     0.0000000000000000E+00 
    7.1874999999926570E-01     0.0000000000000000E+00     0.0000000000000000E+00 
    7.4999999999934730E-01     0.0000000000000000E+00     0.0000000000000000E+00 
    7.8124999999942890E-01     0.0000000000000000E+00     0.0000000000000000E+00 
    8.1249999999951039E-01     0.0000000000000000E+00     0.0000000000000000E+00 
    8.4374999999959199E-01     0.0000000000000000E+00     0.0000000000000000E+00 
    8.7499999999967359E-01     0.0000000000000000E+00     0.0000000000000000E+00 
    9.0624999999975520E-01     0.0000000000000000E+00     0.0000000000000000E+00 
    9.3749999999983680E-01     0.0000000000000000E+00     0.0000000000000000E+00 
    9.6874999999991840E-01     0.0000000000000000E+00     0.0000000000000000E+00 
    1.0000000000000000E+00     3.1249999999942091E-02     0.0000000000000000E+00 
    1.0000000000000000E+00     6.2499999999873469E-02     0.0000000000000000E+00 
    1.0000000000000000E+00     9.3749999999826514E-02     0.0000000000000000E+00 
    1.0000000000000000E+00     1.2499999999977961E-01     0.0000000000000000E+00 
    1.0000000000000000E+00     1.5624999999968961E-01     0.0000000000000000E+00 
    1.0000000000000000E+00     1.8749999999959971E-01     0.0000000000000000E+00 
    1.0000000000000000E+00     2.1874999999950970E-01     0.0000000000000000E+00 
    1.0000000000000000E+00     2.4999999999941969E-01     0.0000000000000000E+00 
    1.0000000000000000E+00     2.8124999999932920E-01     0.0000000000000000E+00 
    1.0000000000000000E+00     3.1249999999923850E-01     0.0000000000000000E+00 
    1.0000000000000000E+00     3.4374999999914790E-01     0.0000000000000000E+00 
    1.0000000000000000E+00     3.7499999999905720E-01     0.0000000000000000E+00 
    1.0000000000000000E+00     4.0624999999896660E-01     0.0000000000000000E+00 
    1.0000000000000000E+00     4.3749999999887590E-01     0.0000000000000000E+00 
    1.0000000000000000E+00     4.6874999999878530E-01     0.0000000000000000E+00 
    1.0000000000000000E+00     4.9999999999869471E-01     0.0000000000000000E+00 
    1.0000000000000000E+00     5.3124999999877620E-01     0.0000000000000000E+00 
    1.0000000000000000E+00     5.6249999999885780E-01     0.0000000000000000E+00 
    1.0000000000000000E+00     5.9374999999893940E-01     0.0000000000000000E+00 
    1.0000000000000000E+00     6.2499999999902101E-01     0.0000000000000000E+00 
    1.0000000000000000E+00     6.5624999999910261E-01     0.0000000000000000E+00 
    1.0000000000000000E+00     6.8749999999918421E-01     0.0000000000000000E+00 
    1.0000000000000000E+00     7.1874999999926570E-01     0.0000000000000000E+00 
    1.0000000000000000E+00     7.4999999999934730E-01     0.0000000000000000E+00 
    1.0000000000000000E+00     7.8124999999942890E-01     0.0000000000000000E+00 
    1.0000000000000000E+00     8.1249999999951039E-01     0.0000000000000000E+00 
    1.0000000000000000E+00     8.4374999999959199E-01     0.0000000000000000E+00 
    1.0000000000000000E+00     8.7499999999967359E-01     0.0000000000000000E+00 
    1.0000000000000000E+00     9.0624999999975520E-01     0.0000000000000000E+00 
    1.0000000000000000E+00     9.3749999999983680E-01     0.0000000000000000E+00 
    1.0000000000000000E+00     9.6874999999991840E-01     0.0000000000000000E+00 
    9.6875000000003686E-01     1.0000000000000000E+00     0.0000000000000000E+00 
    9.3750000000011691E-01     1.0000000000000000E+00     0.0000000000000000E+00 
    9.0625000000015765E-01     1.0000000000000000E+00     0.0000000000000000E+00 
    8.7500000000017863E-01     1.0000000000000000E+00     0.0000000000000000E+00 
    8.4375000000028044E-01     1.0000000000000000E+00     0.0000000000000000E+00 
    8.1250000000040856E-01     1.0000000000000000E+00     0.0000000000000000E+00 
    7.8125000000054956E-01     1.0000000000000000E+00     0.0000000000000000E+00 
    7.5000000000066480E-01     1.0000000000000000E+00     0.0000000000000000E+00 
    7.1875000000086831E-01     1.0000000000000000E+00     0.0000000000000000E+00 
    6.8750000000102829E-01     1.0000000000000000E+00     0.0000000000000000E+00 
    6.5625000000114431E-01     1.0000000000000000E+00     0.0000000000000000E+00 
    6.2500000000129829E-01     1.0000000000000000E+00     0.0000000000000000E+00 
    5.9375000000147926E-01     1.0000000000000000E+00     0.0000000000000000E+00 
    5.6250000000168354E-01     1.0000000000000000E+00     0.0000000000000000E+00 
    5.3125000000188671E-01     1.0000000000000000E+00     0.0000000000000000E+00 
    5.0000000000205835E-01     1.0000000000000000E+00     0.0000000000000000E+00 
    4.6875000000192979E-01     1.0000000000000000E+00     0.0000000000000000E+00 
    4.3750000000180111E-01     1.0000000000000000E+00     0.0000000000000000E+00 
    4.0625000000167238E-01     1.0000000000000000E+00     0.0000000000000000E+00 
    3.7500000000154382E-01     1.0000000000000000E+00     0.0000000000000000E+00 
    3.4375000000141509E-01     1.0000000000000000E+00     0.0000000000000000E+00 
    3.1250000000128642E-01     1.0000000000000000E+00     0.0000000000000000E+00 
    2.8125000000115769E-01     1.0000000000000000E+00     0.0000000000000000E+00 
    2.5000000000102918E-01     1.0000000000000000E+00     0.0000000000000000E+00 
    2.1875000000090050E-01     1.0000000000000000E+00     0.0000000000000000E+00 
    1.8750000000077180E-01     1.0000000000000000E+00     0.0000000000000000E+00 
    1.5625000000064329E-01     1.0000000000000000E+00     0.0000000000000000E+00 
    1.2500000000051459E-01     1.0000000000000000E+00     0.0000000000000000E+00 
    9.3750000000385914E-02     1.0000000000000000E+00     0.0000000000000000E+00 
    6.2500000000257239E-02     1.0000000000000000E+00     0.0000000000000000E+00 
    3.1250000000128557E-02     1.0000000000000000E+00     0.0000000000000000E+00 
    0.0000000000000000E+00     9.6875000000003686E-01     0.0000000000000000E+00 
    0.0000000000000000E+00     9.3750000000011691E-01     0.0000000000000000E+00 
    0.0000000000000000E+00     9.0625000000015765E-01     0.0000000000000000E+00 
    0.0000000000000000E+00     8.7500000000017863E-01     0.0000000000000000E+00 
    0.0000000000000000E+00     8.4375000000028044E-01     0.0000000000000000E+00 
    0.0000000000000000E+00     8.1250000000040856E-01     0.0000000000000000E+00 
    0.0000000000000000E+00     7.8125000000054956E-01     0.0000000000000000E+00 
    0.0000000000000000E+00     7.5000000000066480E-01     0.0000000000000000E+00 
    0.0000000000000000E+00     7.1875000000086831E-01     0.0000000000000000E+00 
    0.0000000000000000E+00     6.8750000000102829E-01     0.0000000000000000E+00 
    0.0000000000000000E+00     6.5625000000114431E-01     0.0000000000000000E+00 
    0.0000000000000000E+00     6.2500000000129829E-01     0.0000000000000000E+00 
    0.0000000000000000E+00     5.9375000000147926E-01     0.0000000000000000E+00 
    0.0000000000000000E+00     5.6250000000168354E-01     0.0000000000000000E+00 
    0.0000000000000000E+00     5.3125000000188671E-01     0.0000000000000000E+00 
    0.0000000000000000E+00     5.0000000000205835E-01     0.0000000000000000E+00 
    0.0000000000000000E+00     4.6875000000192979E-01     0.0000000000000000E+00 
    0.0000000000000000E+00     4.3750000000180111E-01     0.0000000000000000E+00 
    0.0000000000000000E+00     4.0625000000167238E-01     0.0000000000000000E+00 
[...]
CELL_DATA 2795 
SCALARS Pressure double 1 
LOOKUP_TABLE default 

    6.7526113310413471E+00 
    1.5317567583773762E+01 
    1.0785099965466250E+01 
    1.0405037620593298E+01 
    8.2852954753350119E+00 
    1.5174536328870428E+01 
    1.5938327591009294E+01 
    6.0400401762620453E+00 
    1.1334365354455562E+01 
    8.7193471946472521E+00 
    7.4476300465875873E+00 
    1.4903041863759352E+01 
    1.5224210543050775E+01 
    1.5141783989476416E+01 
    9.9633262437313572E+00 
    5.9416901987279207E+00 
    9.5752121322943999E+00 
    7.9263995445327540E+00 
    1.4516512948301378E+01 
    1.0771080244879499E+01 
    1.0666968078880714E+01 
    1.5072851562668898E+01 
    1.0121448268433797E+01 
    3.9639539458657225E-01 
    1.4906573132876119E+01 
    1.5189622448399254E+01 
    1.5970660374635465E+01 
    7.1666023347387933E+00 
    1.4818744018294840E+01 
    1.5964145268196821E+01 
    1.0855803014399314E+01 
    1.0982057615432048E+01 
    7.7614142347222668E+00 
    1.0748012395441123E+01 
    3.4925436332129483E+00 
    9.5808039706127595E+00 
    1.0735690918979991E+01 
    1.6005197357234799E+01 
    1.5914139473782251E+01 
    1.4916488156591639E+01 
    8.2431303125120046E+00 
    1.4881771988243752E+01 
    8.2419733114506066E-01 
    1.0663547564225048E+01 
    1.5727950787060461E+01 
    1.5532200384101760E+01 
    1.4891788845642740E+01 
    1.1738394728919952E+01 
    1.4963198437272078E+01 
    9.7938837911457153E+00 
    9.3339592160270364E+00 
    1.0947549930870434E+01 
    1.0551648854532935E+01 
    9.6319872100169768E+00 
    1.0925830076317775E+01 
    1.4292799326722516E+01 
    1.2759662326260415E+01 
    8.3297652864525880E+00 
    1.5077467482267908E+01 
    1.4995138650200913E+01 
    1.0383399815115970E+01 
    1.0379377353762310E+01 
    1.0301588405405431E+01 
    1.5862475360856143E+01 
    1.6132477649976572E+01 
    9.5868721042020155E+00 
    1.0946354187178084E+01 
    1.4768266480527183E+01 
    1.2624696678549215E+01 
    1.0429817385894934E+01 
    1.6134943032497262E+01 
    1.5026304685228606E+01 
    9.4521507747992661E+00 
    1.5643357700814716E+01 
    1.1163904796390096E+01 
    1.4748080865936251E+01 
    1.6016757813816383E+01 
    1.1235405298548818E+01 
    6.9653163464454062E+00 
    1.0964545927520852E+01 
    1.5923730104271213E+01 
    1.6165566701639563E+01 
    9.6005408537877326E+00 
    1.0885644109161458E+01 
    1.6212579538279861E+01 
    1.0736725979624826E+01 
    1.0212936696123629E+01 
    1.3078894012106437E+01 
    6.6145646962397109E+00 
    9.3579955419988288E+00 
    1.0884230696484543E+01 
    1.1501092938359891E+01 
    1.7718220066432597E+01 
    8.0539283012765157E+00 
    1.0954248760278764E+01 
    1.4868431835477262E+01 
    1.5172975031977622E+01 
    7.1051688271491678E+00 
    1.0604321552782904E+01 
    1.0915618209782787E+01 
    1.5194547321812335E+01 
    1.0912266335574355E+01 
    1.5122415138303646E+01 
    4.3264956454236412E+00 
    7.2427056458900685E+00 
    1.1173177944556564E+01 
    1.5325779851687972E+01 
    9.5433943327341737E+00 
    1.0150339620598148E+01 
    1.0893921655842794E+01 
    1.0176879600806584E+01 
    1.2327371188417262E+01 
    9.8776553405538756E+00 
    9.4616958795681523E+00 
    7.5400438215680099E+00 
    1.2850315288294919E+01 
    1.0985269104147335E+01 
    1.5770668704117250E+01 
    9.4528571495092049E+00 
    1.0384572388402464E+01 
    1.5014231468484351E+01 
    8.6848323308148725E+00 
    1.5484799708727129E+01 
    1.0811491636124346E+01 
    1.0310723574991487E+01 
    1.5175175677888539E+01 
    1.0976872227853061E+01 
    1.6028553316125272E+01 
    1.3094909005835806E+01 
    1.4126478626782040E+01 
    1.5988082586763358E+01 
    8.0700748791298373E+00 
    1.1200038247991568E+01 
    1.5174498625906065E+01 
    3.2384162429203531E+00 
    1.0903974526757519E+01 
    1.5953026906643707E+01 
    1.0340571850358389E+01 
    1.1941713577019874E+01 
    7.1127866784390088E+00 
    1.4866210455301704E+01 
    1.8219225913930053E+01 
    1.3603418468244216E+01 
    1.0340455174461715E+01 
    9.2521103527075361E+00 
    1.1576465554310303E+01 
    1.0828323788629639E+01 
    7.5260566948557832E+00 
    1.5984126454029639E+01 
    1.5225493259327745E+01 
    1.4870197293487198E+01 
    1.1521286819202199E+01 
    9.4239264598436243E+00 
    1.0664601164188459E+01 
    1.5673551455561730E+01 
    9.6913405064427618E+00 
    1.0838990814528710E+01 
    9.8673525535769446E+00 
    1.2573305203090504E+01 
    1.8207138676707874E+01 
    1.4861307603696448E+01 
    9.4156750246952665E+00 
    1.5376666036734452E+01 
    1.5283501778518284E+01 
    1.5366777409192025E+01 
    1.6418586601281554E+01 
    1.6977869872261632E+01 
    1.5528640001644019E+01 
    1.0938126307837727E+01 
    1.1789469369514803E+01 
    1.5348932197208940E+01 
    1.5783245620558613E+01 
    7.8537772237785237E+00 
    1.4891418931805232E+01 
    1.5634213567950336E+01 
    7.6479004274324174E+00 
    1.6332724369924112E+01 
    1.6313812314165414E+01 
    1.4590515808732119E+01 
    1.1281886076793649E+01 
    2.8495063482825067E+00 
    1.5954311449118931E+01 
    1.1111364991737627E+01 
    1.6080701913358396E+01 
    1.0266433382755755E+01 
    1.5781585441195208E+01 
    1.0150138644693394E+00 
    1.4142862068387874E+01 
    1.0425337233964431E+01 
    9.3774762679454149E+00 
    9.1408499080010621E+00 
    1.0780781924507467E+01 
    1.1948064316784864E+01 
    1.1270894983172603E+01 
    7.6753741540339178E+00 
    1.5777511583495084E+01 
    1.5199078699742902E+01 
    1.2757064181076961E+01 
    1.1166030376962977E+01 
    1.6518933501820734E+00 
    8.4390062985396543E+00 
    5.8887887427903722E+00 
    1.5975005364457044E+01 
    1.2063154103003182E+01 
    1.5241697212943402E+01 
    1.5268813746312370E+01 
    9.7735606762971763E+00 
    1.2657941019661084E+01 
    1.4865314528289712E+01 
    1.6296102543003194E+01 
    7.0599060697128353E+00 
    1.3448153129767858E+01 
    1.1282654220478150E+01 
    6.2835474769148654E+00 
    9.7664171629313987E+00 
    1.3317428335963697E+01 
    1.5228636745961161E+01 
    1.0833596208693056E+01 
    1.5343851169604955E+01 
    1.5098839170318163E+01 
    1.5045029625350839E+01 
    1.0670154303332707E+01 
    9.3079283450222494E+00 
    1.4878479879154717E+01 
    9.4477648407804313E+00 
    1.0918372230155068E+01 
    9.2613201931314268E+00 
    1.0784867459215565E+01 
    1.5278546617523293E+01 
    6.8134067289208495E+00 
    9.6685377981651133E+00 
    1.5886128772405227E+01 
    1.0680971715502992E+01 
    1.1962173501277226E+01 
    6.9899808014234619E+00 
    9.5142342842772241E+00 
    1.5075810629157314E+01 
    1.5402085838589720E+01 
    5.7064200547518684E+00 
    1.0688858270708153E+01 
    9.3150267276083998E+00 
    1.6736209159792491E+01 
    1.6174378699665315E+01 
    1.7006431729450838E+01 
    1.0708868310108553E+01 
    1.5250139254994838E+01 
    1.4818656507251125E+01 
    1.0575601395792937E+01 
    1.4870629882687572E+01 
    1.1166565618241009E+01 
    6.3810552962303300E+00 
    1.0981826294301307E+01 
    1.5870932921706181E+01 
    1.4867249979078784E+01 
    7.4102886410591902E+00 
    1.4898841076537973E+01 
    1.1967094132638787E+01 
    1.0883231078682353E+01 
    1.0417798012890843E+01 
    1.4724845564530744E+01 
    1.1416648445179327E+01 
    1.4884193780007642E+01 
    1.0593431726901782E+01 
    6.6261433437890487E+00 
    1.0990890499301674E+01 
    9.1524939662465243E+00 
    1.3609036167817310E+01 
    1.6079003887240152E+01 
    1.4876611341640087E+01 
    1.5946476722327363E+01 
    1.0626718514103869E+01 
    7.2171987692529926E+00 
    7.3187095818790286E+00 
    1.1073736722663337E+01 
    1.0893077909897706E+01 
    1.5788443926695097E+00 
    1.4343365362803597E+01 
    1.6451552673518382E+01 
    1.0281698993696585E+01 
    6.6313528973458107E+00 
    1.2520429851474294E+01 
    1.4897247302508250E+01 
    7.8125941639874954E+00 
    5.3219007538763616E+00 
    1.0872826588666744E+01 
    1.4977264394154446E+01 
    1.5677367801409268E+01 
    1.5558106947797699E+01 
    1.5405422621072750E+01 
    7.6678938517610256E+00 
    1.0877788810600551E+01 
    1.4394722592646710E+01 
    8.5602437724041867E+00 
    1.5210499757264740E+01 
    1.2925023067095189E+01 
    7.4285418489655708E+00 
    1.5009717450660949E+01 
    1.5977481170226451E+01 
    1.5036399571225514E+01 
    7.5226051982896216E+00 
    1.0942521110092525E+01 
    8.2581738558472022E+00 
    1.0336507675976044E+01 
    1.4888172676543588E+01 
    1.4875535845195969E+01 
    7.5661029059621692E+00 
    1.5823293441363797E+01 
    1.1501077427725477E+01 
    1.4908922581905545E+01 
    1.5791508316957350E+01 
    1.4895901730123914E+01 
    1.3866359034500642E+01 
    1.6794080463562373E+01 
    1.0231431529800954E+01 
    1.5914088853256521E+01 
    1.4936714268571643E+01 
    1.5990553797459079E+01 
    1.5816021455264599E+01 
    1.0338025474832891E+01 
    1.0775892569605121E+01 
    1.0271791299716035E+01 
    1.3326899220728473E+01 
    4.3424079642511586E+00 
    1.1007568373654934E+01 
    1.6923319666471585E+01 
    1.1169234376061656E+01 
    1.1368714467960020E+01 
    1.5962406769896955E+01 
    1.6202668380365647E+01 
    1.0149170344985610E+01 
    1.4903496405376035E+01 
    1.4871365209826637E+01 
    1.1355442649395505E+01 
    1.5768793469769028E+01 
    7.8013728023957167E+00 
    4.9764883078571476E+00 
    1.1655906085047411E+01 
    1.1183971918363635E+01 
    1.4877630239197975E+01 
    7.0827077757397472E+00 
    1.5469642368161042E+01 
    5.0633537700796047E+00 
    1.1117391986963046E+01 
    1.0364162953321051E+01 
    1.0919394955683769E+01 
    1.8259082224484434E+01 
    4.2137586717360866E+00 
    1.0921937985275358E+01 
    1.3067662172347539E+01 
    1.0524721506698498E+01 
    8.4005023439528461E+00 
    1.5589791693753421E+01 
    1.7807993950781242E+01 
    1.5748261872366268E+01 
    1.0859132796321346E+01 
    6.2418208794361041E+00 
    1.7656509007842786E+01 
    1.5188368765893358E+01 
    8.0854834548117509E+00 
    1.0498809105040731E+01 
    1.6401267524119856E+01 
    3.5875391758689119E+00 
    1.1237745597990976E+01 
    1.5718305234955597E+01 
    1.0933368946519233E+01 
    9.5415770254975367E+00 
    1.0963256157343109E+01 
    1.4617947922862296E+01 
    1.0915048927436031E+01 
    5.5519283692503647E+00 
    9.8880138404462237E-01 
    8.1767615535325806E+00 
    1.6631056910297737E+01 
    1.0271284924774164E+01 
    1.2263109324563789E+01 
    1.1727792880384008E+01 
    1.3628789542950781E+01 
    1.0946705668866402E+01 
    1.5092010644611870E+01 
    1.8273637978685105E+01 
    1.2981599752580539E+01 
    1.5885164869753728E+01 
    5.8967373262620071E-01 
    1.4877694014728734E+01 
    6.1814130644271410E+00 
    1.7096964151760762E+01 
    1.0936079585025777E+01 
    9.7122849307254704E+00 
    8.4209452348919189E+00 
    5.8213039686375661E+00 
    1.2234567318396438E+01 
    8.6603387966002163E+00 
    1.3495206142570950E+01 
    2.3929890050090594E+00 
    1.2004607197643937E+01 
    1.4805170042494975E+01 
    6.6495133631856751E+00 
    1.5385091730802126E+01 
    1.6889816726516624E+01 
    1.5213327302013219E+01 
    1.0794568659093732E+01 
    1.0913844132688773E+01 
    1.0928551493372364E+01 
    6.3061325611453318E+00 
    9.9853232527796152E+00 
    9.8173245592296556E+00 
    1.0917122731509908E+01 
    1.0197049649146473E+01 
    7.4789503390184597E-01 
    7.1182700617534529E+00 
    1.0622762290772672E+01 
    1.0890804061280148E+01 
    1.3869788008028584E+01 
    2.3590375175682436E+00 
    1.1312490423805523E+01 
    1.1189640753443969E+01 
    4.0575581951807980E+00 
    1.5066597919385018E+01 
    9.4685942360055311E+00 
    1.1047403996666063E+01 
    1.5185150553869377E+01 
    5.8461558697170686E+00 
    1.5193361788315743E+01 
    9.5923656351048177E+00 
    1.0792426803505755E+00 
    1.0337851267251493E+01 
    1.5836754598934833E+01 
    1.4877494066129046E+01 
    1.4896697506751851E+01 
    1.1284743406801576E+01 
    1.1120189186066035E+01 
    9.4449982059281776E+00 
    7.7299282695339357E+00 
    1.5301871901456504E+01 
    1.0494896215556368E+01 
    7.5216546863067988E+00 
    1.4892347153118374E+01 
    1.5628920855509547E+01 
    1.1098482012513228E+01 
    1.0727859412468309E+01 
    1.8149953045558380E+01 
    1.1356399051488788E+01 
    1.5319665429691844E+01 
    8.9814017346161954E+00 
    1.8302393694246035E+01 
    7.2762697300750983E+00 
    9.8796326344491820E+00 
    8.1469661163817069E+00 
    1.1602389744872434E+01 
    9.3254256726580369E+00 
    1.8285643074797374E+01 
    1.1407532762642639E+01 
    1.4555883543648401E+01 
    7.4826521858785844E+00 
    1.0942526072717508E+01 
    1.5152468220420085E+01 
    9.3633685111993898E+00 
    8.0035277448204099E+00 
    1.2157326680262273E+01 
    1.5386451579067348E+01 
    8.0189699317962742E+00 
    1.0386350530894612E+01 
    1.0759901770320338E+01 
    1.4851377180848706E+01 
    1.0550638669886620E+01 
    1.5364407607176361E+01 
    1.6020823070767236E+01 
    9.4752936800274572E+00 
    9.2874627924844688E+00 
    8.6858326568277189E+00 
    1.5001381257590953E+01 
    1.1206939590345703E+01 
    1.7847904335393821E+01 
    1.4006387477246665E+01 
    1.5109404559840222E+01 
    1.7526737209477041E+01 
    1.6896654813427137E+01 
    1.0988726190431397E+01 
    1.0901251159977971E+01 
    1.4622888998098501E+01 
    1.4918252898394121E+01 
    1.5484798747492803E+01 
    1.5210214472800534E+01 
    1.8172144712479611E+01 
    1.1355898592826367E+01 
    9.5833969499874581E+00 
    1.1349205640309954E+01 
    1.5929708729448413E+01 
    1.1084215592817939E+01 
    6.4954597513846242E+00 
    1.0777644293895293E+01 
    1.6368369490621486E+01 
    1.1227576241674944E+01 
    9.5951567264049942E+00 
    1.0701273877367978E+01 
    1.6483245042227413E+01 
    1.4942495633710312E+01 
    9.1314767414230396E+00 
    1.6624706983776726E+01 
    1.1017411527876977E+01 
    1.5474373227453224E+01 
    1.6496571111984316E+01 
    1.1595121578409241E+01 
    5.8532531371876759E+00 
    1.2080509156745919E+01 
    6.0594121331390989E+00 
    1.1134529434004245E+01 
    1.0936058704493009E+01 
    1.2733831291714711E+01 
    6.4072900079822199E+00 
    1.3519259208149103E+01 
    1.0954703444515440E+01 
    1.5199688375761978E+01 
    1.1628087623892323E+01 
    8.9664887093361294E+00 
    1.0570065264583269E+01 
    1.1447834502469597E+01 
    1.1466895347029260E+01 
    1.6070686636250173E+01 
    9.1554123311866444E+00 
    8.9991434441200671E+00 
    6.7392520727313565E+00 
    1.5512240769393635E+01 
    1.0613321886364817E+01 
    1.4719614204740710E+01 
    1.0906158230847726E+01 
    7.3686341437232796E+00 
    1.4972930233120231E+01 
    1.0882184932883316E+01 
    8.0239769890016195E+00 
    8.4917197173931847E+00 
    8.7881800741689791E+00 
    1.5232165025669060E+01 
    1.0919200062587278E+01 
    1.5897658851446515E+01 
    1.0841830719876169E+01 
    1.0780812587695362E+01 
    1.0300986167537587E+01 
    1.5061663525610802E+01 
    1.0697326850785888E+01 
    8.8301016065859308E+00 
    1.6884878122432376E+01 
    1.5147630252546550E+01 
    7.6214289149991892E+00 
    2.9750231435670687E+00 
    1.0908327614353571E+01 
    1.0275934721806729E+01 
    9.2761698034928113E+00 
    1.0092714709608623E+01 
    1.5095939457632079E+01 
    1.0601594103382558E+01 
    9.6415886007313958E+00 
    1.4941460109261564E+01 
    7.5546653700518878E+00 
    1.4580748258645075E+01 
    9.9199231180277341E+00 
    8.8078620817297484E+00 
    9.3661638782089831E+00 
    1.5563736230843450E+01 
    1.0922173523820243E+01 
    1.0930358307867804E+01 
    6.4861502437225074E+00 
    7.0084234006227843E+00 
    1.3852453771740391E+01 
    1.0940151343899071E+01 
    1.0949890307068459E+01 
    1.6610573187963364E+01 
    9.0027354521399428E+00 
    1.0952398135730936E+01 
    7.8131101652276485E+00 
    8.0599814034045032E+00 
    1.5054737149775821E+01 
    1.0579782984089807E+01 
    7.7234635737572335E+00 
    1.1518852638808134E+01 
    1.0832702504026001E+01 
    1.5057776705048637E+01 
    1.6706750951046210E+01 
    1.1319462839613010E+00 
    1.0913438339528708E+01 
    1.1182137093654431E+01 
    1.5126176248127445E+01 
    1.0414471292214703E+01 
    1.0895558352958226E+01 
    1.6127687839590003E+01 
    9.4053894942945035E+00 
    7.7930725765264075E+00 
    1.3161205811095675E+01 
    1.4892138076350127E+01 
    1.5988552678293710E+01 
    1.6270115210846434E+01 
    1.0748797864495099E+01 
    1.0904492435283014E+01 
    1.2293023392196298E+01 
    7.2443059363328448E+00 
    1.5029850373389674E+01 
    8.3919975714239001E+00 
    7.5424008830877476E+00 
    1.3705342387891559E+01 
    1.2913946782201352E+01 
    7.3976195859111753E+00 
    1.4929934723076885E+01 
    1.5974105603851202E+01 
    1.1372710882901297E+01 
    1.6812459356628359E+01 
    1.4965549666707819E+01 
    1.0476475800163954E+01 
    1.5697785966862353E+01 
    8.0624194726831409E+00 
    1.4912236894675756E+01 
    1.0912279670377078E+01 
    1.0872737785710582E+01 
    1.6787910585010671E+01 
    1.0650142282377205E+01 
    1.3433242843296281E+01 
    9.3506979861974884E+00 
    1.6098170453416031E+01 
    1.4812021152632569E+01 
    9.7525720340431672E+00 
    1.4866006354256326E+01 
    9.9485840736453941E+00 
    1.0903924111845949E+01 
    1.5931470227868473E+01 
    1.5206130797912632E+01 
    1.5977361174278505E+01 
    1.5129644442359698E+01 
    9.9908215666941320E+00 
    1.0218940498703738E+01 
    1.5984871742016875E+01 
    1.0352190624968767E+01 
    1.4735471917008750E+01 
    1.0637158465858805E+01 
    4.3705907675244386E+00 
    7.6202446513586013E+00 
    7.0609889058379984E+00 
    1.5935342449386964E+01 
    1.6713811408193404E+01 
    1.4885206929778505E+01 
    1.2562013884599887E+01 
    1.5193795585914662E+01 
    1.4938993647396499E+01 
    1.5563542688718572E+01 
    6.2699057921151038E+00 
    4.0733696008240736E+00 
    1.2336302295257751E+01 
    1.0581061374766062E+01 
    1.5097860811167118E+01 
    1.5095173820743858E+01 
    1.1210837469037514E+01 
    1.5135008504491609E+01 
    1.0898567880304054E+01 
    1.0823755881668697E+01 
    5.6606431576206253E+00 
    4.0610653821791489E+00 
    1.6479299086370279E+01 
    8.5587209395354602E+00 
    9.6911028804541246E+00 
    1.1096651323216726E+01 
    1.8152220972445495E+01 
    1.1192069743588517E+01 
    1.1250095759581564E+01 
    4.6233834527898026E+00 
    1.1193523507115676E+01 
    1.1209608575649249E+01 
    1.5427583998853441E+01 
    9.3733288979215850E+00 
    1.0469511374341584E+01 
    1.6655011923081013E+01 
    1.0922108167482266E+01 
    1.4901929071562275E+01 
    1.5164245924402573E+01 
    1.3394675890888234E+01 
    9.2998835833260411E+00 
    1.5129253727899238E+01 
    1.0712852081548238E+01 
    1.5084668081880853E+01 
    1.4836733226663375E+01 
    1.5955546097435400E+01 
    1.5127293803141612E+01 
    1.4183441667858313E+01 
    1.0910265528251317E+01 
    7.3414649607377500E+00 
    1.8022102513707615E+01 
    8.5617503470683367E+00 
    1.5880518277120858E+01 
    1.0907607213941755E+01 
    9.0502913650620247E+00 
    5.4387144839197079E+00 
    1.1250867269129561E+01 
    1.5115153135848034E+01 
    1.5111453087656843E+01 
    1.0884517013588358E+01 
    1.0901628947087106E+01 
    1.6869571706517391E+01 
    1.6210672255137812E+01 
    1.1211817361435331E+01 
    3.7888689181755986E+00 
    1.4104814372984571E+01 
    1.8282773167330394E+01 
    1.0913659427729858E+01 
    1.2966398413208584E+01 
    1.0413456211445036E+01 
    1.7874447056883895E+01 
    1.6294381772449690E+01 
    1.6020547054934919E+01 
    1.1234843040036191E+01 
    5.0623483987886999E+00 
    1.0368508362127114E+01 
    1.0438843385423183E+01 
    1.0479827139444447E+01 
    4.1278471041291640E+00 