# vtk DataFile Version 2.0
Pressure Field Data 
ASCII 
DATASET UNSTRUCTURED_GRID 

POINTS 2860 double 

    0.0000000000000000E+00     0.0000000000000000E+00     0.0000000000000000E+00 
    1.0000000000000000E+00     0.0000000000000000E+00     0.0000000000000000E+00 
    1.0000000000000000E+00     1.0000000000000000E+00     0.0000000000000000E+00 
    0.0000000000000000E+00     1.0000000000000000E+00     0.0000000000000000E+00 
    2.5000000000000000E-01     2.5000000000000000E-01     0.0000000000000000E+00 
    7.5000000000000000E-01     2.5000000000000000E-01     0.0000000000000000E+00 
    7.5000000000000000E-01     7.5000000000000000E-01     0.0000000000000000E+00 
    2.5000000000000000E-01     7.5000000000000000E-01     0.0000000000000000E+00 
    3.1249999999942091E-02     0.0000000000000000E+00     0.0000000000000000E+00 
    6.2499999999873469E-02     0.0000000000000000E+00     0.0000000000000000E+00 
    9.3749999999826514E-02     0.0000000000000000E+00     0.0000000000000000E+00 
    1.2499999999977961E-01     0.0000000000000000E+00     0.0000000000000000E+00 
    1.5624999999968961E-01     0.0000000000000000E+00     0.0000000000000000E+00 
    1.8749999999959971E-01     0.0000000000000000E+00     0.0000000000000000E+00 
    2.1874999999950970E-01     0.0000000000000000E+00     0.0000000000000000E+00 
    2.4999999999941969E-01     0.0000000000000000E+00     0.0000000000000000E+00 
    2.8124999999932920E-01     0.0000000000000000E+00     0.0000000000000000E+00 
    3.1249999999923850E-01     0.0000000000000000E+00     0.0000000000000000E+00 
    3.4374999999914790E-01     0.0000000000000000E+00     0.0000000000000000E+00 
    3.7499999999905720E-01     0.0000000000000000E+00     0.0000000000000000E+00 
    4.0624999999896660E-01     0.0000000000000000E+00     0.0000000000000000E+00 
    4.3749999999887590E-01     0.0000000000000000E+00     0.0000000000000000E+00 
    4.6874999999878530E-01     0.0000000000000000E+00     0.0000000000000000E+00 
    4.9999999999869471E-01     0.0000000000000000E+00     0.0000000000000000E+00 
    5.3124999999877620E-01     0.0000000000000000E+00     0.0000000000000000E+00 
    5.6249999999885780E-01     0.0000000000000000E+00     0.0000000000000000E+00 
    5.9374999999893940E-01     0.0000000000000000E+00     0.0000000000000000E+00 
    6.2499999999902101E-01     0.0000000000000000E+00     0.0000000000000000E+00 
    6.5624999999910261E-01     0.0000000000000000E+00     0.0000000000000000E+00 
    6.8749999999918421E-01     0.0000000000000000E+00     0.0000000000000000E+00 
    7.1874999999926570E-01     0.0000000000000000E+00     0.0000000000000000E+00 
    7.4999999999934730E-01     0.0000000000000000E+00     0.0000000000000000E+00 
    7.8124999999942890E-01     0.0000000000000000E+00     0.0000000000000000E+00 
    8.1249999999951039E-01     0.0000000000000000E+00     0.0000000000000000E+00 
    8.4374999999959199E-01     0.0000000000000000E+00     0.0000000000000000E+00 
    8.7499999999967359E-01     0.0000000000000000E+00     0.0000000000000000E+00 
    9.0624999999975520E-01     0.0000000000000000E+00     0.0000000000000000E+00 
    9.3749999999983680E-01     0.0000000000000000E+00     0.0000000000000000E+00 
    9.6874999999991840E-01     0.0000000000000000E+00     0.0000000000000000E+00 
    1.0000000000000000E+00     3.1249999999942091E-02     0.0000000000000000E+00 
    1.0000000000000000E+00     6.2499999999873469E-02     0.0000000000000000E+00 
    1.0000000000000000E+00     9.3749999999826514E-02     0.0000000000000000E+00 
    1.0000000000000000E+00     1.2499999999977961E-01     0.0000000000000000E+00 
    1.0000000000000000E+00     1.5624999999968961E-01     0.0000000000000000E+00 
    1.0000000000000000E+00     1.8749999999959971E-01     0.0000000000000000E+00 
    1.0000000000000000E+00     2.1874999999950970E-01     0.0000000000000000E+00 
    1.0000000000000000E+00     2.4999999999941969E-01     0.0000000000000000E+00 
    1.0000000000000000E+00     2.8124999999932920E-01     0.0000000000000000E+00 
    1.0000000000000000E+00     3.1249999999923850E-01     0.0000000000000000E+00 
    1.0000000000000000E+00     3.4374999999914790E-01     0.0000000000000000E+00 
    1.0000000000000000E+00     3.7499999999905720E-01     0.0000000000000000E+00 
    1.0000000000000000E+00     4.0624999999896660E-01     0.0000000000000000E+00 
    1.0000000000000000E+00     4.3749999999887590E-01     0.0000000000000000E+00 
    1.0000000000000000E+00     4.6874999999878530E-01     0.0000000000000000E+00 
    1.0000000000000000E+00     4.9999999999869471E-01     0.0000000000000000E+00 
    1.0000000000000000E+00     5.3124999999877620E-01     0.0000000000000000E+00 
    1.0000000000000000E+00     5.6249999999885780E-01     0.0000000000000000E+00 
    1.0000000000000000E+00     5.9374999999893940E-01     0.0000000000000000E+00 
    1.0000000000000000E+00     6.2499999999902101E-01     0.0000000000000000E+00 
    1.0000000000000000E+00     6.5624999999910261E-01     0.0000000000000000E+00 
    1.0000000000000000E+00     6.8749999999918421E-01     0.0000000000000000E+00 
    1.0000000000000000E+00     7.1874999999926570E-01     0.0000000000000000E+00 
    1.0000000000000000E+00     7.4999999999934730E-01     0.0000000000000000E+00 
    1.0000000000000000E+00     7.8124999999942890E-01     0.0000000000000000E+00 
    1.0000000000000000E+00     8.1249999999951039E-01     0.0000000000000000E+00 
    1.0000000000000000E+00     8.4374999999959199E-01     0.0000000000000000E+00 
    1.0000000000000000E+00     8.7499999999967359E-01     0.0000000000000000E+00 
    1.0000000000000000E+00     9.0624999999975520E-01     0.0000000000000000E+00 
    1.0000000000000000E+00     9.3749999999983680E-01     0.0000000000000000E+00 
    1.0000000000000000E+00     9.6874999999991840E-01     0.0000000000000000E+00 
    9.6875000000003686E-01     1.0000000000000000E+00     0.0000000000000000E+00 
    9.3750000000011691E-01     1.0000000000000000E+00     0.0000000000000000E+00 
    9.0625000000015765E-01     1.0000000000000000E+00     0.0000000000000000E+00 
    8.7500000000017863E-01     1.0000000000000000E+00     0.0000000000000000E+00 
    8.4375000000028044E-01     1.0000000000000000E+00     0.0000000000000000E+00 
    8.1250000000040856E-01     1.0000000000000000E+00     0.0000000000000000E+00 
    7.8125000000054956E-01     1.0000000000000000E+00     0.0000000000000000E+00 
    7.5000000000066480E-01     1.0000000000000000E+00     0.0000000000000000E+00 
    7.1875000000086831E-01     1.0000000000000000E+00     0.0000000000000000E+00 
    6.8750000000102829E-01     1.0000000000000000E+00     0.0000000000000000E+00 
    6.5625000000114431E-01     1.0000000000000000E+00     0.0000000000000000E+00 
    6.2500000000129829E-01     1.0000000000000000E+00     0.0000000000000000E+00 
    5.9375000000147926E-01     1.0000000000000000E+00     0.0000000000000000E+00 
    5.6250000000168354E-01     1.0000000000000000E+00     0.0000000000000000E+00 
    5.3125000000188671E-01     1.0000000000000000E+00     0.0000000000000000E+00 
    5.0000000000205835E-01     1.0000000000000000E+00     0.0000000000000000E+00 
    4.6875000000192979E-01     1.0000000000000000E+00     0.0000000000000000E+00 
    4.3750000000180111E-01     1.0000000000000000E+00     0.0000000000000000E+00 
    4.0625000000167238E-01     1.0000000000000000E+00     0.0000000000000000E+00 
    3.7500000000154382E-01     1.0000000000000000E+00     0.0000000000000000E+00 
    3.4375000000141509E-01     1.0000000000000000E+00     0.0000000000000000E+00 
    3.1250000000128642E-01     1.0000000000000000E+00     0.0000000000000000E+00 
    2.8125000000115769E-01     1.0000000000000000E+00     0.0000000000000000E+00 
    2.5000000000102918E-01     1.0000000000000000E+00     0.0000000000000000E+00 
    2.1875000000090050E-01     1.0000000000000000E+00     0.0000000000000000E+00 
    1.8750000000077180E-01     1.0000000000000000E+00     0.0000000000000000E+00 
    1.5625000000064329E-01     1.0000000000000000E+00     0.0000000000000000E+00 
    1.2500000000051459E-01     1.0000000000000000E+00     0.0000000000000000E+00 
    9.3750000000385914E-02     1.0000000000000000E+00     0.0000000000000000E+00 
    6.2500000000257239E-02     1.0000000000000000E+00     0.0000000000000000E+00 
    3.1250000000128557E-02     1.0000000000000000E+00     0.0000000000000000E+00 
    0.0000000000000000E+00     9.6875000000003686E-01     0.0000000000000000E+00 
    0.0000000000000000E+00     9.3750000000011691E-01     0.0000000000000000E+00 
    0.0000000000000000E+00     9.0625000000015765E-01     0.0000000000000000E+00 
    0.0000000000000000E+00     8.7500000000017863E-01     0.0000000000000000E+00 
    0.0000000000000000E+00     8.4375000000028044E-01     0.0000000000000000E+00 
    0.0000000000000000E+00     8.1250000000040856E-01     0.0000000000000000E+00 
    0.0000000000000000E+00     7.8125000000054956E-01     0.0000000000000000E+00 
    0.0000000000000000E+00     7.5000000000066480E-01     0.0000000000000000E+00 
    0.0000000000000000E+00     7.1875000000086831E-01     0.0000000000000000E+00 
    0.0000000000000000E+00     6.8750000000102829E-01     0.0000000000000000E+00 
    0.0000000000000000E+00     6.5625000000114431E-01     0.0000000000000000E+00 
    0.0000000000000000E+00     6.2500000000129829E-01     0.0000000000000000E+00 
    0.0000000000000000E+00     5.9375000000147926E-01     0.0000000000000000E+00 
    0.0000000000000000E+00     5.6250000000168354E-01     0.0000000000000000E+00 
    0.0000000000000000E+00     5.3125000000188671E-01     0.0000000000000000E+00 
    0.0000000000000000E+00     5.0000000000205835E-01     0.0000000000000000E+00 
    0.0000000000000000E+00     4.6875000000192979E-01     0.0000000000000000E+00 
    0.0000000000000000E+00     4.3750000000180111E-01     0.0000000000000000E+00 
    0.0000000000000000E+00     4.0625000000167238E-01     0.0000000000000000E+00 
[...]
CELL_DATA 2795 
SCALARS Pressure double 1 
LOOKUP_TABLE default 

    5.2328408795003103E+00 
    1.1981337473241242E+01 
    8.5232948605245387E+00 
    8.1286770487607338E+00 
    6.4475875258345594E+00 
    1.1879691784149752E+01 
    1.2498081502606460E+01 
    4.6710445858895948E+00 
    8.9988109290616283E+00 
    6.9092950335642254E+00 
    5.9277541943707330E+00 
    1.1666412126753844E+01 
    1.1893805548659865E+01 
    1.1853576710847697E+01 
    7.8662455294838614E+00 
    4.5927188481355508E+00 
    7.4725595257821062E+00 
    6.3014782696671050E+00 
    1.1367342440391404E+01 
    8.5199376755319030E+00 
    8.4079421053865602E+00 
    1.1799211275127366E+01 
    7.9022636789320897E+00 
    3.0890851548293380E-01 
    1.1639759504754137E+01 
    1.1875532818964530E+01 
    1.2526024217857822E+01 
    5.6953809338631887E+00 
    1.1600478423496190E+01 
    1.2526049408737789E+01 
    8.5940715122650744E+00 
    8.7475255712058964E+00 
    6.1268273162144986E+00 
    8.4842279631471413E+00 
    2.7291809028063780E+00 
    7.4769403774009975E+00 
    8.4765919913259768E+00 
    1.2562008181710835E+01 
    1.2478946010791887E+01 
    1.1677039200711180E+01 
    6.3871117787354779E+00 
    1.1623708229111831E+01 
    6.4406766466226295E-01 
    8.3386908799762267E+00 
    1.2314461275395530E+01 
    1.2168616024751149E+01 
    1.1657591281523707E+01 
    9.3109319671531843E+00 
    1.1717381219584693E+01 
    7.6488383885619093E+00 
    7.2794982804262647E+00 
    8.7161897240770418E+00 
    8.2396911202942498E+00 
    7.5169429203994946E+00 
    8.6711612504565121E+00 
    1.1194252420931564E+01 
    1.0144242930718230E+01 
    6.4828717796437001E+00 
    1.1802490337346196E+01 
    1.1738597194695352E+01 
    8.1718865963410856E+00 
    8.1919362038601076E+00 
    8.0451515030242646E+00 
    1.2440176310066482E+01 
    1.2660151081548364E+01 
    7.4813675847387353E+00 
    8.7149414473985054E+00 
    1.1584008899685054E+01 
    9.9532709564694439E+00 
    8.2231235604637298E+00 
    1.2668430046725952E+01 
    1.1736927928006763E+01 
    7.3739914713875949E+00 
    1.2253291058132181E+01 
    8.9093615098453380E+00 
    1.1516298655426230E+01 
    1.2571356971259876E+01 
    8.7720112811482966E+00 
    5.3352743743958362E+00 
    8.7316707713456569E+00 
    1.2485980821335101E+01 
    1.2700207365102589E+01 
    7.4876041190076164E+00 
    8.6466703356575678E+00 
    1.2735172809002382E+01 
    8.4825952721882825E+00 
    7.9747131392737067E+00 
    1.0290225323588102E+01 
    5.0851486718717824E+00 
    7.2992227578880797E+00 
    8.6479502676412725E+00 
    9.1160051691014008E+00 
    1.4092178609542627E+01 
    6.2633828386911183E+00 
    8.7221797059956447E+00 
    1.1639504171805809E+01 
    1.1851898781575548E+01 
    5.5072519375341162E+00 
    8.3572943206036197E+00 
    8.6759548040099386E+00 
    1.1869788888465582E+01 
    8.6819884725260366E+00 
    1.1811042136931915E+01 
    3.3557488624394778E+00 
    5.7619411646396932E+00 
    8.9150106577815134E+00 
    1.1989425238997551E+01 
    7.4459556573952286E+00 
    7.9829344503451223E+00 
    8.6678239965759190E+00 
    7.9470227839231571E+00 
    9.8952408528432088E+00 
    7.7499021667785648E+00 
    7.3811155327583764E+00 
    5.7935520800702660E+00 
    1.0026341136772222E+01 
    8.7483762648132419E+00 
    1.2363812800839753E+01 
    7.4924823582337998E+00 
    8.1181852062912512E+00 
    1.1728755229222518E+01 
    6.7519342559757378E+00 
    1.2115675907734822E+01 
    8.5649239271672819E+00 
    8.0526683879960679E+00 
    1.1854047054641185E+01 
    8.7431125608861819E+00 
    1.2576211396934230E+01 
    1.0298887523016871E+01 
    1.1071520972399524E+01 
    1.2540842168781726E+01 
    6.2764650765164811E+00 
    8.9289718434925174E+00 
    1.1859108673554601E+01 
    2.5218942122332315E+00 
    8.6472528488509468E+00 
    1.2511433322854911E+01 
    8.0823161612701480E+00 
    9.3176340106117177E+00 
    5.4580540871423198E+00 
    1.1639475687948623E+01 
    1.4561567787086078E+01 
    1.0681215851230105E+01 
    8.0764363171694171E+00 
    7.2139925693525520E+00 
    9.2689555508989656E+00 
    8.5822280408480296E+00 
    5.9895064181250026E+00 
    1.2537484887775792E+01 
    1.1941806895529439E+01 
    1.1640994415813957E+01 
    9.1356671449916913E+00 
    7.3497029447280777E+00 
    8.4077969754179058E+00 
    1.2276849423805425E+01 
    7.5626249666216276E+00 
    8.4693123033441164E+00 
    7.7019516838373683E+00 
    9.8166032976762629E+00 
    1.4550295168976609E+01 
    1.1633690351255142E+01 
    7.3177006069865920E+00 
    1.2019371697647539E+01 
    1.1953583738679020E+01 
    1.2023472157771405E+01 
    1.2916649853106964E+01 
    1.3414772257571952E+01 
    1.2164415160685762E+01 
    8.7074224912705045E+00 
    9.2078597817400745E+00 
    1.2017292364715962E+01 
    1.2371170908097286E+01 
    6.2421035924736374E+00 
    1.1657158524281940E+01 
    1.2243901923086613E+01 
    6.0861762826222359E+00 
    1.2831760763558968E+01 
    1.2826822289204124E+01 
    1.1425204019205760E+01 
    8.9819751977873246E+00 
    2.2159292834246265E+00 
    1.2512020470985286E+01 
    8.8611214418638227E+00 
    1.2623739688129769E+01 
    8.0236126899871127E+00 
    1.2364438959295198E+01 
    7.8539000563817662E-01 
    1.1087878867334615E+01 
    8.2293369076807856E+00 
    7.3152241840469401E+00 
    7.1260874217053622E+00 
    8.5353017220255687E+00 
    9.5753682927339767E+00 
    8.7959981386313171E+00 
    5.8825385847327132E+00 
    1.2368535061634415E+01 
    1.1881544436990524E+01 
    1.0057538601449762E+01 
    8.9069557115669937E+00 
    1.2937211822820773E+00 
    6.5700433607280289E+00 
    4.5410940208917054E+00 
    1.2537217022902922E+01 
    9.6512601404583922E+00 
    1.1931719977116922E+01 
    1.1938172908016616E+01 
    7.6324471021639457E+00 
    1.0063220091213058E+01 
    1.1636834588178036E+01 
    1.2810456575190402E+01 
    5.4383445836284006E+00 
    1.0494032595122389E+01 
    8.8264359746346202E+00 
    4.8391330192017836E+00 
    7.6226377538487649E+00 
    1.0488007619087513E+01 
    1.1905633791601584E+01 
    8.5930894122216372E+00 
    1.2002971664742937E+01 
    1.1797226153784864E+01 
    1.1754169294152568E+01 
    8.4161234750475966E+00 
    7.2755294707888023E+00 
    1.1647910147576583E+01 
    7.3699361617913244E+00 
    8.6850724403779971E+00 
    7.2222614681075763E+00 
    8.4206929087863678E+00 
    1.1945402778610147E+01 
    5.4190837314125471E+00 
    7.5453110181530683E+00 
    1.2457145746050450E+01 
    8.4329679826496662E+00 
    9.5510823902567203E+00 
    5.5619441271634980E+00 
    7.4233083165455938E+00 
    1.1778198311934556E+01 
    1.2052105587268581E+01 
    4.5228140577553440E+00 
    8.4319379651056785E+00 
    7.2572243285941056E+00 
    1.3196274891394880E+01 
    1.2706891925501891E+01 
    1.3438449590939758E+01 
    8.4535270422939917E+00 
    1.1923134731168698E+01 
    1.1601398805923610E+01 
    8.3359793741466639E+00 
    1.1641098188617258E+01 
    8.9059595566810348E+00 
    4.9051718439420462E+00 
    8.6097604188899179E+00 
    1.2448273735444085E+01 
    1.1638390280266989E+01 
    5.8959197304198749E+00 
    1.1662997355650196E+01 
    9.5807503035761190E+00 
    8.6306243432941443E+00 
    8.1598001121362493E+00 
    1.1527549891135253E+01 
    9.1044856927098969E+00 
    1.1652067659991875E+01 
    8.2917113809841094E+00 
    5.0927795326181959E+00 
    8.7453682492442795E+00 
    7.1336799245087370E+00 
    1.0681540878783661E+01 
    1.2618681463381739E+01 
    1.1647192859881248E+01 
    1.2505365132151811E+01 
    8.3851424157251504E+00 
    5.7441436878852565E+00 
    5.8257829944564890E+00 
    8.8155430376689647E+00 
    8.6638282933924184E+00 
    1.2218703827953958E+00 
    1.1237481927671629E+01 
    1.2940205100426112E+01 
    8.0311949743202398E+00 
    5.1075520804596888E+00 
    9.7695981374115970E+00 
    1.1661724917672052E+01 
    6.0690651472011155E+00 
    4.1174632417063410E+00 
    8.6363749425684340E+00 
    1.1742705316097990E+01 
    1.2284838040131463E+01 
    1.2181569067650027E+01 
    1.2056415192490579E+01 
    5.9196929021096159E+00 
    8.6192089382319921E+00 
    1.1238368967490205E+01 
    6.7942936884340108E+00 
    1.1882650736955284E+01 
    1.0250569103143027E+01 
    5.9124913036398059E+00 
    1.1752864688008382E+01 
    1.2525934813004852E+01 
    1.1742098824346019E+01 
    5.8421157752567536E+00 
    8.7112963792883580E+00 
    6.4253668639224362E+00 
    8.2077565094345797E+00 
    1.1654665396052005E+01 
    1.1644853555175192E+01 
    5.8766536322893703E+00 
    1.2399210710502492E+01 
    9.1801382199373904E+00 
    1.1680611458303058E+01 
    1.2376684359408598E+01 
    1.1665422138009387E+01 
    1.0884844010517531E+01 
    1.3243208719265187E+01 
    8.0058392663931777E+00 
    1.2478961990111880E+01 
    1.1702570614167600E+01 
    1.2542617237330122E+01 
    1.2393389071117205E+01 
    8.0928362154589060E+00 
    8.5180260590773678E+00 
    8.0219426138471732E+00 
    1.0480016114748981E+01 
    3.3647516275093330E+00 
    8.7551195069973105E+00 
    1.3361827025779956E+01 
    8.9116212480500465E+00 
    9.0739812507460336E+00 
    1.2518522853522276E+01 
    1.2728272983266416E+01 
    7.9843464382946756E+00 
    1.1666577085508749E+01 
    1.1642055156184650E+01 
    9.0633911564935818E+00 
    1.2354293466384910E+01 
    6.2061428040074018E+00 
    3.9280133731800810E+00 
    9.3107591497679447E+00 
    8.9235474030308453E+00 
    1.1646534927082964E+01 
    5.4920466769667486E+00 
    1.2110366497475145E+01 
    4.0048854868677628E+00 
    8.8670408127040528E+00 
    8.1715026891274505E+00 
    8.6894734916193830E+00 
    1.4600716328429121E+01 
    3.2729538168684873E+00 
    8.6665263581982561E+00 
    1.0197408394172395E+01 
    8.2963652294590009E+00 
    6.4776945977930236E+00 
    1.2214667911516175E+01 
    1.4175394280194389E+01 
    1.2338817671444041E+01 
    8.6092016856346500E+00 
    4.8133298305427941E+00 
    1.4037920238918723E+01 
    1.1870201213622162E+01 
    6.2219622109789219E+00 
    8.1996506875054820E+00 
    1.2902225422898777E+01 
    2.7830788286506509E+00 
    8.9677391971428992E+00 
    1.2310554810464128E+01 
    8.7018605935293678E+00 
    7.5695910708842122E+00 
    8.7106983638229067E+00 
    1.1417172211447053E+01 
    8.6829152556326061E+00 
    4.2905825161127691E+00 
    7.5560704998858608E-01 
    6.5006831326072154E+00 
    1.3095887104982349E+01 
    8.0213004991925185E+00 
    9.8102006039865088E+00 
    9.4042046665898891E+00 
    1.0705459219906954E+01 
    8.7144036715259308E+00 
    1.1790657591516741E+01 
    1.4614570383833511E+01 
    1.0211472325255807E+01 
    1.2455129242092445E+01 
    4.5811148386291145E-01 
    1.1646467434287365E+01 
    4.7580109952821799E+00 
    1.3521010583535539E+01 
    8.6808559152407181E+00 
    7.6714044120212757E+00 
    6.5551886561396229E+00 
    4.5028355767688026E+00 
    9.6717271286558333E+00 
    6.8622495557741905E+00 
    1.0592866047568945E+01 
    1.8471544562236404E+00 
    9.6066026998253431E+00 
    1.1590418259174116E+01 
    5.2789118784733580E+00 
    1.2055356807048307E+01 
    1.3339182155220435E+01 
    1.1928341458476716E+01 
    8.5515855423730436E+00 
    8.6848407186895802E+00 
    8.6735907449085570E+00 
    4.8792807519386523E+00 
    7.7945163486146365E+00 
    7.6617918937705154E+00 
    8.6617516206509375E+00 
    7.9644668138722166E+00 
    5.7689287875441453E-01 
    5.4520754743176711E+00 
    8.2974939014008342E+00 
    8.6376042265893869E+00 
    1.0878717453289482E+01 
    1.8343209062683832E+00 
    9.0284800982968996E+00 
    8.9284594106498538E+00 
    3.1461696911642947E+00 
    1.1818323572165870E+01 
    7.3871260072358558E+00 
    8.8058455306646444E+00 
    1.1865260700577714E+01 
    4.5195413152642940E+00 
    1.1913750520626792E+01 
    7.4843875772570989E+00 
    8.4594868041806637E-01 
    8.0755257329492593E+00 
    1.2412748629853063E+01 
    1.1646696463314173E+01 
    1.1663580475709976E+01 
    9.0265250608075114E+00 
    8.8700712120197185E+00 
    7.3687381328954400E+00 
    5.9176825542039646E+00 
    1.1958921546100692E+01 
    8.1988153572649036E+00 
    5.7874467265999483E+00 
    1.1658709104852997E+01 
    1.2244693388476351E+01 
    8.8298618097323551E+00 
    8.4792171723338505E+00 
    1.4499130746421246E+01 
    9.0640368697009244E+00 
    1.1978736183607483E+01 
    6.9945632307249195E+00 
    1.4643002541594820E+01 
    5.7910590759572083E+00 
    7.7539105287837637E+00 
    6.4719495718023570E+00 
    9.2611998114755298E+00 
    7.3794607816095512E+00 
    1.4626892009733155E+01 
    9.1050741985743642E+00 
    1.1366096807832898E+01 
    5.9573142963023447E+00 
    8.7115048768424437E+00 
    1.1841490640965716E+01 
    7.4046970836509951E+00 
    6.1496426636784269E+00 
    9.4855054016457387E+00 
    1.2049226061532012E+01 
    6.3746090380915881E+00 
    8.1883056022348413E+00 
    8.5022314507788241E+00 
    1.1625931567337814E+01 
    8.3235024676227898E+00 
    1.2022296710585463E+01 
    1.2568572149052340E+01 
    7.3921732912794802E+00 
    7.2407073260494759E+00 
    6.8952672263159931E+00 
    1.1743860436860876E+01 
    8.9193189858230113E+00 
    1.4213320663206204E+01 
    1.1085164432282243E+01 
    1.1804815147998177E+01 
    1.3918465209799765E+01 
    1.3346604011158300E+01 
    8.7543319052367981E+00 
    8.6469340605881158E+00 
    1.1452409434215843E+01 
    1.1678074877885193E+01 
    1.2110060507034573E+01 
    1.1887402113120075E+01 
    1.4517112867071308E+01 
    9.0636577194696439E+00 
    7.4777656791539160E+00 
    9.0252219176253607E+00 
    1.2491454240501326E+01 
    8.8396290845648302E+00 
    5.1532668501597225E+00 
    8.5362769025629159E+00 
    1.2871186168820008E+01 
    8.9596362078364198E+00 
    7.4870026356386914E+00 
    8.4423228796351530E+00 
    1.2972065364975087E+01 
    1.1672802069950095E+01 
    7.0991550029081543E+00 
    1.3097011867734617E+01 
    8.7804189640839674E+00 
    1.2112923566276722E+01 
    1.2983523811501078E+01 
    9.1028693915309145E+00 
    4.5216481829118287E+00 
    9.4543169478345455E+00 
    4.6781185943658192E+00 
    8.8830655055405696E+00 
    8.7020062868093202E+00 
    9.9447177187963227E+00 
    4.9462833300517071E+00 
    1.0553033457178579E+01 
    8.7226341316507767E+00 
    1.1879206058594356E+01 
    9.0755295521646016E+00 
    6.9329306587841151E+00 
    8.3306000398499922E+00 
    9.1460149737117575E+00 
    9.1549351366899394E+00 
    1.2610903152991462E+01 
    7.1389143585805659E+00 
    7.0142605663936219E+00 
    5.2052962312164590E+00 
    1.2135164014577160E+01 
    8.3657913224682243E+00 
    1.1494678720799348E+01 
    8.6740085931319264E+00 
    5.7008827140272205E+00 
    1.1695553470595552E+01 
    8.6484378478665391E+00 
    6.2259924285202315E+00 
    6.6038563136635213E+00 
    6.8427572912666648E+00 
    1.1904654735609302E+01 
    8.6637931995724706E+00 
    1.2464451108938420E+01 
    8.6055790659380982E+00 
    8.5428316591819833E+00 
    8.1090910210255966E+00 
    1.1766232902446438E+01 
    8.4615450176022176E+00 
    6.8792258102593280E+00 
    1.3334619246331549E+01 
    1.1834694458197896E+01 
    6.0670415004293217E+00 
    2.3145157528834348E+00 
    8.6524782184394127E+00 
    8.1056918872105292E+00 
    7.2351637396998552E+00 
    7.9287583941772732E+00 
    1.1817282482905410E+01 
    8.3753782616961612E+00 
    7.5335397407921034E+00 
    1.1696289482541969E+01 
    6.0133424198606260E+00 
    1.1418717145167046E+01 
    7.8278370072354519E+00 
    6.8215947358152871E+00 
    7.3060562155109379E+00 
    1.2188035805461746E+01 
    8.6923956724059241E+00 
    8.6999986176130424E+00 
    5.0215128670494513E+00 
    5.4344410241494909E+00 
    1.0830569554819608E+01 
    8.7092995918651468E+00 
    8.6971124405231031E+00 
    1.3082938902795576E+01 
    7.0154137497085465E+00 
    8.7206244504007380E+00 
    6.2168512720566209E+00 
    6.4024015091901054E+00 
    1.1757879607869453E+01 
    8.3573906285508510E+00 
    6.0010033947680599E+00 
    9.1355607010485915E+00 
    8.5825057592958345E+00 
    1.1761456732710101E+01 
    1.3168974391290961E+01 
    8.9340009777285634E-01 
    8.6577413179538194E+00 
    8.9222228986562708E+00 
    1.1818091744264169E+01 
    8.1437972043989078E+00 
    8.6680610860313898E+00 
    1.2655911436403246E+01 
    7.3364417468256686E+00 
    6.0553635507897905E+00 
    1.0480611727764838E+01 
    1.1658057154237968E+01 
    1.2541923539057716E+01 
    1.2789711591960794E+01 
    8.5034957302376757E+00 
    8.6496817097687657E+00 
    9.7306258765275917E+00 
    5.7647213168538478E+00 
    1.1765201883385668E+01 
    6.5327165113716195E+00 
    6.0052005836415416E+00 
    1.0822839379242831E+01 
    1.0186546148326643E+01 
    5.8891817423253636E+00 
    1.1687954140767841E+01 
    1.2529088147095905E+01 
    9.0771712592131326E+00 
    1.3263000845918691E+01 
    1.1715232542806371E+01 
    8.2301135180240461E+00 
    1.2296595479189051E+01 
    6.4081114133137058E+00 
    1.1673389558217306E+01 
    8.6566814111110375E+00 
    8.6151855820099819E+00 
    1.3238178604576445E+01 
    8.3939808982201285E+00 
    1.0573249108623894E+01 
    7.2923829964908702E+00 
    1.2635058309198055E+01 
    1.1595417261134598E+01 
    7.6158417365922766E+00 
    1.1638782232349019E+01 
    7.8496145703901723E+00 
    8.6768739734645415E+00 
    1.2493394096839502E+01 
    1.1879621252208514E+01 
    1.2532065624277712E+01 
    1.1820611269457414E+01 
    7.7997232299347781E+00 
    8.0087985627130163E+00 
    1.2537966144165958E+01 
    8.1219561733410952E+00 
    1.1539564071927666E+01 
    8.3878956400064215E+00 
    3.3956699660885223E+00 
    6.0636548673421817E+00 
    5.6161242912861633E+00 
    1.2496332750315656E+01 
    1.3174095743479141E+01 
    1.1653651190100859E+01 
    1.0071481346736478E+01 
    1.1894024623946354E+01 
    1.1694207531799421E+01 
    1.2193488738491480E+01 
    4.8478340837090572E+00 
    3.1676700128134483E+00 
    9.8807463047995867E+00 
    8.2912546502395461E+00 
    1.1818704255864837E+01 
    1.1816573427870285E+01 
    8.9366505227359774E+00 
    1.1848001949651016E+01 
    8.6441823715025503E+00 
    8.5077737767225727E+00 
    4.3773975047511104E+00 
    3.1539334992479797E+00 
    1.2969394900201825E+01 
    6.7904408545023420E+00 
    7.5624369333231058E+00 
    8.8490585798385855E+00 
    1.4499881461103534E+01 
    8.9303411921204585E+00 
    8.8634665593538742E+00 
    3.5926243378797760E+00 
    8.9307976853064623E+00 
    8.9424455124830899E+00 
    1.2082578388981776E+01 
    7.3095792984209069E+00 
    8.2820856439108077E+00 
    1.3123331327785225E+01 
    8.6673493728626667E+00 
    1.1666668718312422E+01 
    1.1879439129143954E+01 
    1.0706296545734347E+01 
    7.3588148462926801E+00 
    1.1819830585621022E+01 
    8.4519552508202693E+00 
    1.1829280062257840E+01 
    1.1614419103048386E+01 
    1.2513291150888824E+01 
    1.1819761291024152E+01 
    1.1126553188826758E+01 
    8.6548884585342982E+00 
    5.8424784144648383E+00 
    1.4377022704513843E+01 
    6.6670984972958713E+00 
    1.2456450332100339E+01 
    8.6521642641356742E+00 
    7.0509707595242661E+00 
    4.2628578144939118E+00 
    8.9718334327189986E+00 
    1.1809028534343273E+01 
    1.1804717260059792E+01 
    8.6596563371410795E+00 
    8.6460852380027635E+00 
    1.3315976526114534E+01 
    1.2737535395077073E+01 
    8.9471007071540303E+00 
    2.9498881705242961E+00 
    1.1101596900706117E+01 
    1.4625226396939937E+01 
    8.6584132510688665E+00 
    1.0381326623529638E+01 
    8.1384496709221423E+00 
    1.4240327781727020E+01 
    1.2808027339894652E+01 
    1.2564246155462664E+01 
    8.9666977446138052E+00 
    3.9801117274879894E+00 
    8.0993586066838201E+00 
    8.1647099732779616E+00 
    8.2145732736216939E+00 
    3.2096846876363823E+00 