# vtk DataFile Version 2.0
Pressure Field Data 
ASCII 
DATASET UNSTRUCTURED_GRID 

POINTS 2860 double 

    0.0000000000000000E+00     0.0000000000000000E+00     0.0000000000000000E+00 
    1.0000000000000000E+00     0.0000000000000000E+00     0.0000000000000000E+00 
    1.0000000000000000E+00     1.0000000000000000E+00     0.0000000000000000E+00 
    0.0000000000000000E+00     1.0000000000000000E+00     0.0000000000000000E+00 
    2.5000000000000000E-01     2.5000000000000000E-01     0.0000000000000000E+00 
    7.5000000000000000E-01     2.5000000000000000E-01     0.0000000000000000E+00 
    7.5000000000000000E-01     7.5000000000000000E-01     0.0000000000000000E+00 
    2.5000000000000000E-01     7.5000000000000000E-01     0.0000000000000000E+00 
    3.1249999999942091E-02     0.0000000000000000E+00     0.0000000000000000E+00 
    6.2499999999873469E-02     0.0000000000000000E+00     0.0000000000000000E+00 
    9.3749999999826514E-02     0.0000000000000000E+00     0.0000000000000000E+00 
    1.2499999999977961E-01     0.0000000000000000E+00     0.0000000000000000E+00 
    1.5624999999968961E-01     0.0000000000000000E+00     0.0000000000000000E+00 
    1.8749999999959971E-01     0.0000000000000000E+00     0.0000000000000000E+00 
    2.1874999999950970E-01     0.0000000000000000E+00     0.0000000000000000E+00 
    2.4999999999941969E-01     0.0000000000000000E+00     0.0000000000000000E+00 
    2.8124999999932920E-01     0.0000000000000000E+00     0.0000000000000000E+00 
    3.1249999999923850E-01     0.0000000000000000E+00     0.0000000000000000E+00 
    3.4374999999914790E-01     0.0000000000000000E+00     0.0000000000000000E+00 
    3.7499999999905720E-01     0.0000000000000000E+00     0.0000000000000000E+00 
    4.0624999999896660E-01     0.0000000000000000E+00     0.0000000000000000E+00 
    4.3749999999887590E-01     0.0000000000000000E+00     0.0000000000000000E+00 
    4.6874999999878530E-01     0.0000000000000000E+00     0.0000000000000000E+00 
    4.9999999999869471E-01     0.0000000000000000E+00     0.0000000000000000E+00 
    5.3124999999877620E-01     0.0000000000000000E+00     0.0000000000000000E+00 
    5.6249999999885780E-01     0.0000000000000000E+00     0.0000000000000000E+00 
    5.9374999999893940E-01     0.0000000000000000E+00     0.0000000000000000E+00 
    6.2499999999902101E-01     0.0000000000000000E+00     0.0000000000000000E+00 
    6.5624999999910261E-01     0.0000000000000000E+00     0.0000000000000000E+00 
    6.8749999999918421E-01     0.0000000000000000E+00     0.0000000000000000E+00 
    7.1874999999926570E-01     0.0000000000000000E+00     0.0000000000000000E+00 
    7.4999999999934730E-01     0.0000000000000000E+00     0.0000000000000000E+00 
    7.8124999999942890E-01     0.0000000000000000E+00     0.0000000000000000E+00 
    8.1249999999951039E-01     0.0000000000000000E+00     0.0000000000000000E+00 
    8.4374999999959199E-01     0.0000000000000000E+00     0.0000000000000000E+00 
    8.7499999999967359E-01     0.0000000000000000E+00     0.0000000000000000E+00 
    9.0624999999975520E-01     0.0000000000000000E+00     0.0000000000000000E+00 
    9.3749999999983680E-01     0.0000000000000000E+00     0.0000000000000000E+00 
    9.6874999999991840E-01     0.0000000000000000E+00     0.0000000000000000E+00 
    1.0000000000000000E+00     3.1249999999942091E-02     0.0000000000000000E+00 
    1.0000000000000000E+00     6.2499999999873469E-02     0.0000000000000000E+00 
    1.0000000000000000E+00     9.3749999999826514E-02     0.0000000000000000E+00 
    1.0000000000000000E+00     1.2499999999977961E-01     0.0000000000000000E+00 
    1.0000000000000000E+00     1.5624999999968961E-01     0.0000000000000000E+00 
    1.0000000000000000E+00     1.8749999999959971E-01     0.0000000000000000E+00 
    1.0000000000000000E+00     2.1874999999950970E-01     0.0000000000000000E+00 
    1.0000000000000000E+00     2.4999999999941969E-01     0.0000000000000000E+00 
    1.0000000000000000E+00     2.8124999999932920E-01     0.0000000000000000E+00 
    1.0000000000000000E+00     3.1249999999923850E-01     0.0000000000000000E+00 
    1.0000000000000000E+00     3.4374999999914790E-01     0.0000000000000000E+00 
    1.0000000000000000E+00     3.7499999999905720E-01     0.0000000000000000E+00 
    1.0000000000000000E+00     4.0624999999896660E-01     0.0000000000000000E+00 
    1.0000000000000000E+00     4.3749999999887590E-01     0.0000000000000000E+00 
    1.0000000000000000E+00     4.6874999999878530E-01     0.0000000000000000E+00 
    1.0000000000000000E+00     4.9999999999869471E-01     0.0000000000000000E+00 
    1.0000000000000000E+00     5.3124999999877620E-01     0.0000000000000000E+00 
    1.0000000000000000E+00     5.6249999999885780E-01     0.0000000000000000E+00 
    1.0000000000000000E+00     5.9374999999893940E-01     0.0000000000000000E+00 
    1.0000000000000000E+00     6.2499999999902101E-01     0.0000000000000000E+00 
    1.0000000000000000E+00     6.5624999999910261E-01     0.0000000000000000E+00 
    1.0000000000000000E+00     6.8749999999918421E-01     0.0000000000000000E+00 
    1.0000000000000000E+00     7.1874999999926570E-01     0.0000000000000000E+00 
    1.0000000000000000E+00     7.4999999999934730E-01     0.0000000000000000E+00 
    1.0000000000000000E+00     7.8124999999942890E-01     0.0000000000000000E+00 
    1.0000000000000000E+00     8.1249999999951039E-01     0.0000000000000000E+00 
    1.0000000000000000E+00     8.4374999999959199E-01     0.0000000000000000E+00 
    1.0000000000000000E+00     8.7499999999967359E-01     0.0000000000000000E+00 
    1.0000000000000000E+00     9.0624999999975520E-01     0.0000000000000000E+00 
    1.0000000000000000E+00     9.3749999999983680E-01     0.0000000000000000E+00 
    1.0000000000000000E+00     9.6874999999991840E-01     0.0000000000000000E+00 
    9.6875000000003686E-01     1.0000000000000000E+00     0.0000000000000000E+00 
    9.3750000000011691E-01     1.0000000000000000E+00     0.0000000000000000E+00 
    9.0625000000015765E-01     1.0000000000000000E+00     0.0000000000000000E+00 
    8.7500000000017863E-01     1.0000000000000000E+00     0.0000000000000000E+00 
    8.4375000000028044E-01     1.0000000000000000E+00     0.0000000000000000E+00 
    8.1250000000040856E-01     1.0000000000000000E+00     0.0000000000000000E+00 
    7.8125000000054956E-01     1.0000000000000000E+00     0.0000000000000000E+00 
    7.5000000000066480E-01     1.0000000000000000E+00     0.0000000000000000E+00 
    7.1875000000086831E-01     1.0000000000000000E+00     0.0000000000000000E+00 
    6.8750000000102829E-01     1.0000000000000000E+00     0.0000000000000000E+00 
    6.5625000000114431E-01     1.0000000000000000E+00     0.0000000000000000E+00 
    6.2500000000129829E-01     1.0000000000000000E+00     0.0000000000000000E+00 
    5.9375000000147926E-01     1.0000000000000000E+00     0.0000000000000000E+00 
    5.6250000000168354E-01     1.0000000000000000E+00     0.0000000000000000E+00 
    5.3125000000188671E-01     1.0000000000000000E+00     0.0000000000000000E+00 
    5.0000000000205835E-01     1.0000000000000000E+00     0.0000000000000000E+00 
    4.6875000000192979E-01     1.0000000000000000E+00     0.0000000000000000E+00 
    4.3750000000180111E-01     1.0000000000000000E+00     0.0000000000000000E+00 
    4.0625000000167238E-01     1.0000000000000000E+00     0.0000000000000000E+00 
    3.7500000000154382E-01     1.0000000000000000E+00     0.0000000000000000E+00 
    3.4375000000141509E-01     1.0000000000000000E+00     0.0000000000000000E+00 
    3.1250000000128642E-01     1.0000000000000000E+00     0.0000000000000000E+00 
    2.8125000000115769E-01     1.0000000000000000E+00     0.0000000000000000E+00 
    2.5000000000102918E-01     1.0000000000000000E+00     0.0000000000000000E+00 
    2.1875000000090050E-01     1.0000000000000000E+00     0.0000000000000000E+00 
    1.8750000000077180E-01     1.0000000000000000E+00     0.0000000000000000E+00 
    1.5625000000064329E-01     1.0000000000000000E+00     0.0000000000000000E+00 
    1.2500000000051459E-01     1.0000000000000000E+00     0.0000000000000000E+00 
    9.3750000000385914E-02     1.0000000000000000E+00     0.0000000000000000E+00 
    6.2500000000257239E-02     1.0000000000000000E+00     0.0000000000000000E+00 
    3.1250000000128557E-02     1.0000000000000000E+00     0.0000000000000000E+00 
    0.0000000000000000E+00     9.6875000000003686E-01     0.0000000000000000E+00 
    0.0000000000000000E+00     9.3750000000011691E-01     0.0000000000000000E+00 
    0.0000000000000000E+00     9.0625000000015765E-01     0.0000000000000000E+00 
    0.0000000000000000E+00     8.7500000000017863E-01     0.0000000000000000E+00 
    0.0000000000000000E+00     8.4375000000028044E-01     0.0000000000000000E+00 
    0.0000000000000000E+00     8.1250000000040856E-01     0.0000000000000000E+00 
    0.0000000000000000E+00     7.8125000000054956E-01     0.0000000000000000E+00 
    0.0000000000000000E+00     7.5000000000066480E-01     0.0000000000000000E+00 
    0.0000000000000000E+00     7.1875000000086831E-01     0.0000000000000000E+00 
    0.0000000000000000E+00     6.8750000000102829E-01     0.0000000000000000E+00 
    0.0000000000000000E+00     6.5625000000114431E-01     0.0000000000000000E+00 
    0.0000000000000000E+00     6.2500000000129829E-01     0.0000000000000000E+00 
    0.0000000000000000E+00     5.9375000000147926E-01     0.0000000000000000E+00 
    0.0000000000000000E+00     5.6250000000168354E-01     0.0000000000000000E+00 
    0.0000000000000000E+00     5.3125000000188671E-01     0.0000000000000000E+00 
    0.0000000000000000E+00     5.0000000000205835E-01     0.0000000000000000E+00 
    0.0000000000000000E+00     4.6875000000192979E-01     0.0000000000000000E+00 
    0.0000000000000000E+00     4.3750000000180111E-01     0.0000000000000000E+00 
    0.0000000000000000E+00     4.0625000000167238E-01     0.0000000000000000E+00 
[...]
CELL_DATA 2795 
SCALARS Pressure double 1 
LOOKUP_TABLE default 

    6.0120990229877043E+00 
    1.3805587795254930E+01 
    9.7327586768546084E+00 
    9.3374406729633179E+00 
    7.4056791977577152E+00 
    1.3680741898380562E+01 
    1.4383211995690504E+01 
    5.3656456191239181E+00 
    1.0294151187017547E+01 
    7.8653751164484182E+00 
    6.7039843886083466E+00 
    1.3433462938682423E+01 
    1.3714970562382888E+01 
    1.3650858098286081E+01 
    8.9823606866019148E+00 
    5.2758903302094495E+00 
    8.5816332968841014E+00 
    7.1415067405402430E+00 
    1.3084309150983618E+01 
    9.7224544986281440E+00 
    9.6170014293664607E+00 
    1.3588253413891831E+01 
    9.0783422291370144E+00 
    3.5273040897612423E-01 
    1.3429728661159540E+01 
    1.3686981096099352E+01 
    1.4413595020207143E+01 
    6.4438461374108078E+00 
    1.3356781511035134E+01 
    1.4409325925865556E+01 
    9.7749062055116269E+00 
    9.9432352881421604E+00 
    6.9645617346944846E+00 
    9.6950309076580350E+00 
    3.1123070312302685E+00 
    8.5869488956456674E+00 
    9.6844433325872661E+00 
    1.4448162252772351E+01 
    1.4361065684401924E+01 
    1.3445887293501036E+01 
    7.3403637664784673E+00 
    1.3403084906913419E+01 
    7.3435681332662717E-01 
    9.5791986544271861E+00 
    1.4183197473117051E+01 
    1.4018794644250651E+01 
    1.3423137020681354E+01 
    1.0632648274289377E+01 
    1.3493167076844157E+01 
    8.7821085237620196E+00 
    8.3609082257568783E+00 
    9.9090076260442945E+00 
    9.4695298302365618E+00 
    8.6317055305549886E+00 
    9.8428881565534443E+00 
    1.2882234847119571E+01 
    1.1602500977466283E+01 
    7.4460942922078353E+00 
    1.3592061319497681E+01 
    1.3517843852424004E+01 
    9.3320720904310939E+00 
    9.3598072634230522E+00 
    9.2425278342014856E+00 
    1.4314356580994135E+01 
    1.4562830748209535E+01 
    8.5915088906973036E+00 
    9.9076217827822024E+00 
    1.3333589319480920E+01 
    1.1405724603419204E+01 
    9.4025654273976826E+00 
    1.4568558267986569E+01 
    1.3535035437949231E+01 
    8.4691634263649984E+00 
    1.4115730502404116E+01 
    1.0072181848308091E+01 
    1.3283989213183213E+01 
    1.4458640901224578E+01 
    1.0093865068418857E+01 
    6.1423064245140662E+00 
    9.9269587700268787E+00 
    1.4369666435372462E+01 
    1.4599015862356410E+01 
    8.6022191201214167E+00 
    9.8414934052588201E+00 
    1.4641239595585128E+01 
    9.6873096481825876E+00 
    9.1617031290035076E+00 
    1.1807779712766271E+01 
    5.8531358087729251E+00 
    8.3832387987300763E+00 
    9.8410892412805495E+00 
    1.0439485425134473E+01 
    1.6083327680852602E+01 
    7.1948755186837339E+00 
    9.9160755602487605E+00 
    1.3401800409916303E+01 
    1.3668150288170889E+01 
    6.3275078675054095E+00 
    9.5597081966489537E+00 
    9.8711584178121416E+00 
    1.3687776145529231E+01 
    9.8722976750325824E+00 
    1.3622147054368966E+01 
    3.8436724912696185E+00 
    6.5177386757129128E+00 
    1.0150518604056568E+01 
    1.3813720035869528E+01 
    8.5521707264459010E+00 
    9.1186807280707143E+00 
    9.8570078279749289E+00 
    9.1290911982022891E+00 
    1.1206039785969379E+01 
    8.8661144671623902E+00 
    8.4775550782066507E+00 
    6.6686298346378541E+00 
    1.1554927502356918E+01 
    9.9434609987402833E+00 
    1.4228924769531924E+01 
    8.5369571238164248E+00 
    9.3200216997940633E+00 
    1.3523900860143010E+01 
    7.7566546700160970E+00 
    1.3958873242009439E+01 
    9.7643546876450582E+00 
    9.2508694027685650E+00 
    1.3670070984807019E+01 
    9.9406748529060334E+00 
    1.4467982364201314E+01 
    1.1819385455759353E+01 
    1.2735801964112142E+01 
    1.4429905742337416E+01 
    7.2095956945519566E+00 
    1.0173355439784407E+01 
    1.3671430971136191E+01 
    2.8816847951268727E+00 
    9.8218664078943139E+00 
    1.4397245258805617E+01 
    9.2795305573760629E+00 
    1.0731787913967192E+01 
    6.2843704862049838E+00 
    1.3400126652035038E+01 
    1.6570537251477162E+01 
    1.2272696186034198E+01 
    9.2780087499742852E+00 
    8.2857814338306355E+00 
    1.0497010534360426E+01 
    9.7812819408193832E+00 
    6.7750494763040496E+00 
    1.4426071263311023E+01 
    1.3757249837347551E+01 
    1.3403433757735707E+01 
    1.0437372261883521E+01 
    8.4411132654961598E+00 
    9.6155870196500395E+00 
    1.4142455256701142E+01 
    8.6868238007667014E+00 
    9.7365582576996417E+00 
    8.8471567145158883E+00 
    1.1304254468749928E+01 
    1.6558794834024713E+01 
    1.3395306328291429E+01 
    8.3968575038864657E+00 
    1.3855937547533609E+01 
    1.3774174460883518E+01 
    1.3851791600913424E+01 
    1.4836475407725775E+01 
    1.5369672046319909E+01 
    1.4016799316736744E+01 
    9.8990166717645529E+00 
    1.0605029479016267E+01 
    1.3847744453007817E+01 
    1.4239818938396818E+01 
    7.0732323292038668E+00 
    1.3422801038723575E+01 
    1.4105431924657802E+01 
    6.8864703863177992E+00 
    1.4750941734045767E+01 
    1.4738058782924892E+01 
    1.3151662658602207E+01 
    1.0238329478721107E+01 
    2.5333637569242100E+00 
    1.4398112440316826E+01 
    1.0089276118867049E+01 
    1.4517660047475689E+01 
    9.2117705390627140E+00 
    1.4238383173604001E+01 
    9.0009360063604615E-01 
    1.2753603793469855E+01 
    9.4036719763904948E+00 
    8.4013212797613868E+00 
    8.1847261888648841E+00 
    9.7343414852944434E+00 
    1.0871274690385070E+01 
    1.0121268108212510E+01 
    6.7709425400980550E+00 
    1.4235125268398141E+01 
    1.3695035375661130E+01 
    1.1528445385344074E+01 
    1.0144649894641979E+01 
    1.4724335595197278E+00 
    7.5458754312508241E+00 
    5.2157057213620694E+00 
    1.4420153921395363E+01 
    1.1019479035532120E+01 
    1.3745981684937334E+01 
    1.3759246008118545E+01 
    8.7617651406286257E+00 
    1.1567305340274116E+01 
    1.3399187957313925E+01 
    1.4720911026213747E+01 
    6.2574736925905015E+00 
    1.2100077227818179E+01 
    1.0152421692181274E+01 
    5.5655157133275486E+00 
    8.7554417376771490E+00 
    1.2093187427886980E+01 
    1.3722292011346529E+01 
    9.7888560603372827E+00 
    1.3829910099722873E+01 
    1.3601581351572852E+01 
    1.3552266339394121E+01 
    9.6219459640614282E+00 
    8.3415278691775629E+00 
    1.3411146146709113E+01 
    8.4643662133082316E+00 
    9.8769239281107399E+00 
    8.2949551842227720E+00 
    9.6818928716749753E+00 
    1.3767924098339911E+01 
    6.1280760050124607E+00 
    8.6663502628459863E+00 
    1.4335338275746592E+01 
    9.6346463590657052E+00 
    1.0910038319802634E+01 
    6.2878861515997846E+00 
    8.5258380870329358E+00 
    1.3580265586120438E+01 
    1.3884293732485302E+01 
    5.1235739518179475E+00 
    9.6391705674751762E+00 
    8.3347397973537607E+00 
    1.5137929651342803E+01 
    1.4606904308219489E+01 
    1.5396116285929505E+01 
    9.6593725471842635E+00 
    1.3742107320718139E+01 
    1.3357783528731311E+01 
    9.5340511731305480E+00 
    1.3403799708502387E+01 
    1.0145881623297830E+01 
    5.6395561621615711E+00 
    9.8860255373300330E+00 
    1.4322482097483331E+01 
    1.3400712907208636E+01 
    6.6687821024739726E+00 
    1.3429541499471798E+01 
    1.0874791765204584E+01 
    9.8027782437081896E+00 
    9.3540770167596961E+00 
    1.3271792883394532E+01 
    1.0340141166026644E+01 
    1.3416334104520672E+01 
    9.5174829073100238E+00 
    5.8446254267540994E+00 
    9.9460623250022042E+00 
    8.1937566670650455E+00 
    1.2274641516155416E+01 
    1.4515126201719900E+01 
    1.3409524852169607E+01 
    1.4390932747478505E+01 
    9.5838522052990882E+00 
    6.4934594702052069E+00 
    6.5862855605326196E+00 
    9.9857019454430898E+00 
    9.8534336909195090E+00 
    1.4003796310895296E+00 
    1.2930862854812693E+01 
    1.4865417415926188E+01 
    9.2248412059416065E+00 
    5.8766408405088546E+00 
    1.1261330025452283E+01 
    1.3428194919999401E+01 
    6.9722092455588038E+00 
    4.7262214935340534E+00 
    9.8296333094079955E+00 
    1.3514476021750832E+01 
    1.4141658596138591E+01 
    1.4034132077910920E+01 
    1.3888025110903294E+01 
    6.8078643010470756E+00 
    9.7965292340903769E+00 
    1.2959291600358039E+01 
    7.7207837878944670E+00 
    1.3702381756747409E+01 
    1.1796975711497723E+01 
    6.6874611088288169E+00 
    1.3534694912535759E+01 
    1.4416692016651458E+01 
    1.3545874747394649E+01 
    6.7116993161496294E+00 
    9.9037211930616547E+00 
    7.3806889352896441E+00 
    9.3462011665837146E+00 
    1.3419809707897638E+01 
    1.3408277018802165E+01 
    6.7510513357233624E+00 
    1.4276912861427210E+01 
    1.0450106548797363E+01 
    1.3441933305491194E+01 
    1.4246291473619761E+01 
    1.3428229672842384E+01 
    1.2511769921566611E+01 
    1.5191107559419526E+01 
    9.1822283048057081E+00 
    1.4361041803911549E+01 
    1.3471518500149639E+01 
    1.4432055689211621E+01 
    1.4270169327993379E+01 
    9.2802415183053739E+00 
    9.7249048658391484E+00 
    9.2154426440418753E+00 
    1.2032020862659246E+01 
    3.8557787780746988E+00 
    9.9216197753756568E+00 
    1.5315786750086684E+01 
    1.0145925429922174E+01 
    1.0329342335159316E+01 
    1.4405642079496937E+01 
    1.4632938117152847E+01 
    9.1181999820688944E+00 
    1.3433789633767217E+01 
    1.3404528266264251E+01 
    1.0317260027421760E+01 
    1.4226168543697664E+01 
    7.0256275222625071E+00 
    4.4594670423895186E+00 
    1.0591553119483210E+01 
    1.0160821183116415E+01 
    1.3410540578162671E+01 
    6.3096435728048164E+00 
    1.3951036034965897E+01 
    4.5397980536472859E+00 
    1.0091799334250771E+01 
    9.3181852762653836E+00 
    9.8798014724319856E+00 
    1.6610035880462821E+01 
    3.7464736542830543E+00 
    9.8392358442052110E+00 
    1.1751059619678928E+01 
    9.4877383228522252E+00 
    7.4467703167338941E+00 
    1.4062071021049814E+01 
    1.6170320238673810E+01 
    1.4207685549618262E+01 
    9.7802530738953859E+00 
    5.5347038143071847E+00 
    1.6024481806681912E+01 
    1.3684132779775524E+01 
    7.1356642469544793E+00 
    9.4221274170705431E+00 
    1.4820395277740248E+01 
    3.1857554961944961E+00 
    1.0209555439570137E+01 
    1.4176017540195550E+01 
    9.8931148200628538E+00 
    8.6185215346148105E+00 
    9.8787279904606518E+00 
    1.3178527446884329E+01 
    9.8739350993519821E+00 
    4.9267162323738383E+00 
    8.7143292666743299E-01 
    7.3636746068500241E+00 
    1.5034771676765214E+01 
    9.2149131309760470E+00 
    1.1220008836277081E+01 
    1.0657383883721215E+01 
    1.2351528265607248E+01 
    9.9068491729587187E+00 
    1.3594973749093306E+01 
    1.6624291038150339E+01 
    1.1716900458588485E+01 
    1.4334267185750880E+01 
    5.2393938908334059E-01 
    1.3410259801265521E+01 
    5.4550248331587161E+00 
    1.5483227275929231E+01 
    9.8527994812740438E+00 
    8.7579670350630199E+00 
    7.5292033817565400E+00 
    5.1714210067186706E+00 
    1.1066567536122097E+01 
    7.8009632172661130E+00 
    1.2171237525546671E+01 
    2.1200688047910639E+00 
    1.0907689142171259E+01 
    1.3345049432758245E+01 
    5.9768532076567125E+00 
    1.3892578221653313E+01 
    1.5287496092160024E+01 
    1.3739615840051684E+01 
    9.7198608934361275E+00 
    9.8747099659529631E+00 
    9.8455317000579896E+00 
    5.6054846899398445E+00 
    8.9543219267222351E+00 
    8.8013629427695363E+00 
    9.8346405804051482E+00 
    9.1474971137677166E+00 
    6.6217270084544133E-01 
    6.2689902359965286E+00 
    9.5361754968734935E+00 
    9.8099037188118032E+00 
    1.2507667264386216E+01 
    2.0956744829576541E+00 
    1.0277981113829959E+01 
    1.0165248295733509E+01 
    3.6033398761782727E+00 
    1.3606452877535947E+01 
    8.4834185885877833E+00 
    1.0016344638349947E+01 
    1.3680226617808186E+01 
    5.1909802068292326E+00 
    1.3725615774491772E+01 
    8.5966318927399783E+00 
    9.6111382100612697E-01 
    9.2759113328373992E+00 
    1.4288540764641718E+01 
    1.3410123788329020E+01 
    1.3428255281904203E+01 
    1.0191843076731255E+01 
    1.0096775405809618E+01 
    8.4628834677367504E+00 
    6.8086811068066142E+00 
    1.3787113499828692E+01 
    9.4197766122707733E+00 
    6.6345736104167328E+00 
    1.3423965513247865E+01 
    1.4101831235058796E+01 
    1.0014665237423456E+01 
    9.6805853114653431E+00 
    1.6504104418959578E+01 
    1.0318099682471624E+01 
    1.3805727592475000E+01 
    8.0345273635266476E+00 
    1.6652887158524269E+01 
    6.5478525186949721E+00 
    8.8685281006995194E+00 
    7.3408963029510899E+00 
    1.0542081458360867E+01 
    8.4071807563064684E+00 
    1.6636411027831240E+01 
    1.0364704427645025E+01 
    1.3114990298175041E+01 
    6.7356560455627852E+00 
    9.9033788885382030E+00 
    1.3651245129691004E+01 
    8.4403711229588225E+00 
    7.0753084784425937E+00 
    1.0924473688567844E+01 
    1.3874822363470507E+01 
    7.2264339791956385E+00 
    9.3382073710554447E+00 
    9.7090082147009724E+00 
    1.3386233131233306E+01 
    9.5142314920211035E+00 
    1.3849908812446584E+01 
    1.4460474702806630E+01 
    8.4900118108609011E+00 
    8.3163699027121467E+00 
    7.8358878765781563E+00 
    1.3524891999954695E+01 
    1.0172824756889995E+01 
    1.6209331420835799E+01 
    1.2716593465479630E+01 
    1.3610964414268807E+01 
    1.5899152370146982E+01 
    1.5294528960202566E+01 
    9.9525652192156624E+00 
    9.8196772227320981E+00 
    1.3183000210479044E+01 
    1.3447234530963289E+01 
    1.3956531373144703E+01 
    1.3704014385080798E+01 
    1.6524587486882805E+01 
    1.0317650798025321E+01 
    8.5886694365684892E+00 
    1.0316012438089468E+01 
    1.4375368660531363E+01 
    1.0061850866757043E+01 
    5.8325697781694217E+00 
    9.7039838748807945E+00 
    1.4788272229724530E+01 
    1.0200428526099612E+01 
    8.5993719094610235E+00 
    9.6505616805159047E+00 
    1.4897200915883337E+01 
    1.3458599367410292E+01 
    8.1528403417616229E+00 
    1.5031690866741600E+01 
    9.9864258934930117E+00 
    1.3951735270779892E+01 
    1.4909846195821666E+01 
    1.0463212355633752E+01 
    5.1950167862099716E+00 
    1.0889031348887025E+01 
    5.3767457642992644E+00 
    1.0114716314363575E+01 
    9.8945068065418695E+00 
    1.1466453389868054E+01 
    5.6866747881044999E+00 
    1.2171481439310794E+01 
    9.9161264814410828E+00 
    1.3694475979761881E+01 
    1.0444493440327605E+01 
    7.9596642294242006E+00 
    9.5286843015367761E+00 
    1.0365371365615607E+01 
    1.0419166527554824E+01 
    1.4506402862990234E+01 
    8.1988126307682929E+00 
    8.0559969702966541E+00 
    5.9844351224614591E+00 
    1.3982915944144365E+01 
    9.5685755523920122E+00 
    1.3255863297566432E+01 
    9.8649887180451756E+00 
    6.5529173332346824E+00 
    1.3486298331359075E+01 
    9.8403039708346114E+00 
    7.1539555445988734E+00 
    7.5865239210734163E+00 
    7.8602410177663442E+00 
    1.3723957443972894E+01 
    9.8366047449198390E+00 
    1.4345493453969251E+01 
    9.7988820527446538E+00 
    9.7370896452775355E+00 
    9.2575855105681786E+00 
    1.3567207743135988E+01 
    9.6550517439890307E+00 
    7.9012995924381038E+00 
    1.5282655021297472E+01 
    1.3645718598406461E+01 
    6.8622508220268488E+00 
    2.6451822582048394E+00 
    9.8261754014021800E+00 
    9.2636564832992132E+00 
    8.3091421175020699E+00 
    9.0640633903663055E+00 
    1.3609255822482655E+01 
    9.5383755538019130E+00 
    8.6434847735654259E+00 
    1.3468550632125812E+01 
    6.8006226541002253E+00 
    1.3143830914537377E+01 
    8.9495359194900246E+00 
    7.8362547592425615E+00 
    8.3909476305929740E+00 
    1.4035087301866801E+01 
    9.8828738969762444E+00 
    9.8908946856019675E+00 
    5.7689958588013566E+00 
    6.2433676488898255E+00 
    1.2498714123358129E+01 
    9.9009554091841103E+00 
    9.8656770551945474E+00 
    1.5017520782984136E+01 
    8.0579317246435540E+00 
    9.9140921432143170E+00 
    7.0345634330729840E+00 
    7.2569916919827291E+00 
    1.3560951589144837E+01 
    9.5451030799821588E+00 
    6.8936696697845470E+00 
    1.0446658571663828E+01 
    9.7842133488730845E+00 
    1.3563653867216470E+01 
    1.5109371242097502E+01 
    1.0133949634681458E+00 
    9.8310129294894661E+00 
    1.0158984704022162E+01 
    1.3626290193911933E+01 
    9.3480694852040056E+00 
    9.8569407097369766E+00 
    1.4558278927995648E+01 
    8.4262269122685574E+00 
    6.9561655837567198E+00 
    1.1979350599001640E+01 
    1.3423549930326299E+01 
    1.4430632940133362E+01 
    1.4697176817960543E+01 
    9.6753662754733210E+00 
    9.8226842504121930E+00 
    1.1133900895409610E+01 
    6.5177201883352192E+00 
    1.3548711778540950E+01 
    7.5030817032275250E+00 
    6.7901794066584920E+00 
    1.2415709100756551E+01 
    1.1678780158296897E+01 
    6.6581039081613440E+00 
    1.3458633784124775E+01 
    1.4416875977791427E+01 
    1.0332979724708915E+01 
    1.5210080510961937E+01 
    1.3490866000869149E+01 
    9.4132887033318848E+00 
    1.4160075202535364E+01 
    7.2610923829430121E+00 
    1.3441790986175423E+01 
    9.8299793130437365E+00 
    9.7918267872571185E+00 
    1.5185424057043010E+01 
    9.6015462944165790E+00 
    1.2137765093366720E+01 
    8.3756135873600606E+00 
    1.4533155181120330E+01 
    1.3350912025573608E+01 
    8.7448233101881065E+00 
    1.3399781555273893E+01 
    8.9663837461320064E+00 
    9.8664763457846139E+00 
    1.4377176661507312E+01 
    1.3698513589538219E+01 
    1.4420010069991754E+01 
    1.3629382127219579E+01 
    8.9595726347198639E+00 
    9.1740294775095350E+00 
    1.4426835706776890E+01 
    9.2974918484264570E+00 
    1.3284935513326333E+01 
    9.5914477539489091E+00 
    3.8866783883403988E+00 
    6.8623133373462775E+00 
    6.3522709632022201E+00 
    1.4380667584778219E+01 
    1.5115599739426431E+01 
    1.3417462522557594E+01 
    1.1441320241727279E+01 
    1.3698983585163180E+01 
    1.3466095061784699E+01 
    1.4037969251414376E+01 
    5.5701774506165362E+00 
    3.6236163882333061E+00 
    1.1238882391747133E+01 
    9.5063529596432801E+00 
    1.3610666304824656E+01 
    1.3608206189194782E+01 
    1.0180735041302656E+01 
    1.3644557993207187E+01 
    9.8171020424456028E+00 
    9.7463726493948659E+00 
    5.0265016021427105E+00 
    3.6099429445243953E+00 
    1.4893802102939672E+01 
    7.7097495098154809E+00 
    8.6865610992664006E+00 
    1.0070151325974086E+01 
    1.6505756075475105E+01 
    1.0168458159212978E+01 
    1.0157834973002625E+01 
    4.1072783847623233E+00 
    1.0169683298842612E+01 
    1.0183661039467314E+01 
    1.3923357158863583E+01 
    8.3964064810915815E+00 
    9.4512644122448286E+00 
    1.5060240748565020E+01 
    9.8392123276753338E+00 
    1.3432997781630762E+01 
    1.3687869659796323E+01 
    1.2200245845153388E+01 
    8.3778879788412564E+00 
    1.3628868639987639E+01 
    9.6374882666806485E+00 
    1.3624379939360843E+01 
    1.3372931877731439E+01 
    1.4399492372378441E+01 
    1.3627577365010422E+01 
    1.2796462475644079E+01 
    9.8280978243146340E+00 
    6.6072269091322724E+00 
    1.6378788681663426E+01 
    7.6575534394507558E+00 
    1.4331594371385471E+01 
    9.8255530886355729E+00 
    8.1007042984233060E+00 
    4.8498689473289991E+00 
    1.0219180087973241E+01 
    1.3616128581028027E+01 
    1.3612388907463265E+01 
    9.8473817925702303E+00 
    9.8198278238549221E+00 
    1.5265589953093308E+01 
    1.4640902934521280E+01 
    1.0186539770070292E+01 
    3.3719687510908223E+00 
    1.2754822613798220E+01 
    1.6634040780223312E+01 
    9.8313563419845469E+00 
    1.1813673473798078E+01 
    9.3459957990528615E+00 
    1.6235799901185089E+01 
    1.4719061940400112E+01 
    1.4457713271880404E+01 
    1.0207554766542094E+01 
    4.5244163685432985E+00 
    9.3037907167592984E+00 
    9.3709280799887367E+00 
    9.4122868274854330E+00 
    3.6706526617597417E+00 