# vtk DataFile Version 2.0
Pressure Field Data 
ASCII 
DATASET UNSTRUCTURED_GRID 

POINTS 2860 double 

    0.0000000000000000E+00     0.0000000000000000E+00     0.0000000000000000E+00 
    1.0000000000000000E+00     0.0000000000000000E+00     0.0000000000000000E+00 
    1.0000000000000000E+00     1.0000000000000000E+00     0.0000000000000000E+00 
    0.0000000000000000E+00     1.0000000000000000E+00     0.0000000000000000E+00 
    2.5000000000000000E-01     2.5000000000000000E-01     0.0000000000000000E+00 
    7.5000000000000000E-01     2.5000000000000000E-01     0.0000000000000000E+00 
    7.5000000000000000E-01     7.5000000000000000E-01     0.0000000000000000E+00 
    2.5000000000000000E-01     7.5000000000000000E-01     0.0000000000000000E+00 
    3.1249999999942091E-02     0.0000000000000000E+00     0.0000000000000000E+00 
    6.2499999999873469E-02     0.0000000000000000E+00     0.0000000000000000E+00 
    9.3749999999826514E-02     0.0000000000000000E+00     0.0000000000000000E+00 
    1.2499999999977961E-01     0.0000000000000000E+00     0.0000000000000000E+00 
    1.5624999999968961E-01     0.0000000000000000E+00     0.0000000000000000E+00 
    1.8749999999959971E-01     0.0000000000000000E+00     0.0000000000000000E+00 
    2.1874999999950970E-01     0.0000000000000000E+00     0.0000000000000000E+00 
    2.4999999999941969E-01     0.0000000000000000E+00     0.0000000000000000E+00 
    2.8124999999932920E-01     0.0000000000000000E+00     0.0000000000000000E+00 
    3.1249999999923850E-01     0.0000000000000000E+00     0.0000000000000000E+00 
    3.4374999999914790E-01     0.0000000000000000E+00     0.0000000000000000E+00 
    3.7499999999905720E-01     0.0000000000000000E+00     0.0000000000000000E+00 
    4.0624999999896660E-01     0.0000000000000000E+00     0.0000000000000000E+00 
    4.3749999999887590E-01     0.0000000000000000E+00     0.0000000000000000E+00 
    4.6874999999878530E-01     0.0000000000000000E+00     0.0000000000000000E+00 
    4.9999999999869471E-01     0.0000000000000000E+00     0.0000000000000000E+00 
    5.3124999999877620E-01     0.0000000000000000E+00     0.0000000000000000E+00 
    5.6249999999885780E-01     0.0000000000000000E+00     0.0000000000000000E+00 
    5.9374999999893940E-01     0.0000000000000000E+00     0.0000000000000000E+00 
    6.2499999999902101E-01     0.0000000000000000E+00     0.0000000000000000E+00 
    6.5624999999910261E-01     0.0000000000000000E+00     0.0000000000000000E+00 
    6.8749999999918421E-01     0.0000000000000000E+00     0.0000000000000000E+00 
    7.1874999999926570E-01     0.0000000000000000E+00     0.0000000000000000E+00 
    7.4999999999934730E-01     0.0000000000000000E+00     0.0000000000000000E+00 
    7.8124999999942890E-01     0.0000000000000000E+00     0.0000000000000000E+00 
    8.1249999999951039E-01     0.0000000000000000E+00     0.0000000000000000E+00 
    8.4374999999959199E-01     0.0000000000000000E+00     0.0000000000000000E+00 
    8.7499999999967359E-01     0.0000000000000000E+00     0.0000000000000000E+00 
    9.0624999999975520E-01     0.0000000000000000E+00     0.0000000000000000E+00 
    9.3749999999983680E-01     0.0000000000000000E+00     0.0000000000000000E+00 
    9.6874999999991840E-01     0.0000000000000000E+00     0.0000000000000000E+00 
    1.0000000000000000E+00     3.1249999999942091E-02     0.0000000000000000E+00 
    1.0000000000000000E+00     6.2499999999873469E-02     0.0000000000000000E+00 
    1.0000000000000000E+00     9.3749999999826514E-02     0.0000000000000000E+00 
    1.0000000000000000E+00     1.2499999999977961E-01     0.0000000000000000E+00 
    1.0000000000000000E+00     1.5624999999968961E-01     0.0000000000000000E+00 
    1.0000000000000000E+00     1.8749999999959971E-01     0.0000000000000000E+00 
    1.0000000000000000E+00     2.1874999999950970E-01     0.0000000000000000E+00 
    1.0000000000000000E+00     2.4999999999941969E-01     0.0000000000000000E+00 
    1.0000000000000000E+00     2.8124999999932920E-01     0.0000000000000000E+00 
    1.0000000000000000E+00     3.1249999999923850E-01     0.0000000000000000E+00 
    1.0000000000000000E+00     3.4374999999914790E-01     0.0000000000000000E+00 
    1.0000000000000000E+00     3.7499999999905720E-01     0.0000000000000000E+00 
    1.0000000000000000E+00     4.0624999999896660E-01     0.0000000000000000E+00 
    1.0000000000000000E+00     4.3749999999887590E-01     0.0000000000000000E+00 
    1.0000000000000000E+00     4.6874999999878530E-01     0.0000000000000000E+00 
    1.0000000000000000E+00     4.9999999999869471E-01     0.0000000000000000E+00 
    1.0000000000000000E+00     5.3124999999877620E-01     0.0000000000000000E+00 
    1.0000000000000000E+00     5.6249999999885780E-01     0.0000000000000000E+00 
    1.0000000000000000E+00     5.9374999999893940E-01     0.0000000000000000E+00 
    1.0000000000000000E+00     6.2499999999902101E-01     0.0000000000000000E+00 
    1.0000000000000000E+00     6.5624999999910261E-01     0.0000000000000000E+00 
    1.0000000000000000E+00     6.8749999999918421E-01     0.0000000000000000E+00 
    1.0000000000000000E+00     7.1874999999926570E-01     0.0000000000000000E+00 
    1.0000000000000000E+00     7.4999999999934730E-01     0.0000000000000000E+00 
    1.0000000000000000E+00     7.8124999999942890E-01     0.0000000000000000E+00 
    1.0000000000000000E+00     8.1249999999951039E-01     0.0000000000000000E+00 
    1.0000000000000000E+00     8.4374999999959199E-01     0.0000000000000000E+00 
    1.0000000000000000E+00     8.7499999999967359E-01     0.0000000000000000E+00 
    1.0000000000000000E+00     9.0624999999975520E-01     0.0000000000000000E+00 
    1.0000000000000000E+00     9.3749999999983680E-01     0.0000000000000000E+00 
    1.0000000000000000E+00     9.6874999999991840E-01     0.0000000000000000E+00 
    9.6875000000003686E-01     1.0000000000000000E+00     0.0000000000000000E+00 
    9.3750000000011691E-01     1.0000000000000000E+00     0.0000000000000000E+00 
    9.0625000000015765E-01     1.0000000000000000E+00     0.0000000000000000E+00 
    8.7500000000017863E-01     1.0000000000000000E+00     0.0000000000000000E+00 
    8.4375000000028044E-01     1.0000000000000000E+00     0.0000000000000000E+00 
    8.1250000000040856E-01     1.0000000000000000E+00     0.0000000000000000E+00 
    7.8125000000054956E-01     1.0000000000000000E+00     0.0000000000000000E+00 
    7.5000000000066480E-01     1.0000000000000000E+00     0.0000000000000000E+00 
    7.1875000000086831E-01     1.0000000000000000E+00     0.0000000000000000E+00 
    6.8750000000102829E-01     1.0000000000000000E+00     0.0000000000000000E+00 
    6.5625000000114431E-01     1.0000000000000000E+00     0.0000000000000000E+00 
    6.2500000000129829E-01     1.0000000000000000E+00     0.0000000000000000E+00 
    5.9375000000147926E-01     1.0000000000000000E+00     0.0000000000000000E+00 
    5.6250000000168354E-01     1.0000000000000000E+00     0.0000000000000000E+00 
    5.3125000000188671E-01     1.0000000000000000E+00     0.0000000000000000E+00 
    5.0000000000205835E-01     1.0000000000000000E+00     0.0000000000000000E+00 
    4.6875000000192979E-01     1.0000000000000000E+00     0.0000000000000000E+00 
    4.3750000000180111E-01     1.0000000000000000E+00     0.0000000000000000E+00 
    4.0625000000167238E-01     1.0000000000000000E+00     0.0000000000000000E+00 
    3.7500000000154382E-01     1.0000000000000000E+00     0.0000000000000000E+00 
    3.4375000000141509E-01     1.0000000000000000E+00     0.0000000000000000E+00 
    3.1250000000128642E-01     1.0000000000000000E+00     0.0000000000000000E+00 
    2.8125000000115769E-01     1.0000000000000000E+00     0.0000000000000000E+00 
    2.5000000000102918E-01     1.0000000000000000E+00     0.0000000000000000E+00 
    2.1875000000090050E-01     1.0000000000000000E+00     0.0000000000000000E+00 
    1.8750000000077180E-01     1.0000000000000000E+00     0.0000000000000000E+00 
    1.5625000000064329E-01     1.0000000000000000E+00     0.0000000000000000E+00 
    1.2500000000051459E-01     1.0000000000000000E+00     0.0000000000000000E+00 
    9.3750000000385914E-02     1.0000000000000000E+00     0.0000000000000000E+00 
    6.2500000000257239E-02     1.0000000000000000E+00     0.0000000000000000E+00 
    3.1250000000128557E-02     1.0000000000000000E+00     0.0000000000000000E+00 
    0.0000000000000000E+00     9.6875000000003686E-01     0.0000000000000000E+00 
    0.0000000000000000E+00     9.3750000000011691E-01     0.0000000000000000E+00 
    0.0000000000000000E+00     9.0625000000015765E-01     0.0000000000000000E+00 
    0.0000000000000000E+00     8.7500000000017863E-01     0.0000000000000000E+00 
    0.0000000000000000E+00     8.4375000000028044E-01     0.0000000000000000E+00 
    0.0000000000000000E+00     8.1250000000040856E-01     0.0000000000000000E+00 
    0.0000000000000000E+00     7.8125000000054956E-01     0.0000000000000000E+00 
    0.0000000000000000E+00     7.5000000000066480E-01     0.0000000000000000E+00 
    0.0000000000000000E+00     7.1875000000086831E-01     0.0000000000000000E+00 
    0.0000000000000000E+00     6.8750000000102829E-01     0.0000000000000000E+00 
    0.0000000000000000E+00     6.5625000000114431E-01     0.0000000000000000E+00 
    0.0000000000000000E+00     6.2500000000129829E-01     0.0000000000000000E+00 
    0.0000000000000000E+00     5.9375000000147926E-01     0.0000000000000000E+00 
    0.0000000000000000E+00     5.6250000000168354E-01     0.0000000000000000E+00 
    0.0000000000000000E+00     5.3125000000188671E-01     0.0000000000000000E+00 
    0.0000000000000000E+00     5.0000000000205835E-01     0.0000000000000000E+00 
    0.0000000000000000E+00     4.6875000000192979E-01     0.0000000000000000E+00 
    0.0000000000000000E+00     4.3750000000180111E-01     0.0000000000000000E+00 
    0.0000000000000000E+00     4.0625000000167238E-01     0.0000000000000000E+00 
[...]
CELL_DATA 2795 
SCALARS Pressure double 1 
LOOKUP_TABLE default 

    5.4205797586635462E+00 
    1.2443035027390829E+01 
    8.8378231987987803E+00 
    8.4313800074668119E+00 
    6.6834018636468819E+00 
    1.2338045590398410E+01 
    1.2976330423635222E+01 
    4.8360396746364778E+00 
    9.3422754211819186E+00 
    7.1373378025919418E+00 
    6.0766188337216231E+00 
    1.2116652776295014E+01 
    1.2354316498378910E+01 
    1.2311020132882950E+01 
    8.1469661927231041E+00 
    4.7545209240602775E+00 
    7.7493020702411570E+00 
    6.4770551578614857E+00 
    1.1805970326577716E+01 
    8.8350727949187924E+00 
    8.7179422781980538E+00 
    1.2254767865003505E+01 
    8.1963456810362487E+00 
    3.1843359180526065E-01 
    1.2092415542989619E+01 
    1.2333853656405651E+01 
    1.3004871924645037E+01 
    5.8402794454087292E+00 
    1.2048144992764390E+01 
    1.3002983005924280E+01 
    8.8866807925297593E+00 
    9.0737860083108508E+00 
    6.3110019000808091E+00 
    8.7977627483811300E+00 
    2.8036923588732048E+00 
    7.7538539460814544E+00 
    8.7899428333648277E+00 
    1.3039592431094350E+01 
    1.2956517693067621E+01 
    1.2127744049340937E+01 
    6.6194866302057145E+00 
    1.2073548073040362E+01 
    6.6358588202086377E-01 
    8.6504094083648440E+00 
    1.2787103302722922E+01 
    1.2638253874623459E+01 
    1.2107446546033160E+01 
    9.6619196781674095E+00 
    1.2170263828012711E+01 
    7.9325268000171762E+00 
    7.5485389887206669E+00 
    9.0396582564500747E+00 
    8.5478762414826885E+00 
    7.7954298290494073E+00 
    8.9596858239947661E+00 
    1.1626078259648855E+01 
    1.0529144814536197E+01 
    6.7200637343361107E+00 
    1.2258103109808173E+01 
    1.2191850726133694E+01 
    8.4598933876102258E+00 
    8.4853264781419711E+00 
    8.3448392605876176E+00 
    1.2914860650851441E+01 
    1.3141450288462110E+01 
    7.7584802610725507E+00 
    9.0380941364544309E+00 
    1.2032019832100529E+01 
    1.0333062236101478E+01 
    8.5249100495587840E+00 
    1.3150293336162600E+01 
    1.2191583992803768E+01 
    7.6466957995327354E+00 
    1.2725867019826214E+01 
    9.2133750262714198E+00 
    1.1963150601832661E+01 
    1.3049083380725422E+01 
    9.1041591364091534E+00 
    5.5217988065000068E+00 
    9.0555258887097985E+00 
    1.2963900967434421E+01 
    1.3180839827762536E+01 
    7.7651394885763683E+00 
    8.9655533767372422E+00 
    1.3217970977664988E+01 
    8.7961135933085579E+00 
    8.2716721273658482E+00 
    1.0684603616013941E+01 
    5.2650258831761789E+00 
    7.5689544543390133E+00 
    8.9676524333146261E+00 
    9.4645888853950932E+00 
    1.4595717034025958E+01 
    6.4920258388712391E+00 
    9.0455555625950570E+00 
    1.2088524193734500E+01 
    1.2311169182015776E+01 
    5.7055484620498609E+00 
    8.6656234392877813E+00 
    8.9964770417465338E+00 
    1.2329498296629010E+01 
    9.0035845773672989E+00 
    1.2268995142256861E+01 
    3.4681131818543474E+00 
    5.9065078718612503E+00 
    9.2474340295319095E+00 
    1.2451175075284983E+01 
    7.7216902510859011E+00 
    8.2645253787398900E+00 
    8.9879659390208992E+00 
    8.2426924501603569E+00 
    1.0242323018994382E+01 
    8.0267681164131233E+00 
    7.6542290053466626E+00 
    5.9996648919090436E+00 
    1.0411414358019531E+01 
    9.0753787612035328E+00 
    1.2836064949905822E+01 
    7.7580684649786615E+00 
    8.4188844435009660E+00 
    1.2182674753579612E+01 
    6.9997679378402129E+00 
    1.2582075359433619E+01 
    8.8815571894307723E+00 
    8.3525546110088875E+00 
    1.2313257184981623E+01 
    9.0676678883661559E+00 
    1.3055680473205182E+01 
    1.0693688376597958E+01 
    1.1498414378449329E+01 
    1.3020035284230719E+01 
    6.5055476423217033E+00 
    9.2629334459784385E+00 
    1.2317540290171127E+01 
    2.6039254141845780E+00 
    8.9372131106225083E+00 
    1.2989881765562208E+01 
    8.3817464755740989E+00 
    9.6732832806923241E+00 
    5.6511946089803748E+00 
    1.2088008788354990E+01 
    1.5069294429065407E+01 
    1.1092139356008468E+01 
    8.3771887332880670E+00 
    7.4804494171216858E+00 
    9.6086644019030256E+00 
    8.8987650655650370E+00 
    6.1419461494144825E+00 
    1.3016338792408350E+01 
    1.2405069146202427E+01 
    1.2090052988539247E+01 
    9.4808259634448540E+00 
    7.6216017375555323E+00 
    8.7170418519786761E+00 
    1.2750337799163635E+01 
    7.8431044243321155E+00 
    8.7877197731929328E+00 
    7.9878689283220066E+00 
    1.0191241426757777E+01 
    1.5057904981522697E+01 
    1.2082568260387408E+01 
    7.5852155593491233E+00 
    1.2483768992998323E+01 
    1.2414334270038987E+01 
    1.2486273994102962E+01 
    1.3402460352159240E+01 
    1.3909222047679325E+01 
    1.2634900777233925E+01 
    9.0302234650176239E+00 
    9.5598110238026379E+00 
    1.2482629573071184E+01 
    1.2844655483333213E+01 
    6.4144938408623471E+00 
    1.2107046176559511E+01 
    1.2716512855277928E+01 
    6.2436967609033625E+00 
    1.3317128353177299E+01 
    1.3310516590727531E+01 
    1.1866162106035596E+01 
    9.3183959119536990E+00 
    2.2765363408311177E+00 
    1.2990273204332674E+01 
    9.1926170601059507E+00 
    1.3103068677169349E+01 
    8.3206324384948758E+00 
    1.2839663176987196E+01 
    8.0961014560924904E-01 
    1.1515487461198722E+01 
    8.5253150121219754E+00 
    7.5855156410531475E+00 
    7.3889852264861879E+00 
    8.8509414634303010E+00 
    9.9248423914730335E+00 
    9.1287115560715186E+00 
    6.0897272150128599E+00 
    1.2841368943935924E+01 
    1.2340354030736254E+01 
    1.0441826319135888E+01 
    9.2396545708050883E+00 
    1.3338471368322020E+00 
    6.8106499467371098E+00 
    4.6977133087809371E+00 
    1.3013907691658257E+01 
    1.0018645812832107E+01 
    1.2393098459638793E+01 
    1.2398945488157191E+01 
    7.9134927183433961E+00 
    1.0453438646531577E+01 
    1.2085968846641915E+01 
    1.3293934121729498E+01 
    5.6323796497556806E+00 
    1.0899118683916488E+01 
    9.1610789555393222E+00 
    5.0092813834807428E+00 
    7.9052777127357503E+00 
    1.0897782063700125E+01 
    1.2365269867022135E+01 
    8.9112210182197149E+00 
    1.2465365686477593E+01 
    1.2253562947497562E+01 
    1.2208880929117715E+01 
    8.7246020962937507E+00 
    7.5396487963384535E+00 
    1.2097235663892375E+01 
    7.6426137283294100E+00 
    9.0066598749293156E+00 
    7.4889465078732567E+00 
    8.7370267768422956E+00 
    1.2406519513873649E+01 
    5.5511064646704922E+00 
    7.8248521438939989E+00 
    1.2933084302714256E+01 
    8.7401841573680450E+00 
    9.9133797127306309E+00 
    5.6967596468851012E+00 
    7.6979627410678679E+00 
    1.2233924303032675E+01 
    1.2515883614142998E+01 
    4.6356427917669887E+00 
    8.7424826675457794E+00 
    7.5253044123469026E+00 
    1.3687483947589076E+01 
    1.3187797884967416E+01 
    1.3933556648738271E+01 
    8.7652946495080215E+00 
    1.2383370959679310E+01 
    1.2049278517444840E+01 
    8.6423750506318679E+00 
    1.2090229390476219E+01 
    9.2391856203335525E+00 
    5.0748205321296176E+00 
    8.9326788370706716E+00 
    1.2922777420640696E+01 
    1.2087432132238375E+01 
    6.0450550641977276E+00 
    1.2113095958501450E+01 
    9.9172132825477917E+00 
    8.9199713742561588E+00 
    8.4580838632340374E+00 
    1.1972392447929954E+01 
    9.4362771293581691E+00 
    1.2101636363461294E+01 
    8.5997025659127448E+00 
    5.2646261021870941E+00 
    9.0722329376011590E+00 
    7.3969748179293289E+00 
    1.1092480876460288E+01 
    1.3099418953814661E+01 
    1.2096347402134056E+01 
    1.2983732512464860E+01 
    8.6882813671463541E+00 
    5.8842405706896317E+00 
    5.9689672895314487E+00 
    9.1185139205953387E+00 
    8.9842318295595227E+00 
    1.2576599253836271E+00 
    1.1671107820079898E+01 
    1.3427275446628089E+01 
    8.3298895598637479E+00 
    5.2890203413528782E+00 
    1.0145333746849396E+01 
    1.2111833712214843E+01 
    6.2898580141281224E+00 
    4.2606706802794516E+00 
    8.9560298958075357E+00 
    1.2197673635492706E+01 
    1.2754985547514000E+01 
    1.2652022660103086E+01 
    1.2520097906842905E+01 
    6.1326778000788282E+00 
    8.9104291344273392E+00 
    1.1673086218588828E+01 
    7.0081728022601872E+00 
    1.2342800083937485E+01 
    1.0650013462825576E+01 
    6.0620736308869771E+00 
    1.2207113762190685E+01 
    1.3004061015355624E+01 
    1.2198251193106506E+01 
    6.0541160729500536E+00 
    9.0342405453869947E+00 
    6.6604147481184732E+00 
    8.5098014056860407E+00 
    1.2104418495639752E+01 
    1.2094173207773792E+01 
    6.0899194139977517E+00 
    1.2875547496559312E+01 
    9.5203643939044955E+00 
    1.2131572259470680E+01 
    1.2849891423905078E+01 
    1.2115591742205730E+01 
    1.1304108454606379E+01 
    1.3735906144706906E+01 
    8.2994025125742699E+00 
    1.2956525831618805E+01 
    1.2155230582603460E+01 
    1.3021840188900443E+01 
    1.2869602770621686E+01 
    8.3893165648837957E+00 
    8.8327876017375289E+00 
    8.3206286545924755E+00 
    1.0882443924757970E+01 
    3.4782288426095738E+00 
    9.0435532054580179E+00 
    1.3856023273756051E+01 
    9.2438096098303753E+00 
    9.4107668878218682E+00 
    1.2997175849743888E+01 
    1.3211270969877688E+01 
    8.2653656847001624E+00 
    1.2116843882466995E+01 
    1.2091128799081146E+01 
    9.3998207583060722E+00 
    1.2829357090271927E+01 
    6.3701346682291646E+00 
    4.0288378635222939E+00 
    9.6507936114580097E+00 
    9.2563002129621541E+00 
    1.2096093545023525E+01 
    5.6898511275658272E+00 
    1.2577932829816598E+01 
    4.1024097238348265E+00 
    9.1972644582217562E+00 
    8.4554632080902934E+00 
    9.0113156312227041E+00 
    1.5108500393198875E+01 
    3.3815370817071027E+00 
    8.9557548480261993E+00 
    1.0588933384947467E+01 
    8.6006214356506963E+00 
    6.7102565208340614E+00 
    1.2684010793501379E+01 
    1.4679893382360351E+01 
    1.2812579669304208E+01 
    8.8983214530446340E+00 
    4.9835309563420926E+00 
    1.4540105042403678E+01 
    1.2329044295317937E+01 
    6.4359839966170815E+00 
    8.5059628255277993E+00 
    1.3387638933935698E+01 
    2.8753577841933398E+00 
    9.3015301895411078E+00 
    1.2782575836148183E+01 
    9.0246071546423963E+00 
    7.8356674551331515E+00 
    8.9989423421149120E+00 
    1.1862920828494129E+01 
    9.0046116222289587E+00 
    4.4402263747705639E+00 
    7.7959332015483973E-01 
    6.6751562050209872E+00 
    1.3586279670161785E+01 
    8.3200012094031592E+00 
    1.0186462317835970E+01 
    9.7523229156573130E+00 
    1.1124795302390021E+01 
    9.0380002945183886E+00 
    1.2246949048395550E+01 
    1.5122452707313553E+01 
    1.0602659062916036E+01 
    1.2931996247881868E+01 
    4.7233910798349393E-01 
    1.2095890700212049E+01 
    4.9165960481555340E+00 
    1.4017229755094776E+01 
    8.9696635082404814E+00 
    7.9409686971153075E+00 
    6.7952861888415077E+00 
    4.6613162197001046E+00 
    1.0038958290407134E+01 
    7.0718566034491586E+00 
    1.1000235860137376E+01 
    1.8999101521871529E+00 
    9.9429018414795909E+00 
    1.2037819662343908E+01 
    5.4115603695354215E+00 
    1.2522701290410691E+01 
    1.3832648312879902E+01 
    1.2389869505786793E+01 
    8.8401655032446680E+00 
    9.0061528466829035E+00 
    8.9622928024078305E+00 
    5.0525914673757883E+00 
    8.0843144057789900E+00 
    7.9462782699208514E+00 
    8.9510884817465772E+00 
    8.2604044237428376E+00 
    5.9508982474583971E-01 
    5.6397846334058430E+00 
    8.6081466644742974E+00 
    8.9269431367261802E+00 
    1.1297824240304690E+01 
    1.8935823074571310E+00 
    9.3639485446690589E+00 
    9.2611798389386095E+00 
    3.2513760070002884E+00 
    1.2276875726178677E+01 
    7.6597626423412333E+00 
    9.1328828820312591E+00 
    1.2324279566108963E+01 
    4.6784326266461589E+00 
    1.2376229102803846E+01 
    7.7616486377477729E+00 
    8.7142622321707075E-01 
    8.3759183552819643E+00 
    1.2888228105062730E+01 
    1.2096019983680517E+01 
    1.2113659824501353E+01 
    9.3356752153184370E+00 
    9.2006477719149089E+00 
    7.6411755399352108E+00 
    6.1243089476943977E+00 
    1.2421246137532233E+01 
    8.5048190214973332E+00 
    5.9832064829512230E+00 
    1.2108588207048838E+01 
    1.2715661184097451E+01 
    9.1378886388311749E+00 
    8.7911032345784559E+00 
    1.5005832513837236E+01 
    9.4005265822552264E+00 
    1.2440979765823869E+01 
    7.2523438366957853E+00 
    1.5150916308790412E+01 
    5.9339097029655470E+00 
    8.0302819651089230E+00 
    6.6587763781449301E+00 
    9.6035718830170484E+00 
    7.6271418533115547E+00 
    1.5134716152468398E+01 
    9.4428480915830981E+00 
    1.1808287633888792E+01 
    6.1056480054003792E+00 
    9.0346495012687473E+00 
    1.2299262181720236E+01 
    7.6562436428989775E+00 
    6.3680643181708643E+00 
    9.8474579806514733E+00 
    1.2513356856141248E+01 
    6.5557330726752348E+00 
    8.4731520296220708E+00 
    8.8165299904968251E+00 
    1.2074472028544136E+01 
    8.6243725017783213E+00 
    1.2484940806593713E+01 
    1.3048368915088522E+01 
    7.6657237109993588E+00 
    7.5082707382750336E+00 
    7.1150228936541655E+00 
    1.2197485590522891E+01 
    9.2593017227274661E+00 
    1.4718051003398990E+01 
    1.1510602872867448E+01 
    1.2261589921272526E+01 
    1.4419218713401440E+01 
    1.3839930985506772E+01 
    9.0804748264049699E+00 
    8.9363583244425602E+00 
    1.1894611569172657E+01 
    1.2128816277829255E+01 
    1.2577002288464945E+01 
    1.2346911057502323E+01 
    1.5024476856700145E+01 
    9.4001281578093554E+00 
    7.7546252543047451E+00 
    9.3696403052394857E+00 
    1.2969438751724010E+01 
    9.1695429347773754E+00 
    5.2795168898095692E+00 
    8.8247690160804009E+00 
    1.3356288671532159E+01 
    9.2931738981261294E+00 
    7.7642552585337103E+00 
    8.7538710202655157E+00 
    1.3459182121443753E+01 
    1.2124328661768169E+01 
    7.3600760060897787E+00 
    1.3586542293643818E+01 
    9.1076867597094875E+00 
    1.2578421258529803E+01 
    1.3471047480332501E+01 
    9.4488304594711980E+00 
    4.6803453137465860E+00 
    9.8171813316592687E+00 
    4.8431550735140778E+00 
    9.2145948752501798E+00 
    9.0246844402739956E+00 
    1.0328667225642644E+01 
    5.1219545489062188E+00 
    1.0961538894978670E+01 
    9.0466683762510076E+00 
    1.2338386222813863E+01 
    9.4194985369042303E+00 
    7.1823555840276878E+00 
    8.6377627758792546E+00 
    9.4785431047761488E+00 
    9.4936146612323604E+00 
    1.3090531272985572E+01 
    7.4021696993783275E+00 
    7.2726098771903445E+00 
    5.3910164336151833E+00 
    1.2602594196552966E+01 
    8.6734074887373414E+00 
    1.1939812476264763E+01 
    8.9953945265766961E+00 
    5.9061555988050349E+00 
    1.2148324897468255E+01 
    8.9688309565768609E+00 
    6.4526512430115650E+00 
    6.8459675545555623E+00 
    7.0944727006946646E+00 
    1.2364826838204655E+01 
    8.9530532850415518E+00 
    1.2941751196132898E+01 
    8.9241382863174969E+00 
    8.8566768426601623E+00 
    8.3938941768391810E+00 
    1.2221652533240269E+01 
    8.7658019705041692E+00 
    7.1322603525969290E+00 
    1.3827940018177825E+01 
    1.2292694487016144E+01 
    6.2213032223045381E+00 
    2.3898661994018382E+00 
    8.9422232699385962E+00 
    8.3992174822094761E+00 
    7.5022124476617469E+00 
    8.2104695560599694E+00 
    1.2273540396333566E+01 
    8.6632611053303918E+00 
    7.8094970527845931E+00 
    1.2147795057686956E+01 
    6.1642665210933902E+00 
    1.1859539963926835E+01 
    8.1146093737513674E+00 
    7.0697242552290280E+00 
    7.5760138597546769E+00 
    1.2655647608788334E+01 
    9.0142820340214449E+00 
    9.0224273459544424E+00 
    5.2005638800499732E+00 
    5.6300179348969230E+00 
    1.1252715294483167E+01 
    9.0322552983628928E+00 
    8.9867245239004738E+00 
    1.3572383286811913E+01 
    7.2739560781821799E+00 
    9.0441343146330571E+00 
    6.3766936466777446E+00 
    6.5784036515457407E+00 
    1.2213792260945393E+01 
    8.6545379799029476E+00 
    6.2191445957288716E+00 
    9.4821880833066423E+00 
    8.8980231703823058E+00 
    1.2217159470674797E+01 
    1.3659857319142096E+01 
    9.1998247202272432E-01 
    8.9470481222048335E+00 
    9.2549602503031725E+00 
    1.2275388397509198E+01 
    8.4452026516699323E+00 
    8.9880486867422462E+00 
    1.3137081679892788E+01 
    7.6077313442308903E+00 
    6.2756405093593557E+00 
    1.0876298385491006E+01 
    1.2107922510164874E+01 
    1.3021072083631552E+01 
    1.3272489382349871E+01 
    8.7934694397805728E+00 
    8.9391841361974169E+00 
    1.0100464418030146E+01 
    5.9069896459111924E+00 
    1.2219379088602109E+01 
    6.7718521360348660E+00 
    6.1554323292065654E+00 
    1.1237147291156322E+01 
    1.0576206173055700E+01 
    6.0350843383429531E+00 
    1.2139155791969603E+01 
    1.3007996886967614E+01 
    9.4140610468553394E+00 
    1.3755517916851987E+01 
    1.2167558589571687E+01 
    8.5247631161816884E+00 
    1.2769645408687120E+01 
    6.5833158463099837E+00 
    1.2123954958100267E+01 
    8.9462166408681174E+00 
    8.9062935306397986E+00 
    1.3730722020424801E+01 
    8.7034795391772874E+00 
    1.0979129083599208E+01 
    7.5619732947685820E+00 
    1.3116278686997244E+01 
    1.2042954658002136E+01 
    7.8982423058697009E+00 
    1.2087443770300840E+01 
    8.1296551158731862E+00 
    8.9977468460496599E+00 
    1.2971361718832112E+01 
    1.2339565546109037E+01 
    1.3011020746369853E+01 
    1.2278044842751774E+01 
    8.0895101188923793E+00 
    8.2990267687603438E+00 
    1.3017099258650267E+01 
    8.4147734422587011E+00 
    1.1985158828985739E+01 
    8.6942253864441703E+00 
    3.5077292033704826E+00 
    6.2221421814866797E+00 
    5.7555076595813865E+00 
    1.2974420849494312E+01 
    1.3665241313049757E+01 
    1.2103227884924424E+01 
    1.0440298591034054E+01 
    1.2353225980003977E+01 
    1.2145606169018194E+01 
    1.2662143263662896E+01 
    5.0197921620841894E+00 
    3.2716400335387368E+00 
    1.0247814547385060E+01 
    8.5961090215480311E+00 
    1.2274900544088595E+01 
    1.2272684479630115E+01 
    9.2706328401390223E+00 
    1.2305302141732048E+01 
    8.9337025858175085E+00 
    8.8214835373546681E+00 
    4.5306872189078922E+00 
    3.2585297563606916E+00 
    1.3456342987442611E+01 
    6.9905403397348538E+00 
    7.8428071201484304E+00 
    9.1786234078641442E+00 
    1.5006818336968914E+01 
    9.2633032106205935E+00 
    9.1946727217930384E+00 
    3.7051587348500563E+00 
    9.2638568156221570E+00 
    9.2760070302498576E+00 
    1.2550536517811981E+01 
    7.5799315588379290E+00 
    8.5700329112936942E+00 
    1.3613362879926406E+01 
    8.9560017841919919E+00 
    1.2116922011516602E+01 
    1.2339945894223286E+01 
    1.1108106065047076E+01 
    7.5944857022892744E+00 
    1.2277316565661691E+01 
    8.7464833514307454E+00 
    1.2288355288364150E+01 
    1.2062545152583274E+01 
    1.2991820228382513E+01 
    1.2276986162207956E+01 
    1.1555597587801465E+01 
    8.9444271147015932E+00 
    5.9882025844574063E+00 
    1.4882968771156120E+01 
    6.9116116184036294E+00 
    1.2931302118995687E+01 
    8.9418085571628279E+00 
    7.3111389848005386E+00 
    4.3841984930426490E+00 
    9.3067134684306279E+00 
    1.2266032870967626E+01 
    1.2261829727078705E+01 
    8.9780504073333827E+00 
    8.9359266375226127E+00 
    1.3809249273165106E+01 
    1.3219367371803468E+01 
    9.2800727844537594E+00 
    3.0453692675274913E+00 
    1.1528632735102088E+01 
    1.5132870875781741E+01 
    8.9478038756324558E+00 
    1.0765663677442136E+01 
    8.4408085951743992E+00 
    1.4744715192892764E+01 
    1.3291827691499090E+01 
    1.3043111761552524E+01 
    9.2998368322767515E+00 
    4.0853564505557651E+00 
    8.4008630494115284E+00 
    8.4666544931783569E+00 
    8.5137273978286760E+00 
    3.3116046282728004E+00 