# vtk DataFile Version 2.0
Pressure Field Data 
ASCII 
DATASET UNSTRUCTURED_GRID 

POINTS 2860 double 

    0.0000000000000000E+00     0.0000000000000000E+00     0.0000000000000000E+00 
    1.0000000000000000E+00     0.0000000000000000E+00     0.0000000000000000E+00 
    1.0000000000000000E+00     1.0000000000000000E+00     0.0000000000000000E+00 
    0.0000000000000000E+00     1.0000000000000000E+00     0.0000000000000000E+00 
    2.5000000000000000E-01     2.5000000000000000E-01     0.0000000000000000E+00 
    7.5000000000000000E-01     2.5000000000000000E-01     0.0000000000000000E+00 
    7.5000000000000000E-01     7.5000000000000000E-01     0.0000000000000000E+00 
    2.5000000000000000E-01     7.5000000000000000E-01     0.0000000000000000E+00 
    3.1249999999942091E-02     0.0000000000000000E+00     0.0000000000000000E+00 
    6.2499999999873469E-02     0.0000000000000000E+00     0.0000000000000000E+00 
    9.3749999999826514E-02     0.0000000000000000E+00     0.0000000000000000E+00 
    1.2499999999977961E-01     0.0000000000000000E+00     0.0000000000000000E+00 
    1.5624999999968961E-01     0.0000000000000000E+00     0.0000000000000000E+00 
    1.8749999999959971E-01     0.0000000000000000E+00     0.0000000000000000E+00 
    2.1874999999950970E-01     0.0000000000000000E+00     0.0000000000000000E+00 
    2.4999999999941969E-01     0.0000000000000000E+00     0.0000000000000000E+00 
    2.8124999999932920E-01     0.0000000000000000E+00     0.0000000000000000E+00 
    3.1249999999923850E-01     0.0000000000000000E+00     0.0000000000000000E+00 
    3.4374999999914790E-01     0.0000000000000000E+00     0.0000000000000000E+00 
    3.7499999999905720E-01     0.0000000000000000E+00     0.0000000000000000E+00 
    4.0624999999896660E-01     0.0000000000000000E+00     0.0000000000000000E+00 
    4.3749999999887590E-01     0.0000000000000000E+00     0.0000000000000000E+00 
    4.6874999999878530E-01     0.0000000000000000E+00     0.0000000000000000E+00 
    4.9999999999869471E-01     0.0000000000000000E+00     0.0000000000000000E+00 
    5.3124999999877620E-01     0.0000000000000000E+00     0.0000000000000000E+00 
    5.6249999999885780E-01     0.0000000000000000E+00     0.0000000000000000E+00 
    5.9374999999893940E-01     0.0000000000000000E+00     0.0000000000000000E+00 
    6.2499999999902101E-01     0.0000000000000000E+00     0.0000000000000000E+00 
    6.5624999999910261E-01     0.0000000000000000E+00     0.0000000000000000E+00 
    6.8749999999918421E-01     0.0000000000000000E+00     0.0000000000000000E+00 
    7.1874999999926570E-01     0.0000000000000000E+00     0.0000000000000000E+00 
    7.4999999999934730E-01     0.0000000000000000E+00     0.0000000000000000E+00 
    7.8124999999942890E-01     0.0000000000000000E+00     0.0000000000000000E+00 
    8.1249999999951039E-01     0.0000000000000000E+00     0.0000000000000000E+00 
    8.4374999999959199E-01     0.0000000000000000E+00     0.0000000000000000E+00 
    8.7499999999967359E-01     0.0000000000000000E+00     0.0000000000000000E+00 
    9.0624999999975520E-01     0.0000000000000000E+00     0.0000000000000000E+00 
    9.3749999999983680E-01     0.0000000000000000E+00     0.0000000000000000E+00 
    9.6874999999991840E-01     0.0000000000000000E+00     0.0000000000000000E+00 
    1.0000000000000000E+00     3.1249999999942091E-02     0.0000000000000000E+00 
    1.0000000000000000E+00     6.2499999999873469E-02     0.0000000000000000E+00 
    1.0000000000000000E+00     9.3749999999826514E-02     0.0000000000000000E+00 
    1.0000000000000000E+00     1.2499999999977961E-01     0.0000000000000000E+00 
    1.0000000000000000E+00     1.5624999999968961E-01     0.0000000000000000E+00 
    1.0000000000000000E+00     1.8749999999959971E-01     0.0000000000000000E+00 
    1.0000000000000000E+00     2.1874999999950970E-01     0.0000000000000000E+00 
    1.0000000000000000E+00     2.4999999999941969E-01     0.0000000000000000E+00 
    1.0000000000000000E+00     2.8124999999932920E-01     0.0000000000000000E+00 
    1.0000000000000000E+00     3.1249999999923850E-01     0.0000000000000000E+00 
    1.0000000000000000E+00     3.4374999999914790E-01     0.0000000000000000E+00 
    1.0000000000000000E+00     3.7499999999905720E-01     0.0000000000000000E+00 
    1.0000000000000000E+00     4.0624999999896660E-01     0.0000000000000000E+00 
    1.0000000000000000E+00     4.3749999999887590E-01     0.0000000000000000E+00 
    1.0000000000000000E+00     4.6874999999878530E-01     0.0000000000000000E+00 
    1.0000000000000000E+00     4.9999999999869471E-01     0.0000000000000000E+00 
    1.0000000000000000E+00     5.3124999999877620E-01     0.0000000000000000E+00 
    1.0000000000000000E+00     5.6249999999885780E-01     0.0000000000000000E+00 
    1.0000000000000000E+00     5.9374999999893940E-01     0.0000000000000000E+00 
    1.0000000000000000E+00     6.2499999999902101E-01     0.0000000000000000E+00 
    1.0000000000000000E+00     6.5624999999910261E-01     0.0000000000000000E+00 
    1.0000000000000000E+00     6.8749999999918421E-01     0.0000000000000000E+00 
    1.0000000000000000E+00     7.1874999999926570E-01     0.0000000000000000E+00 
    1.0000000000000000E+00     7.4999999999934730E-01     0.0000000000000000E+00 
    1.0000000000000000E+00     7.8124999999942890E-01     0.0000000000000000E+00 
    1.0000000000000000E+00     8.1249999999951039E-01     0.0000000000000000E+00 
    1.0000000000000000E+00     8.4374999999959199E-01     0.0000000000000000E+00 
    1.0000000000000000E+00     8.7499999999967359E-01     0.0000000000000000E+00 
    1.0000000000000000E+00     9.0624999999975520E-01     0.0000000000000000E+00 
    1.0000000000000000E+00     9.3749999999983680E-01     0.0000000000000000E+00 
    1.0000000000000000E+00     9.6874999999991840E-01     0.0000000000000000E+00 
    9.6875000000003686E-01     1.0000000000000000E+00     0.0000000000000000E+00 
    9.3750000000011691E-01     1.0000000000000000E+00     0.0000000000000000E+00 
    9.0625000000015765E-01     1.0000000000000000E+00     0.0000000000000000E+00 
    8.7500000000017863E-01     1.0000000000000000E+00     0.0000000000000000E+00 
    8.4375000000028044E-01     1.0000000000000000E+00     0.0000000000000000E+00 
    8.1250000000040856E-01     1.0000000000000000E+00     0.0000000000000000E+00 
    7.8125000000054956E-01     1.0000000000000000E+00     0.0000000000000000E+00 
    7.5000000000066480E-01     1.0000000000000000E+00     0.0000000000000000E+00 
    7.1875000000086831E-01     1.0000000000000000E+00     0.0000000000000000E+00 
    6.8750000000102829E-01     1.0000000000000000E+00     0.0000000000000000E+00 
    6.5625000000114431E-01     1.0000000000000000E+00     0.0000000000000000E+00 
    6.2500000000129829E-01     1.0000000000000000E+00     0.0000000000000000E+00 
    5.9375000000147926E-01     1.0000000000000000E+00     0.0000000000000000E+00 
    5.6250000000168354E-01     1.0000000000000000E+00     0.0000000000000000E+00 
    5.3125000000188671E-01     1.0000000000000000E+00     0.0000000000000000E+00 
    5.0000000000205835E-01     1.0000000000000000E+00     0.0000000000000000E+00 
    4.6875000000192979E-01     1.0000000000000000E+00     0.0000000000000000E+00 
    4.3750000000180111E-01     1.0000000000000000E+00     0.0000000000000000E+00 
    4.0625000000167238E-01     1.0000000000000000E+00     0.0000000000000000E+00 
    3.7500000000154382E-01     1.0000000000000000E+00     0.0000000000000000E+00 
    3.4375000000141509E-01     1.0000000000000000E+00     0.0000000000000000E+00 
    3.1250000000128642E-01     1.0000000000000000E+00     0.0000000000000000E+00 
    2.8125000000115769E-01     1.0000000000000000E+00     0.0000000000000000E+00 
    2.5000000000102918E-01     1.0000000000000000E+00     0.0000000000000000E+00 
    2.1875000000090050E-01     1.0000000000000000E+00     0.0000000000000000E+00 
    1.8750000000077180E-01     1.0000000000000000E+00     0.0000000000000000E+00 
    1.5625000000064329E-01     1.0000000000000000E+00     0.0000000000000000E+00 
    1.2500000000051459E-01     1.0000000000000000E+00     0.0000000000000000E+00 
    9.3750000000385914E-02     1.0000000000000000E+00     0.0000000000000000E+00 
    6.2500000000257239E-02     1.0000000000000000E+00     0.0000000000000000E+00 
    3.1250000000128557E-02     1.0000000000000000E+00     0.0000000000000000E+00 
    0.0000000000000000E+00     9.6875000000003686E-01     0.0000000000000000E+00 
    0.0000000000000000E+00     9.3750000000011691E-01     0.0000000000000000E+00 
    0.0000000000000000E+00     9.0625000000015765E-01     0.0000000000000000E+00 
    0.0000000000000000E+00     8.7500000000017863E-01     0.0000000000000000E+00 
    0.0000000000000000E+00     8.4375000000028044E-01     0.0000000000000000E+00 
    0.0000000000000000E+00     8.1250000000040856E-01     0.0000000000000000E+00 
    0.0000000000000000E+00     7.8125000000054956E-01     0.0000000000000000E+00 
    0.0000000000000000E+00     7.5000000000066480E-01     0.0000000000000000E+00 
    0.0000000000000000E+00     7.1875000000086831E-01     0.0000000000000000E+00 
    0.0000000000000000E+00     6.8750000000102829E-01     0.0000000000000000E+00 
    0.0000000000000000E+00     6.5625000000114431E-01     0.0000000000000000E+00 
    0.0000000000000000E+00     6.2500000000129829E-01     0.0000000000000000E+00 
    0.0000000000000000E+00     5.9375000000147926E-01     0.0000000000000000E+00 
    0.0000000000000000E+00     5.6250000000168354E-01     0.0000000000000000E+00 
    0.0000000000000000E+00     5.3125000000188671E-01     0.0000000000000000E+00 
    0.0000000000000000E+00     5.0000000000205835E-01     0.0000000000000000E+00 
    0.0000000000000000E+00     4.6875000000192979E-01     0.0000000000000000E+00 
    0.0000000000000000E+00     4.3750000000180111E-01     0.0000000000000000E+00 
    0.0000000000000000E+00     4.0625000000167238E-01     0.0000000000000000E+00 
[...]
CELL_DATA 2795 
SCALARS Pressure double 1 
LOOKUP_TABLE default 

    6.0509034027994444E+00 
    1.3889511773098853E+01 
    9.7897088191029962E+00 
    9.3949591495454783E+00 
    7.4522936652145235E+00 
    1.3763558405298411E+01 
    1.4469706322417048E+01 
    5.4007631016191260E+00 
    1.0352573921920172E+01 
    7.9116663770349716E+00 
    6.7443919260891816E+00 
    1.3514803771624761E+01 
    1.3798759358366645E+01 
    1.3733507816083700E+01 
    9.0354996892099706E+00 
    5.3105332605150961E+00 
    8.6347648514630748E+00 
    7.1841201440889995E+00 
    1.3163503051486988E+01 
    9.7792008171011560E+00 
    9.6738613851893351E+00 
    1.3670532795075284E+01 
    9.1344375317767508E+00 
    3.5507119631822143E-01 
    1.3511934099987553E+01 
    1.3770354940752783E+01 
    1.4500199160730135E+01 
    6.4827927417600781E+00 
    1.3437677954595996E+01 
    1.4495792123269286E+01 
    9.8326597570404282E+00 
    9.9992557502359904E+00 
    7.0066380433053848E+00 
    9.7520540375484721E+00 
    3.1328320063687869E+00 
    8.6401265234162405E+00 
    9.7413581746805704E+00 
    1.4534758545358647E+01 
    1.4447430663661766E+01 
    1.3527291572173130E+01 
    7.3877875542496714E+00 
    1.3485063635039330E+01 
    7.3917967762181558E-01 
    9.6378120690165030E+00 
    1.4269064320224327E+01 
    1.4103447545085780E+01 
    1.3504421250685471E+01 
    1.0694073441900047E+01 
    1.3574738669299403E+01 
    8.8362496832410873E+00 
    8.4128746180067573E+00 
    9.9645791084179258E+00 
    9.5279212800001289E+00 
    8.6850957064368277E+00 
    9.9006632640804710E+00 
    1.2960180726517510E+01 
    1.1668367498272005E+01 
    7.4929357922732169E+00 
    1.3674375035447257E+01 
    1.3599691464036948E+01 
    9.3883414811946402E+00 
    9.4150111552811477E+00 
    9.2995530127812884E+00 
    1.4400426052915911E+01 
    1.4650169692852506E+01 
    8.6446888856368460E+00 
    9.9635365193719974E+00 
    1.3413598474994204E+01 
    1.1473123198259190E+01 
    9.4581906605097164E+00 
    1.4655714666930116E+01 
    1.3617797505716291E+01 
    8.5217292685505992E+00 
    1.4201025679443790E+01 
    1.0129844139956875E+01 
    1.3365317344323437E+01 
    1.4545297025313447E+01 
    1.0155954917360354E+01 
    6.1845870779290282E+00 
    9.9828016242339661E+00 
    1.4456097231749435E+01 
    1.4686172470813869E+01 
    8.6556989403744815E+00 
    9.8979096113383562E+00 
    1.4728686495159106E+01 
    9.7441138729830250E+00 
    9.2182737882446339E+00 
    1.1878070754820419E+01 
    5.8926135085996609E+00 
    8.4353178800924979E+00 
    9.8974596184623564E+00 
    1.0500052750568340E+01 
    1.6174525069279877E+01 
    7.2403298162629355E+00 
    9.9719948249967576E+00 
    1.3482959112864219E+01 
    1.3751705552565516E+01 
    6.3682781268988569E+00 
    9.6162742061482973E+00 
    9.9275941574548963E+00 
    1.3771423451254641E+01 
    9.9284698345262310E+00 
    1.3705460504085087E+01 
    3.8689039494002553E+00 
    6.5571259655146346E+00 
    1.0207811409056022E+01 
    1.3897646212862172E+01 
    8.6052050722783306E+00 
    9.1738314984383003E+00 
    9.9129562700701790E+00 
    9.1854545839381618E+00 
    1.1267794438790682E+01 
    8.9201818273484346E+00 
    8.5301671968554800E+00 
    6.7138273445503431E+00 
    1.1626068045822212E+01 
    9.9996273673854343E+00 
    1.4314611568695419E+01 
    8.5865187167265482E+00 
    9.3773292732453282E+00 
    1.3606564177317805E+01 
    7.8056868519514140E+00 
    1.4043623144664698E+01 
    9.8209989056109883E+00 
    9.3079366124001357E+00 
    1.3753627514566451E+01 
    9.9963201348748267E+00 
    1.4554792834894830E+01 
    1.1889852671528331E+01 
    1.2812665753903721E+01 
    1.4516575986919856E+01 
    7.2551265544215271E+00 
    1.0231099395247941E+01 
    1.3754839456093755E+01 
    2.9004503563318540E+00 
    9.8796171296153279E+00 
    1.4483771951864041E+01 
    9.3366379300614692E+00 
    1.0797927442961317E+01 
    6.3271375516622328E+00 
    1.3481237226865947E+01 
    1.6662540173283830E+01 
    1.2346273293648384E+01 
    9.3352267702136231E+00 
    8.3373355900134580E+00 
    1.0551073624161303E+01 
    9.8379085315774581E+00 
    6.8158227551334116E+00 
    1.4512733453591743E+01 
    1.3839413773959777E+01 
    1.3484598519145328E+01 
    1.0498028824702233E+01 
    8.4935220930444633E+00 
    9.6723951441459608E+00 
    1.4227892336710594E+01 
    8.7406449533584425E+00 
    9.7962858410071352E+00 
    8.9019098405250698E+00 
    1.1373734639957661E+01 
    1.6650777303731509E+01 
    1.3476432921524067E+01 
    8.4502057006784881E+00 
    1.3940400102231154E+01 
    1.3857941171317046E+01 
    1.3935890780165831E+01 
    1.4924552444587437E+01 
    1.5459289630589961E+01 
    1.4101438973296322E+01 
    9.9550112947924312E+00 
    1.0669992318484145E+01 
    1.3931530609417155E+01 
    1.4325631547117755E+01 
    7.1155842249518848E+00 
    1.3504089817020724E+01 
    1.4190688768254390E+01 
    6.9278448438392557E+00 
    1.4839001406719671E+01 
    1.4825759712412276E+01 
    1.3231251321819398E+01 
    1.0296723470674676E+01 
    2.5505104588751348E+00 
    1.4484665347232664E+01 
    1.0145698630884041E+01 
    1.4604607652761429E+01 
    9.2684965299848550E+00 
    1.4324333880298509E+01 
    9.0624541326121311E-01 
    1.2830453035697870E+01 
    9.4589873226194090E+00 
    8.4534913246080539E+00 
    8.2357083325862828E+00 
    9.7909531507997034E+00 
    1.0930775269170965E+01 
    1.0183705534877681E+01 
    6.8173991531300731E+00 
    1.4320860364671546E+01 
    1.3778495791780552E+01 
    1.1596566695614451E+01 
    1.0202042175402397E+01 
    1.4819271131478842E+00 
    7.5932592743430867E+00 
    5.2505225267297204E+00 
    1.4506617651812823E+01 
    1.1074264477417763E+01 
    1.3829234090642595E+01 
    1.3843032986942315E+01 
    8.8160049799759896E+00 
    1.1631409335588517E+01 
    1.3480334216483147E+01 
    1.4808578588162966E+01 
    6.2992352778699274E+00 
    1.2174461565198953E+01 
    1.0214108438518615E+01 
    5.6028125232339701E+00 
    8.8096566770509224E+00 
    1.2164575349376269E+01 
    1.3805888508858478E+01 
    9.8453495951311645E+00 
    1.3913949951550103E+01 
    1.3684647068916336E+01 
    1.3635064078758306E+01 
    9.6787060990695650E+00 
    8.3930927580517256E+00 
    1.3492337622965550E+01 
    8.5168867172344722E+00 
    9.9331418246631618E+00 
    8.3465437793590063E+00 
    9.7415595326662796E+00 
    1.3851774282257521E+01 
    6.1653572439317834E+00 
    8.7200529648734513E+00 
    1.4421568379374515E+01 
    9.6912929346680805E+00 
    1.0965158347892043E+01 
    6.3260716334416447E+00 
    8.5787269958397818E+00 
    1.3663231770508842E+01 
    1.3968559953000621E+01 
    5.1552471840109382E+00 
    9.6960085817511654E+00 
    8.3867252161746588E+00 
    1.5226962733651620E+01 
    1.4694115051590483E+01 
    1.5485857877428629E+01 
    9.7161914577554391E+00 
    1.3825803494750687E+01 
    1.3438648856319018E+01 
    9.5904459853758510E+00 
    1.3484972726812057E+01 
    1.0203164940155260E+01 
    5.6778537088687493E+00 
    9.9455210562873866E+00 
    1.4408566150428499E+01 
    1.3481869767327746E+01 
    6.7089722229922133E+00 
    1.3510867915295517E+01 
    1.0935685140378151E+01 
    9.8604349421768855E+00 
    9.4112611367655976E+00 
    1.3352174020421696E+01 
    1.0394971028340949E+01 
    1.3497562303999858E+01 
    9.5755270338502161E+00 
    5.8843876987067363E+00 
    1.0002450565144940E+01 
    8.2448211815791481E+00 
    1.2348354667619693E+01 
    1.4602133635437964E+01 
    1.3490693924662175E+01 
    1.4477448096682227E+01 
    9.6403198953396565E+00 
    6.5327867534015285E+00 
    6.6260946104785470E+00 
    1.0043219037417423E+01 
    9.9095848221500038E+00 
    1.4099829869051659E+00 
    1.3008978871898268E+01 
    1.4953732593240384E+01 
    9.2817228594719321E+00 
    5.9158501005970399E+00 
    1.1330620473362382E+01 
    1.3509514911643761E+01 
    7.0165335993716829E+00 
    4.7572304467660205E+00 
    9.8860231118565967E+00 
    1.3595135375415342E+01 
    1.4226986763845696E+01 
    1.4119043665835569E+01 
    1.3972265802655846E+01 
    6.8528342217841729E+00 
    9.8542648530287540E+00 
    1.3038729360119834E+01 
    7.7662939106077271E+00 
    1.3786106500237207E+01 
    1.1863736126695708E+01 
    6.7277255232846347E+00 
    1.3616545910469309E+01 
    1.4503514897287040E+01 
    1.3628763472731487E+01 
    6.7544481613159588E+00 
    9.9596799158016207E+00 
    7.4271836590229352E+00 
    9.3996926437955963E+00 
    1.3501079464406544E+01 
    1.3489477860909423E+01 
    6.7940250360657304E+00 
    1.4363019785508090E+01 
    1.0508883050685574E+01 
    1.3522970559952249E+01 
    1.4332182483828101E+01 
    1.3509394977137514E+01 
    1.2586786189967993E+01 
    1.5280417439675212E+01 
    9.2385887046450925E+00 
    1.4447405043482499E+01 
    1.3552394905386164E+01 
    1.4518745396108303E+01 
    1.4356230314159159E+01 
    9.3370956194155266E+00 
    9.7817893864800318E+00 
    9.2723026707192044E+00 
    1.2103736582773093E+01 
    3.8811447988806673E+00 
    9.9794570659293829E+00 
    1.5405364573764144E+01 
    1.0203147473557053E+01 
    1.0387513614577541E+01 
    1.4492230271552678E+01 
    1.4720292076685697E+01 
    9.1732999571718068E+00 
    1.3515143728557399E+01 
    1.3485695197381009E+01 
    1.0375369136727175E+01 
    1.4312023208481190E+01 
    7.0678003335065878E+00 
    4.4875689214201531E+00 
    1.0651016111780839E+01 
    1.0218211680240953E+01 
    1.3491750714217131E+01 
    6.3502118622844268E+00 
    1.4035519210733069E+01 
    4.5683420443737104E+00 
    1.0148627535010526E+01 
    9.3740739276132583E+00 
    9.9359271500554929E+00 
    1.6702058095180519E+01 
    3.7709823838523517E+00 
    9.8969981986512643E+00 
    1.1823364881351704E+01 
    9.5438888758422351E+00 
    7.4964754998896277E+00 
    1.4146917745126462E+01 
    1.6261681871188387E+01 
    1.4293447631987677E+01 
    9.8378298067286565E+00 
    5.5714604717507914E+00 
    1.6115500984609906E+01 
    1.3767610610468877E+01 
    7.1837090542335877E+00 
    9.4802003567387079E+00 
    1.4908399212665476E+01 
    3.2067268947901422E+00 
    1.0267123769822241E+01 
    1.4261735073111213E+01 
    9.9492114214347520E+00 
    8.6684572656035037E+00 
    9.9365594990253854E+00 
    1.3259095432256709E+01 
    9.9301752188389703E+00 
    4.9591844255925626E+00 
    8.7771844926591736E-01 
    7.4078453150039882E+00 
    1.5123687986996952E+01 
    9.2717778054743523E+00 
    1.1276996667289566E+01 
    1.0710898905331806E+01 
    1.2425215314416013E+01 
    9.9628470735373806E+00 
    1.3678033421551557E+01 
    1.6716330962515965E+01 
    1.1786725323293675E+01 
    1.4420501734730728E+01 
    5.2745974101398163E-01 
    1.3491474111001633E+01 
    5.4919075819214704E+00 
    1.5573170165704825E+01 
    9.9105789696318389E+00 
    8.8096603573710883E+00 
    7.5765090521131242E+00 
    5.2052651181512530E+00 
    1.1131316556144874E+01 
    7.8475496528358848E+00 
    1.2244329324789030E+01 
    2.1349097841567630E+00 
    1.0968935646359284E+01 
    1.3425855864029028E+01 
    6.0133946010976915E+00 
    1.3976267264571101E+01 
    1.5376777328819768E+01 
    1.3821965597524382E+01 
    9.7772267901991849E+00 
    9.9308000091338222E+00 
    9.9033072284239694E+00 
    5.6420328858391082E+00 
    9.0097066526939251E+00 
    8.8558615461952019E+00 
    9.8923948765867156E+00 
    9.2039291215555998E+00 
    6.6675321900935347E-01 
    6.3122223099223262E+00 
    9.5948683519460847E+00 
    9.8675817987482315E+00 
    1.2582948700398308E+01 
    2.1094565660650564E+00 
    1.0335893472392019E+01 
    1.0222589768674190E+01 
    3.6270393613247003E+00 
    1.3687223004170162E+01 
    8.5361263948959376E+00 
    1.0072674887136074E+01 
    1.3763749747815893E+01 
    5.2250546808731002E+00 
    1.3807702105974537E+01 
    8.6499385178380859E+00 
    9.6734907480926791E-01 
    9.3330949075429146E+00 
    1.4374649335433011E+01 
    1.3491324986953941E+01 
    1.3509488802205803E+01 
    1.0249010151412918E+01 
    1.0153627102955848E+01 
    8.5154070488656171E+00 
    6.8556576009491064E+00 
    1.3871215276797102E+01 
    9.4777660632731937E+00 
    6.6792114871486650E+00 
    1.3505220488966623E+01 
    1.4186981750384668E+01 
    1.0071568808287212E+01 
    9.7372666877925003E+00 
    1.6595937115635845E+01 
    1.0376214193558924E+01 
    1.3889772900086790E+01 
    8.0848023099583255E+00 
    1.6744935741789238E+01 
    6.5874441020163443E+00 
    8.9225588062891905E+00 
    7.3847171329415335E+00 
    1.0601362400710940E+01 
    8.4569698143209990E+00 
    1.6728443452472277E+01 
    1.0423058260709210E+01 
    1.3195279623905565E+01 
    6.7762484489166930E+00 
    9.9591764453956699E+00 
    1.3734543578081919E+01 
    8.4904453335889762E+00 
    7.1233778208947545E+00 
    1.0991826785765650E+01 
    1.3958716109299685E+01 
    7.2694468000649310E+00 
    9.3942250145463682E+00 
    9.7658962424149625E+00 
    1.3467307374520333E+01 
    9.5703481492836993E+00 
    1.3933977642474220E+01 
    1.4547273800657758E+01 
    8.5426780373095390E+00 
    8.3681084536432149E+00 
    7.8819496112005281E+00 
    1.3606756168821544E+01 
    1.0228736983050245E+01 
    1.6300744685595337E+01 
    1.2789735833386695E+01 
    1.3694104725375407E+01 
    1.5989910717721678E+01 
    1.5383797536512335E+01 
    1.0008412765562747E+01 
    9.8773893040670124E+00 
    1.3262701196767228E+01 
    1.3528669550017103E+01 
    1.4041429477224783E+01 
    1.3787608758337537E+01 
    1.6616523966734299E+01 
    1.0375762827571526E+01 
    8.6419342315015211E+00 
    1.0373930449808777E+01 
    1.4461811522652678E+01 
    1.0118335028355864E+01 
    5.8685196639637196E+00 
    9.7612981297526602E+00 
    1.4876230194310288E+01 
    1.0257951734793570E+01 
    8.6526904342339481E+00 
    9.7074541437886399E+00 
    1.4985510588202002E+01 
    1.3540869207691452E+01 
    8.2043658770250349E+00 
    1.5120414216054311E+01 
    1.0042095467527943E+01 
    1.4036287624083732E+01 
    1.4998198945857844E+01 
    1.0525385608348833E+01 
    5.2292680983818336E+00 
    1.0954937818647901E+01 
    5.4122647271525102E+00 
    1.0171823161313336E+01 
    9.9506975906421804E+00 
    1.1536663267012329E+01 
    5.7241826108263973E+00 
    1.2246161914387931E+01 
    9.9718691257856928E+00 
    1.3778011747848733E+01 
    1.0508884531372512E+01 
    8.0120816924543590E+00 
    9.5850750075460400E+00 
    1.0420030100223670E+01 
    1.0477768278903911E+01 
    1.4593423636318123E+01 
    8.2498445080443776E+00 
    8.1062437486667545E+00 
    6.0237932316661249E+00 
    1.4067868301289046E+01 
    9.6251450872480167E+00 
    1.3337014296591416E+01 
    9.9212539929649992E+00 
    6.5956275767970043E+00 
    1.3568759479715764E+01 
    9.8966117058862135E+00 
    7.1997560940793282E+00 
    7.6344104967893909E+00 
    7.9095065849486961E+00 
    1.3807669942653426E+01 
    9.8943642444306015E+00 
    1.4431809433552242E+01 
    9.8552626681838333E+00 
    9.7935389275724134E+00 
    9.3133835496610438E+00 
    1.3650119716152775E+01 
    9.7114535122089514E+00 
    7.9507019877568998E+00 
    1.5371929685474155E+01 
    1.3729068161585957E+01 
    6.9035169009323658E+00 
    2.6624828644054159E+00 
    9.8839203938198672E+00 
    9.3184860860174279E+00 
    8.3607853112643138E+00 
    9.1190801058562307E+00 
    1.3691661897950501E+01 
    9.5951873446915208E+00 
    8.6969070456179249E+00 
    1.3550103745474347E+01 
    6.8415975398860276E+00 
    1.3223331624724866E+01 
    9.0020782498723122E+00 
    7.8870988488360974E+00 
    8.4430703134997351E+00 
    1.4119995789207879E+01 
    9.9389587300113948E+00 
    9.9469715511311936E+00 
    5.8064665329490932E+00 
    6.2835172511438477E+00 
    1.2574870015886509E+01 
    9.9568957285274760E+00 
    9.9234975565821895E+00 
    1.5106244723777412E+01 
    8.1082274911385035E+00 
    9.9698475364087980E+00 
    7.0768598927009760E+00 
    7.3005572945434540E+00 
    1.3643902115942028E+01 
    9.6011141949552297E+00 
    6.9374584999275601E+00 
    1.0507548826713254E+01 
    9.8409177192965114E+00 
    1.3646589702515611E+01 
    1.5198350602188670E+01 
    1.0197642904506241E+00 
    9.8887698383337348E+00 
    1.0216337253405376E+01 
    1.3709517880957232E+01 
    9.4054772494108363E+00 
    9.9130139251685740E+00 
    1.4645605516384617E+01 
    8.4785554161962349E+00 
    7.0003339429026088E+00 
    1.2046388137104554E+01 
    1.3504826501896831E+01 
    1.4517286541541974E+01 
    1.4784711637298066E+01 
    9.7327148933493106E+00 
    9.8804089237780399E+00 
    1.1198777338945295E+01 
    6.5571411416019236E+00 
    1.3630764033546045E+01 
    7.5502261945212208E+00 
    6.8310626399391179E+00 
    1.2488137848745616E+01 
    1.1747587161282027E+01 
    6.6982695141066593E+00 
    1.3540085686095415E+01 
    1.4503489463907179E+01 
    1.0391169962797401E+01 
    1.5299354599842282E+01 
    1.3572545332534323E+01 
    9.4703241543985399E+00 
    1.4245596033615350E+01 
    7.3046408731537662E+00 
    1.3523193347435644E+01 
    9.8877285761917886E+00 
    9.8495426715574634E+00 
    1.5274705085222102E+01 
    9.6583292993766428E+00 
    1.2209771906076909E+01 
    8.4276584722703731E+00 
    1.4620230436535810E+01 
    1.3431766191791606E+01 
    8.7987805622531976E+00 
    1.3480903581543577E+01 
    9.0196242684306327E+00 
    9.9224435524351744E+00 
    1.4463614438074138E+01 
    1.3782204606136778E+01 
    1.4506630320075939E+01 
    1.3712633791225759E+01 
    9.0149716443730004E+00 
    9.2300808948257984E+00 
    1.4513497933030964E+01 
    9.3540787765483469E+00 
    1.3365262819952807E+01 
    9.6480738379542732E+00 
    3.9121072450647580E+00 
    6.9034817995255793E+00 
    6.3907787810820675E+00 
    1.4467129312788256E+01 
    1.5204628172411878E+01 
    1.3498670666082839E+01 
    1.1502904112530167E+01 
    1.3781945527402375E+01 
    1.3547645594626907E+01 
    1.4122687408057482E+01 
    5.6066408440463302E+00 
    3.6472634070308123E+00 
    1.1299390131885087E+01 
    9.5641781908147170E+00 
    1.3693085757474954E+01 
    1.3690611557068726E+01 
    1.0238501860613651E+01 
    1.3727175873225168E+01 
    9.8748106030672815E+00 
    9.8044959432638219E+00 
    5.0594875774570989E+00 
    3.6335811310362649E+00 
    1.4982079473616666E+01 
    7.7558313613233878E+00 
    8.7403907474195481E+00 
    1.0126750161754300E+01 
    1.6597626275175415E+01 
    1.0225839529740146E+01 
    1.0217118433307633E+01 
    4.1343013156448807E+00 
    1.0227123437057465E+01 
    1.0241206155082279E+01 
    1.4007454852035005E+01 
    8.4486360829624587E+00 
    9.5063607441632492E+00 
    1.5149066293968943E+01 
    9.8969893558882536E+00 
    1.3514275761673652E+01 
    1.3770424046524631E+01 
    1.2266071891636550E+01 
    8.4278671020177640E+00 
    1.3712130541974066E+01 
    9.6950653207658526E+00 
    1.3705603555583384E+01 
    1.3453929127669085E+01 
    1.4486036137852926E+01 
    1.3710790766790579E+01 
    1.2873327996530966E+01 
    9.8858402992315018E+00 
    6.6471219890405662E+00 
    1.6470474720982633E+01 
    7.7055754083635311E+00 
    1.4417710415909445E+01 
    9.8832915616915535E+00 
    8.1513546085390445E+00 
    4.8807280324519828E+00 
    1.0277034852662759E+01 
    1.3699307542632678E+01 
    1.3695584403808109E+01 
    9.9033636970395698E+00 
    9.8775575197757401E+00 
    1.5354963037501475E+01 
    1.4728252535584115E+01 
    1.0243996199817945E+01 
    3.3939241333127210E+00 
    1.2830273301840695E+01 
    1.6726043189229255E+01 
    9.8891030295596956E+00 
    1.1877379549598784E+01 
    9.4034895607791711E+00 
    1.6327210128021196E+01 
    1.4806741357964832E+01 
    1.4544653647923543E+01 
    1.0265095823848718E+01 
    4.5533972682572061E+00 
    9.3611379492949727E+00 
    9.4284237425280111E+00 
    9.4696684259723654E+00 
    3.6947446829749868E+00 