# vtk DataFile Version 2.0
Pressure Field Data 
ASCII 
DATASET UNSTRUCTURED_GRID 

POINTS 2860 double 

    0.0000000000000000E+00     0.0000000000000000E+00     0.0000000000000000E+00 
    1.0000000000000000E+00     0.0000000000000000E+00     0.0000000000000000E+00 
    1.0000000000000000E+00     1.0000000000000000E+00     0.0000000000000000E+00 
    0.0000000000000000E+00     1.0000000000000000E+00     0.0000000000000000E+00 
    2.5000000000000000E-01     2.5000000000000000E-01     0.0000000000000000E+00 
    7.5000000000000000E-01     2.5000000000000000E-01     0.0000000000000000E+00 
    7.5000000000000000E-01     7.5000000000000000E-01     0.0000000000000000E+00 
    2.5000000000000000E-01     7.5000000000000000E-01     0.0000000000000000E+00 
    3.1249999999942091E-02     0.0000000000000000E+00     0.0000000000000000E+00 
    6.2499999999873469E-02     0.0000000000000000E+00     0.0000000000000000E+00 
    9.3749999999826514E-02     0.0000000000000000E+00     0.0000000000000000E+00 
    1.2499999999977961E-01     0.0000000000000000E+00     0.0000000000000000E+00 
    1.5624999999968961E-01     0.0000000000000000E+00     0.0000000000000000E+00 
    1.8749999999959971E-01     0.0000000000000000E+00     0.0000000000000000E+00 
    2.1874999999950970E-01     0.0000000000000000E+00     0.0000000000000000E+00 
    2.4999999999941969E-01     0.0000000000000000E+00     0.0000000000000000E+00 
    2.8124999999932920E-01     0.0000000000000000E+00     0.0000000000000000E+00 
    3.1249999999923850E-01     0.0000000000000000E+00     0.0000000000000000E+00 
    3.4374999999914790E-01     0.0000000000000000E+00     0.0000000000000000E+00 
    3.7499999999905720E-01     0.0000000000000000E+00     0.0000000000000000E+00 
    4.0624999999896660E-01     0.0000000000000000E+00     0.0000000000000000E+00 
    4.3749999999887590E-01     0.0000000000000000E+00     0.0000000000000000E+00 
    4.6874999999878530E-01     0.0000000000000000E+00     0.0000000000000000E+00 
    4.9999999999869471E-01     0.0000000000000000E+00     0.0000000000000000E+00 
    5.3124999999877620E-01     0.0000000000000000E+00     0.0000000000000000E+00 
    5.6249999999885780E-01     0.0000000000000000E+00     0.0000000000000000E+00 
    5.9374999999893940E-01     0.0000000000000000E+00     0.0000000000000000E+00 
    6.2499999999902101E-01     0.0000000000000000E+00     0.0000000000000000E+00 
    6.5624999999910261E-01     0.0000000000000000E+00     0.0000000000000000E+00 
    6.8749999999918421E-01     0.0000000000000000E+00     0.0000000000000000E+00 
    7.1874999999926570E-01     0.0000000000000000E+00     0.0000000000000000E+00 
    7.4999999999934730E-01     0.0000000000000000E+00     0.0000000000000000E+00 
    7.8124999999942890E-01     0.0000000000000000E+00     0.0000000000000000E+00 
    8.1249999999951039E-01     0.0000000000000000E+00     0.0000000000000000E+00 
    8.4374999999959199E-01     0.0000000000000000E+00     0.0000000000000000E+00 
    8.7499999999967359E-01     0.0000000000000000E+00     0.0000000000000000E+00 
    9.0624999999975520E-01     0.0000000000000000E+00     0.0000000000000000E+00 
    9.3749999999983680E-01     0.0000000000000000E+00     0.0000000000000000E+00 
    9.6874999999991840E-01     0.0000000000000000E+00     0.0000000000000000E+00 
    1.0000000000000000E+00     3.1249999999942091E-02     0.0000000000000000E+00 
    1.0000000000000000E+00     6.2499999999873469E-02     0.0000000000000000E+00 
    1.0000000000000000E+00     9.3749999999826514E-02     0.0000000000000000E+00 
    1.0000000000000000E+00     1.2499999999977961E-01     0.0000000000000000E+00 
    1.0000000000000000E+00     1.5624999999968961E-01     0.0000000000000000E+00 
    1.0000000000000000E+00     1.8749999999959971E-01     0.0000000000000000E+00 
    1.0000000000000000E+00     2.1874999999950970E-01     0.0000000000000000E+00 
    1.0000000000000000E+00     2.4999999999941969E-01     0.0000000000000000E+00 
    1.0000000000000000E+00     2.8124999999932920E-01     0.0000000000000000E+00 
    1.0000000000000000E+00     3.1249999999923850E-01     0.0000000000000000E+00 
    1.0000000000000000E+00     3.4374999999914790E-01     0.0000000000000000E+00 
    1.0000000000000000E+00     3.7499999999905720E-01     0.0000000000000000E+00 
    1.0000000000000000E+00     4.0624999999896660E-01     0.0000000000000000E+00 
    1.0000000000000000E+00     4.3749999999887590E-01     0.0000000000000000E+00 
    1.0000000000000000E+00     4.6874999999878530E-01     0.0000000000000000E+00 
    1.0000000000000000E+00     4.9999999999869471E-01     0.0000000000000000E+00 
    1.0000000000000000E+00     5.3124999999877620E-01     0.0000000000000000E+00 
    1.0000000000000000E+00     5.6249999999885780E-01     0.0000000000000000E+00 
    1.0000000000000000E+00     5.9374999999893940E-01     0.0000000000000000E+00 
    1.0000000000000000E+00     6.2499999999902101E-01     0.0000000000000000E+00 
    1.0000000000000000E+00     6.5624999999910261E-01     0.0000000000000000E+00 
    1.0000000000000000E+00     6.8749999999918421E-01     0.0000000000000000E+00 
    1.0000000000000000E+00     7.1874999999926570E-01     0.0000000000000000E+00 
    1.0000000000000000E+00     7.4999999999934730E-01     0.0000000000000000E+00 
    1.0000000000000000E+00     7.8124999999942890E-01     0.0000000000000000E+00 
    1.0000000000000000E+00     8.1249999999951039E-01     0.0000000000000000E+00 
    1.0000000000000000E+00     8.4374999999959199E-01     0.0000000000000000E+00 
    1.0000000000000000E+00     8.7499999999967359E-01     0.0000000000000000E+00 
    1.0000000000000000E+00     9.0624999999975520E-01     0.0000000000000000E+00 
    1.0000000000000000E+00     9.3749999999983680E-01     0.0000000000000000E+00 
    1.0000000000000000E+00     9.6874999999991840E-01     0.0000000000000000E+00 
    9.6875000000003686E-01     1.0000000000000000E+00     0.0000000000000000E+00 
    9.3750000000011691E-01     1.0000000000000000E+00     0.0000000000000000E+00 
    9.0625000000015765E-01     1.0000000000000000E+00     0.0000000000000000E+00 
    8.7500000000017863E-01     1.0000000000000000E+00     0.0000000000000000E+00 
    8.4375000000028044E-01     1.0000000000000000E+00     0.0000000000000000E+00 
    8.1250000000040856E-01     1.0000000000000000E+00     0.0000000000000000E+00 
    7.8125000000054956E-01     1.0000000000000000E+00     0.0000000000000000E+00 
    7.5000000000066480E-01     1.0000000000000000E+00     0.0000000000000000E+00 
    7.1875000000086831E-01     1.0000000000000000E+00     0.0000000000000000E+00 
    6.8750000000102829E-01     1.0000000000000000E+00     0.0000000000000000E+00 
    6.5625000000114431E-01     1.0000000000000000E+00     0.0000000000000000E+00 
    6.2500000000129829E-01     1.0000000000000000E+00     0.0000000000000000E+00 
    5.9375000000147926E-01     1.0000000000000000E+00     0.0000000000000000E+00 
    5.6250000000168354E-01     1.0000000000000000E+00     0.0000000000000000E+00 
    5.3125000000188671E-01     1.0000000000000000E+00     0.0000000000000000E+00 
    5.0000000000205835E-01     1.0000000000000000E+00     0.0000000000000000E+00 
    4.6875000000192979E-01     1.0000000000000000E+00     0.0000000000000000E+00 
    4.3750000000180111E-01     1.0000000000000000E+00     0.0000000000000000E+00 
    4.0625000000167238E-01     1.0000000000000000E+00     0.0000000000000000E+00 
    3.7500000000154382E-01     1.0000000000000000E+00     0.0000000000000000E+00 
    3.4375000000141509E-01     1.0000000000000000E+00     0.0000000000000000E+00 
    3.1250000000128642E-01     1.0000000000000000E+00     0.0000000000000000E+00 
    2.8125000000115769E-01     1.0000000000000000E+00     0.0000000000000000E+00 
    2.5000000000102918E-01     1.0000000000000000E+00     0.0000000000000000E+00 
    2.1875000000090050E-01     1.0000000000000000E+00     0.0000000000000000E+00 
    1.8750000000077180E-01     1.0000000000000000E+00     0.0000000000000000E+00 
    1.5625000000064329E-01     1.0000000000000000E+00     0.0000000000000000E+00 
    1.2500000000051459E-01     1.0000000000000000E+00     0.0000000000000000E+00 
    9.3750000000385914E-02     1.0000000000000000E+00     0.0000000000000000E+00 
    6.2500000000257239E-02     1.0000000000000000E+00     0.0000000000000000E+00 
    3.1250000000128557E-02     1.0000000000000000E+00     0.0000000000000000E+00 
    0.0000000000000000E+00     9.6875000000003686E-01     0.0000000000000000E+00 
    0.0000000000000000E+00     9.3750000000011691E-01     0.0000000000000000E+00 
    0.0000000000000000E+00     9.0625000000015765E-01     0.0000000000000000E+00 
    0.0000000000000000E+00     8.7500000000017863E-01     0.0000000000000000E+00 
    0.0000000000000000E+00     8.4375000000028044E-01     0.0000000000000000E+00 
    0.0000000000000000E+00     8.1250000000040856E-01     0.0000000000000000E+00 
    0.0000000000000000E+00     7.8125000000054956E-01     0.0000000000000000E+00 
    0.0000000000000000E+00     7.5000000000066480E-01     0.0000000000000000E+00 
    0.0000000000000000E+00     7.1875000000086831E-01     0.0000000000000000E+00 
    0.0000000000000000E+00     6.8750000000102829E-01     0.0000000000000000E+00 
    0.0000000000000000E+00     6.5625000000114431E-01     0.0000000000000000E+00 
    0.0000000000000000E+00     6.2500000000129829E-01     0.0000000000000000E+00 
    0.0000000000000000E+00     5.9375000000147926E-01     0.0000000000000000E+00 
    0.0000000000000000E+00     5.6250000000168354E-01     0.0000000000000000E+00 
    0.0000000000000000E+00     5.3125000000188671E-01     0.0000000000000000E+00 
    0.0000000000000000E+00     5.0000000000205835E-01     0.0000000000000000E+00 
    0.0000000000000000E+00     4.6875000000192979E-01     0.0000000000000000E+00 
    0.0000000000000000E+00     4.3750000000180111E-01     0.0000000000000000E+00 
    0.0000000000000000E+00     4.0625000000167238E-01     0.0000000000000000E+00 
[...]
CELL_DATA 2795 
SCALARS Pressure double 1 
LOOKUP_TABLE default 

    8.0940095305473303E+00 
    1.8306516425269830E+01 
    1.2758981287993981E+01 
    1.2450474811982291E+01 
    9.9356679184883649E+00 
    1.8124446261152713E+01 
    1.9019170133324174E+01 
    7.2314227254190238E+00 
    1.3314975071399651E+01 
    1.0294600053188315E+01 
    8.7956752035117702E+00 
    1.7802189693693375E+01 
    1.8204418240684195E+01 
    1.8085145336955510E+01 
    1.1789356657966445E+01 
    7.1096597345231007E+00 
    1.1478414124699407E+01 
    9.3594542208510063E+00 
    1.7320609474403650E+01 
    1.2738906060659849E+01 
    1.2633587438505435E+01 
    1.8000925228814420E+01 
    1.2120992446272355E+01 
    4.7816045115666461E-01 
    1.7740783920835199E+01 
    1.8157899531341723E+01 
    1.9056484706547192E+01 
    8.4758831796366554E+00 
    1.7699285123035001E+01 
    1.9045482359451196E+01 
    1.2957314341316163E+01 
    1.2944880592170518E+01 
    9.1798446817388832E+00 
    1.2721646290480702E+01 
    4.1911919025257633E+00 
    1.1482795295614999E+01 
    1.2706396168658083E+01 
    1.9091582401287994E+01 
    1.8991402913369846E+01 
    1.7818015225725329E+01 
    9.8720318457493370E+00 
    1.7793930288070932E+01 
    9.9223914704715566E-01 
    1.2732666592011832E+01 
    1.8789821652725220E+01 
    1.8488061291899900E+01 
    1.7788908111544114E+01 
    1.3717541135531029E+01 
    1.7835889125118467E+01 
    1.1745824988202786E+01 
    1.1188954447370890E+01 
    1.2908112547760146E+01 
    1.2619441899743455E+01 
    1.1555233094039442E+01 
    1.3036706262295660E+01 
    1.7038928169523821E+01 
    1.4902505145249068E+01 
    9.9881836966890525E+00 
    1.8009505327400305E+01 
    1.7905880221983910E+01 
    1.2412333520711702E+01 
    1.2284395292370753E+01 
    1.2331768108274009E+01 
    1.8928929481846087E+01 
    1.9248427094259586E+01 
    1.1496963108881792E+01 
    1.2906438710256745E+01 
    1.7491642288311429E+01 
    1.4734308007370185E+01 
    1.2349108303636125E+01 
    1.9241278206628500E+01 
    1.7956554754192386E+01 
    1.1332578774334479E+01 
    1.8618605366011227E+01 
    1.3308636747616861E+01 
    1.7576960261994117E+01 
    1.9106417022225752E+01 
    1.3392019806485276E+01 
    8.2003449015661918E+00 
    1.2925304429508991E+01 
    1.9002380396028528E+01 
    1.9273414296850905E+01 
    1.1508737526254992E+01 
    1.2850655232974630E+01 
    1.9330141190080742E+01 
    1.2704583648098239E+01 
    1.2228151240807710E+01 
    1.5307417346329133E+01 
    7.8699540786283579E+00 
    1.1220642721854233E+01 
    1.2847577388739269E+01 
    1.3473165680241847E+01 
    2.0976831953508022E+01 
    9.6586580371790038E+00 
    1.2914581629404980E+01 
    1.7761586603401621E+01 
    1.8138946197895407E+01 
    8.5132517580867546E+00 
    1.2559692251014905E+01 
    1.2882033443758850E+01 
    1.8168469254211978E+01 
    1.2871611988681861E+01 
    1.8070639834353706E+01 
    5.1681163534085774E+00 
    8.5433625791480061E+00 
    1.3140845980829189E+01 
    1.8315184779323864E+01 
    1.1439906916147654E+01 
    1.2137466288549152E+01 
    1.2847960123263144E+01 
    1.2185780908762563E+01 
    1.4483358017473993E+01 
    1.1818918505561207E+01 
    1.1342298603637046E+01 
    8.8981482258894857E+00 
    1.5348353964842227E+01 
    1.2950033277705097E+01 
    1.8824232342779840E+01 
    1.1156213473733949E+01 
    1.2426111933037737E+01 
    1.7953123641734408E+01 
    1.0420058910048580E+01 
    1.8504829128228359E+01 
    1.2778391001096901E+01 
    1.2342631258723253E+01 
    1.8143835761292145E+01 
    1.2938122652876807E+01 
    1.9122299118859345E+01 
    1.5362217815504348E+01 
    1.6802353602602441E+01 
    1.9076342127848928E+01 
    9.6768881445134589E+00 
    1.3161883459149470E+01 
    1.8142703343890833E+01 
    3.8568922367747729E+00 
    1.3011861524349937E+01 
    1.9036142459616929E+01 
    1.2375473076241640E+01 
    1.4241132028118095E+01 
    8.4048262475960094E+00 
    1.7758027409327397E+01 
    2.1509342384961620E+01 
    1.6010964459459345E+01 
    1.2377086850135449E+01 
    1.1089532782376025E+01 
    1.3779703286467235E+01 
    1.2795685331183867E+01 
    8.8979544708680134E+00 
    1.9072249007572069E+01 
    1.8146071556354237E+01 
    1.7763713898141187E+01 
    1.3470723266593060E+01 
    1.1302082314176625E+01 
    1.2629368638428527E+01 
    1.8661846376694410E+01 
    1.1616678452853803E+01 
    1.2929237096778548E+01 
    1.1822059584514024E+01 
    1.5037447394328236E+01 
    2.1496501694190385E+01 
    1.7752481774703732E+01 
    1.1275462255123545E+01 
    1.8383085472746000E+01 
    1.8266671338046972E+01 
    1.8362591637036761E+01 
    1.9560814427564718E+01 
    2.0177817277450281E+01 
    1.8469821311170474E+01 
    1.2897836137484441E+01 
    1.4007644800202632E+01 
    1.8269425661588173E+01 
    1.8834370883722482E+01 
    9.2938693937213053E+00 
    1.7787654060825172E+01 
    1.8615596903524146E+01 
    9.0414723760279152E+00 
    1.9474846191214873E+01 
    1.9442001003553912E+01 
    1.7405794318705809E+01 
    1.3236950093504488E+01 
    3.4215115744621989E+00 
    1.9038161529399332E+01 
    1.3076748011166702E+01 
    1.9181384975732044E+01 
    1.2289533902873972E+01 
    1.8808730943411788E+01 
    1.2331568229439671E+00 
    1.6753316907811765E+01 
    1.2336144770097551E+01 
    1.1244210137090510E+01 
    1.0957596393269903E+01 
    1.2745498866527711E+01 
    1.4029915561693050E+01 
    1.3462356452457206E+01 
    9.0037625626344404E+00 
    1.8830232420754143E+01 
    1.8169997327770361E+01 
    1.4875987251707084E+01 
    1.3131414724761244E+01 
    1.9576952511057053E+00 
    1.0119939387353226E+01 
    7.0353082963415368E+00 
    1.9057203566400400E+01 
    1.4327461610678817E+01 
    1.8169378837080714E+01 
    1.8251984004420422E+01 
    1.1709450213757275E+01 
    1.4953633959979392E+01 
    1.7754673184624309E+01 
    1.9423169498664183E+01 
    8.3981680881393661E+00 
    1.6048345194029636E+01 
    1.3412673526678862E+01 
    7.4870781877646380E+00 
    1.1702928378184019E+01 
    1.5629344033505632E+01 
    1.8204607246904068E+01 
    1.2797557633900292E+01 
    1.8337135416118262E+01 
    1.8054202393957084E+01 
    1.7990822737651410E+01 
    1.2633568186983656E+01 
    1.1148929141344430E+01 
    1.7773309880086732E+01 
    1.1326197082736622E+01 
    1.2880560974672159E+01 
    1.1103831918968270E+01 
    1.2882674994283745E+01 
    1.8264053428311183E+01 
    8.0515665641618810E+00 
    1.1587724998194039E+01 
    1.8958019969127776E+01 
    1.2641571534816833E+01 
    1.4209330892649387E+01 
    8.2638697081007120E+00 
    1.1405749661812230E+01 
    1.8027219448659864E+01 
    1.8403954404574804E+01 
    6.7281925104227049E+00 
    1.2655404377190976E+01 
    1.1182862660496189E+01 
    1.9914068880698796E+01 
    1.9284415652433257E+01 
    2.0211216732030707E+01 
    1.2675825184099809E+01 
    1.8229858008619289E+01 
    1.7688876308060248E+01 
    1.2524354142138002E+01 
    1.7763989538854560E+01 
    1.3131994216445847E+01 
    7.5623399056642722E+00 
    1.3077942504061745E+01 
    1.8939242023447736E+01 
    1.7759833445582103E+01 
    8.7619438353022581E+00 
    1.7797077477969133E+01 
    1.4063055994338278E+01 
    1.2987607296441778E+01 
    1.2461689225265848E+01 
    1.7583580299155528E+01 
    1.3594463136543249E+01 
    1.7780018034308195E+01 
    1.2657983696978169E+01 
    7.7864166613319092E+00 
    1.2960162249549738E+01 
    1.0970652484352271E+01 
    1.6096412577176132E+01 
    1.9179905013030396E+01 
    1.7770840660758061E+01 
    1.9028778975778280E+01 
    1.2579433093720366E+01 
    8.5319921004964989E+00 
    8.6482286781726145E+00 
    1.3205799673035692E+01 
    1.2851227253278687E+01 
    1.9079461432900719E+00 
    1.7067215328944318E+01 
    1.9602942627917120E+01 
    1.2308505126248658E+01 
    7.9106229383110573E+00 
    1.4899984479310774E+01 
    1.7793719246827202E+01 
    9.3650242985094927E+00 
    6.3714992118200762E+00 
    1.2835775180423264E+01 
    1.7882044165195676E+01 
    1.8717977565563668E+01 
    1.8532491447775417E+01 
    1.8406625494046871E+01 
    9.1325227848522452E+00 
    1.2982165018090184E+01 
    1.7207617001675043E+01 
    1.0105735148617011E+01 
    1.8187839957764837E+01 
    1.5222859935119514E+01 
    8.7682537005554160E+00 
    1.7896067693149167E+01 
    1.9073056289247482E+01 
    1.7940552697489657E+01 
    9.0202475746217345E+00 
    1.2902362898885576E+01 
    9.9046312888668115E+00 
    1.2193884661187477E+01 
    1.7784340766498431E+01 
    1.7769586125365720E+01 
    9.0710059412530608E+00 
    1.8867551797355997E+01 
    1.3520298448821459E+01 
    1.7806124778554409E+01 
    1.8853476564661268E+01 
    1.7792695275568924E+01 
    1.6313325980518155E+01 
    1.9982492590662677E+01 
    1.2245460379455089E+01 
    1.8991309019774679E+01 
    1.7838301949446112E+01 
    1.9079511379500151E+01 
    1.8862146331213307E+01 
    1.2369482814511144E+01 
    1.2747450472501001E+01 
    1.2297362184156462E+01 
    1.5582304927478290E+01 
    5.1916869365797185E+00 
    1.3130109729529641E+01 
    2.0121903443918701E+01 
    1.3137393615017174E+01 
    1.3366546047150262E+01 
    1.9047339591236419E+01 
    1.9316424817829450E+01 
    1.2135372857246809E+01 
    1.7802237946772621E+01 
    1.7765083672237015E+01 
    1.3351064810813400E+01 
    1.8808541875720081E+01 
    9.2202410159578534E+00 
    5.8776506579941810E+00 
    1.3699783631994359E+01 
    1.3151387619183888E+01 
    1.7768203345863945E+01 
    8.4869851521596420E+00 
    1.8441451187776345E+01 
    6.0106217633865695E+00 
    1.3083326775657468E+01 
    1.2385546235846434E+01 
    1.2878488841195963E+01 
    2.1550190877315057E+01 
    5.0335343762335887E+00 
    1.3032239582963724E+01 
    1.5630465438027022E+01 
    1.2463483421147279E+01 
    9.9470982842758300E+00 
    1.8612670943318353E+01 
    2.1072760971245753E+01 
    1.8773404861580509E+01 
    1.2959686718510147E+01 
    7.4526041540075880E+00 
    2.0909795792401084E+01 
    1.8159162853189933E+01 
    9.4143699898073301E+00 
    1.2556835558970578E+01 
    1.9540704168309510E+01 
    4.2837922460132880E+00 
    1.3215115599765349E+01 
    1.8774388280365752E+01 
    1.2894508441369933E+01 
    1.1259783597266761E+01 
    1.3079462172545808E+01 
    1.7295668320542632E+01 
    1.2876355863321502E+01 
    6.6403806292524932E+00 
    1.2191115420123373E+00 
    9.6626779007745398E+00 
    1.9804762843244863E+01 
    1.2296595657705096E+01 
    1.4546122205082025E+01 
    1.3953205998131642E+01 
    1.5956346934679146E+01 
    1.2908438247104716E+01 
    1.8045924428268062E+01 
    2.1565414950949737E+01 
    1.5230564315179587E+01 
    1.8957775569754176E+01 
    7.1396983044564433E-01 
    1.7771744754246843E+01 
    7.3090758307087258E+00 
    2.0309402991942960E+01 
    1.3048407764430522E+01 
    1.1496075650333296E+01 
    1.0100189586555420E+01 
    6.9718311728451257E+00 
    1.4268250351896908E+01 
    1.0246375133922577E+01 
    1.5957847616768174E+01 
    2.9138570158968489E+00 
    1.4109507094899833E+01 
    1.7676572816201290E+01 
    7.8365639963043794E+00 
    1.8302791057084789E+01 
    2.0075548635156665E+01 
    1.8143193334486224E+01 
    1.2884920389519863E+01 
    1.2872068284660655E+01 
    1.3039807363427661E+01 
    7.5510412914378433E+00 
    1.1961483584901000E+01 
    1.1764506921082329E+01 
    1.3026725802263027E+01 
    1.2210661587886490E+01 
    9.1248063250437395E-01 
    8.3301999362417085E+00 
    1.2692677750363730E+01 
    1.2996340183970981E+01 
    1.6432429685895098E+01 
    2.8096991340094011E+00 
    1.3301408020315657E+01 
    1.3160043489144696E+01 
    4.8480374337871472E+00 
    1.7979013826022914E+01 
    1.1348347813698780E+01 
    1.3010973293406868E+01 
    1.8157260853612517E+01 
    6.9973654491550592E+00 
    1.8104293867014508E+01 
    1.1499021134067927E+01 
    1.2762388629916286E+00 
    1.2373596845366276E+01 
    1.8895680612113395E+01 
    1.7772232068431464E+01 
    1.7794866374714893E+01 
    1.3446903929128817E+01 
    1.3086317357773948E+01 
    1.1323890699728800E+01 
    9.0309169050776905E+00 
    1.8296648610717483E+01 
    1.2550227788839827E+01 
    8.7603546423017420E+00 
    1.7789501665456857E+01 
    1.8619101400169971E+01 
    1.3234425012844930E+01 
    1.2691884650875931E+01 
    2.1434078539824228E+01 
    1.3352260288232488E+01 
    1.8312723929355588E+01 
    1.0769600135123611E+01 
    2.1594609492588681E+01 
    8.5957644236335291E+00 
    1.1820452537608647E+01 
    9.6355853959857978E+00 
    1.3639074597769781E+01 
    1.1024621109145357E+01 
    2.1577247473210370E+01 
    1.3411764552184243E+01 
    1.7259527954508176E+01 
    8.8435421282313822E+00 
    1.2902735115541436E+01 
    1.8116707686170358E+01 
    1.1078431964249971E+01 
    9.4104063648306919E+00 
    1.4531371838903940E+01 
    1.8372597093567610E+01 
    9.4672889147625980E+00 
    1.2412061587001716E+01 
    1.2730788290107613E+01 
    1.7740898818348175E+01 
    1.2489394309387301E+01 
    1.8359336117776159E+01 
    1.9113879169295853E+01 
    1.1357957246061799E+01 
    1.1135667966764471E+01 
    1.0252877180085584E+01 
    1.7914799443594628E+01 
    1.3182484525539854E+01 
    2.1114805673646245E+01 
    1.6448751745064037E+01 
    1.8066796276950065E+01 
    2.0770027505060952E+01 
    2.0082035372584158E+01 
    1.2951084135419288E+01 
    1.3008436584508166E+01 
    1.7418228903131794E+01 
    1.7819723946962309E+01 
    1.8509728668812816E+01 
    1.8185466675472181E+01 
    2.1459718563075551E+01 
    1.3351660453788941E+01 
    1.1487810780179368E+01 
    1.3323581642971853E+01 
    1.9009465504097186E+01 
    1.3049439570228420E+01 
    7.6961670244593963E+00 
    1.2865368869710782E+01 
    1.9506294832981784E+01 
    1.3203041495885818E+01 
    1.1501472636838981E+01 
    1.2669938750165141E+01 
    1.9634165209913395E+01 
    1.7869092802705197E+01 
    1.0965493226685263E+01 
    1.9790768698375857E+01 
    1.2980478183817457E+01 
    1.8486887326644169E+01 
    1.9648570397428809E+01 
    1.3756368277077982E+01 
    7.0067378204720390E+00 
    1.4311313895934040E+01 
    7.2421723991372993E+00 
    1.3101166541545995E+01 
    1.2899142997413460E+01 
    1.5103766338770765E+01 
    7.6569881207353108E+00 
    1.6087603884758579E+01 
    1.2915968246078764E+01 
    1.8172682981675528E+01 
    1.3910092231602306E+01 
    1.0622926810443230E+01 
    1.2518587924921549E+01 
    1.3631317207428451E+01 
    1.3479917363723812E+01 
    1.9174512306713034E+01 
    1.0978506688389894E+01 
    1.0789796914525430E+01 
    8.0486021311844933E+00 
    1.8540081218938099E+01 
    1.2569092221695209E+01 
    1.7589305636774192E+01 
    1.2867119629010512E+01 
    8.8093032118611045E+00 
    1.7900516719390335E+01 
    1.2843407228052227E+01 
    9.6173372863209678E+00 
    1.0182468506461637E+01 
    1.0534553695902696E+01 
    1.8212111709609776E+01 
    1.3029111612514761E+01 
    1.8972348347265918E+01 
    1.2803262822842919E+01 
    1.2741156774455481E+01 
    1.2314134927633205E+01 
    1.8008894469000396E+01 
    1.2652037228272141E+01 
    1.0585508638933876E+01 
    2.0070455023411359E+01 
    1.8112179392935918E+01 
    9.0069175666754226E+00 
    3.5438398987892725E+00 
    1.3016721366774942E+01 
    1.2163067698694858E+01 
    1.1123412961582686E+01 
    1.2071678473830003E+01 
    1.8028444425669608E+01 
    1.2662514812250929E+01 
    1.1549329058200664E+01 
    1.7847490913618394E+01 
    8.9259590456056035E+00 
    1.7375861818667499E+01 
    1.1734518371004754E+01 
    1.0535812792694811E+01 
    1.1230583965643783E+01 
    1.8589320600778432E+01 
    1.2881042836391217E+01 
    1.2889849392543185E+01 
    7.7690360549710178E+00 
    8.3984629752493198E+00 
    1.6320867749866345E+01 
    1.2900085921193494E+01 
    1.3064260237401083E+01 
    1.9776972291573973E+01 
    1.0790665540955168E+01 
    1.2912795201320391E+01 
    9.2323530128641735E+00 
    9.5269744943659784E+00 
    1.7978853893114284E+01 
    1.2517562279339240E+01 
    9.2590291353843295E+00 
    1.3474293597311801E+01 
    1.2802424851458776E+01 
    1.7992216436170590E+01 
    1.9882707075423955E+01 
    1.3429052316222352E+00 
    1.3022585216091910E+01 
    1.3150123804388553E+01 
    1.8086481770458487E+01 
    1.2459910253530774E+01 
    1.2852240141522286E+01 
    1.9242969620507878E+01 
    1.1275928003512757E+01 
    9.3419909531665333E+00 
    1.5413839868317591E+01 
    1.7789364195293587E+01 
    1.9076358920007518E+01 
    1.9392002209222682E+01 
    1.2833585405753247E+01 
    1.3012209900026789E+01 
    1.4331376571665210E+01 
    8.5668774711859026E+00 
    1.7952839677726498E+01 
    1.0064133538718742E+01 
    8.9129651392151690E+00 
    1.6032143100703760E+01 
    1.5043200489141357E+01 
    8.7443677946459282E+00 
    1.7833630169509661E+01 
    1.9060324651474151E+01 
    1.3371209572498795E+01 
    1.9999546040984789E+01 
    1.7875299929837706E+01 
    1.2525548855613264E+01 
    1.8730309646724066E+01 
    9.5263869701043777E+00 
    1.7812136204470942E+01 
    1.3021210877413276E+01 
    1.2976354038337718E+01 
    1.9975241538060001E+01 
    1.2613962711900882E+01 
    1.5682638519536694E+01 
    1.1208438936645557E+01 
    1.9201515437383460E+01 
    1.7688879023936828E+01 
    1.1692633049911047E+01 
    1.7758151026611490E+01 
    1.1780309394959991E+01 
    1.2859268419292224E+01 
    1.9011374662031184E+01 
    1.8182999236016048E+01 
    1.9063884706510038E+01 
    1.8090511744736524E+01 
    1.1967546898895502E+01 
    1.2227058349704331E+01 
    1.9072795364751585E+01 
    1.2381828407814494E+01 
    1.7566032144589947E+01 
    1.2595228078614886E+01 
    5.2294509724860490E+00 
    8.9966428128980063E+00 
    8.3320119512467414E+00 
    1.9015948849945577E+01 
    1.9891645617820288E+01 
    1.7781157104360407E+01 
    1.4748613583161037E+01 
    1.8136385823520804E+01 
    1.7844438733361009E+01 
    1.8581831348351166E+01 
    7.5023902593786271E+00 
    4.8650539778908763E+00 
    1.4473041570511954E+01 
    1.2646756082577756E+01 
    1.8033681149973130E+01 
    1.8030609117759525E+01 
    1.3170899463766364E+01 
    1.8077575240677955E+01 
    1.3005385091657747E+01 
    1.2912886053630704E+01 
    6.7762067010744786E+00 
    4.8481326351227789E+00 
    1.9628965115506851E+01 
    1.0113416146785397E+01 
    1.1615090063935073E+01 
    1.3061929787168273E+01 
    2.1437580449303443E+01 
    1.3160750682761352E+01 
    1.3381268132842182E+01 
    5.5344150369581193E+00 
    1.3160553523080537E+01 
    1.3175877958744595E+01 
    1.8353762595977596E+01 
    1.1239067343770282E+01 
    1.2377535227749615E+01 
    1.9825158184930295E+01 
    1.3032537242327448E+01 
    1.7800952721702558E+01 
    1.8069391471453415E+01 
    1.5756470947881798E+01 
    1.0996312949235048E+01 
    1.8089863861268125E+01 
    1.2795366519629901E+01 
    1.7993970452638113E+01 
    1.7722838134353101E+01 
    1.9039173370100166E+01 
    1.8087791282259783E+01 
    1.6753464026322899E+01 
    1.3018880725028636E+01 
    8.6682917822079784E+00 
    2.1300286855002390E+01 
    1.0269871294583405E+01 
    1.8948986256875980E+01 
    1.3015850124903290E+01 
    1.0857490691280034E+01 
    6.4716612274938230E+00 
    1.3215878294579497E+01 
    1.8073160206784252E+01 
    1.8066353133290242E+01 
    1.2838453538102089E+01 
    1.3009040399895454E+01 
    2.0059663917510072E+01 
    1.9325230578459447E+01 
    1.3182796109895337E+01 
    4.5241638272283842E+00 
    1.6569994730791130E+01 
    2.1573334086652249E+01 
    1.3022747951063470E+01 
    1.5230159670358109E+01 
    1.2459373181739664E+01 
    2.1142340947386003E+01 
    1.9421041226095294E+01 
    1.9121139304342083E+01 
    1.3207538325544052E+01 
    6.0350304340451419E+00 
    1.2409336048579357E+01 
    1.2487041525300342E+01 
    1.2532508134070399E+01 
    4.9417272202042311E+00 