# vtk DataFile Version 2.0
Pressure Field Data 
ASCII 
DATASET UNSTRUCTURED_GRID 

POINTS 2860 double 

    0.0000000000000000E+00     0.0000000000000000E+00     0.0000000000000000E+00 
    1.0000000000000000E+00     0.0000000000000000E+00     0.0000000000000000E+00 
    1.0000000000000000E+00     1.0000000000000000E+00     0.0000000000000000E+00 
    0.0000000000000000E+00     1.0000000000000000E+00     0.0000000000000000E+00 
    2.5000000000000000E-01     2.5000000000000000E-01     0.0000000000000000E+00 
    7.5000000000000000E-01     2.5000000000000000E-01     0.0000000000000000E+00 
    7.5000000000000000E-01     7.5000000000000000E-01     0.0000000000000000E+00 
    2.5000000000000000E-01     7.5000000000000000E-01     0.0000000000000000E+00 
    3.1249999999942091E-02     0.0000000000000000E+00     0.0000000000000000E+00 
    6.2499999999873469E-02     0.0000000000000000E+00     0.0000000000000000E+00 
    9.3749999999826514E-02     0.0000000000000000E+00     0.0000000000000000E+00 
    1.2499999999977961E-01     0.0000000000000000E+00     0.0000000000000000E+00 
    1.5624999999968961E-01     0.0000000000000000E+00     0.0000000000000000E+00 
    1.8749999999959971E-01     0.0000000000000000E+00     0.0000000000000000E+00 
    2.1874999999950970E-01     0.0000000000000000E+00     0.0000000000000000E+00 
    2.4999999999941969E-01     0.0000000000000000E+00     0.0000000000000000E+00 
    2.8124999999932920E-01     0.0000000000000000E+00     0.0000000000000000E+00 
    3.1249999999923850E-01     0.0000000000000000E+00     0.0000000000000000E+00 
    3.4374999999914790E-01     0.0000000000000000E+00     0.0000000000000000E+00 
    3.7499999999905720E-01     0.0000000000000000E+00     0.0000000000000000E+00 
    4.0624999999896660E-01     0.0000000000000000E+00     0.0000000000000000E+00 
    4.3749999999887590E-01     0.0000000000000000E+00     0.0000000000000000E+00 
    4.6874999999878530E-01     0.0000000000000000E+00     0.0000000000000000E+00 
    4.9999999999869471E-01     0.0000000000000000E+00     0.0000000000000000E+00 
    5.3124999999877620E-01     0.0000000000000000E+00     0.0000000000000000E+00 
    5.6249999999885780E-01     0.0000000000000000E+00     0.0000000000000000E+00 
    5.9374999999893940E-01     0.0000000000000000E+00     0.0000000000000000E+00 
    6.2499999999902101E-01     0.0000000000000000E+00     0.0000000000000000E+00 
    6.5624999999910261E-01     0.0000000000000000E+00     0.0000000000000000E+00 
    6.8749999999918421E-01     0.0000000000000000E+00     0.0000000000000000E+00 
    7.1874999999926570E-01     0.0000000000000000E+00     0.0000000000000000E+00 
    7.4999999999934730E-01     0.0000000000000000E+00     0.0000000000000000E+00 
    7.8124999999942890E-01     0.0000000000000000E+00     0.0000000000000000E+00 
    8.1249999999951039E-01     0.0000000000000000E+00     0.0000000000000000E+00 
    8.4374999999959199E-01     0.0000000000000000E+00     0.0000000000000000E+00 
    8.7499999999967359E-01     0.0000000000000000E+00     0.0000000000000000E+00 
    9.0624999999975520E-01     0.0000000000000000E+00     0.0000000000000000E+00 
    9.3749999999983680E-01     0.0000000000000000E+00     0.0000000000000000E+00 
    9.6874999999991840E-01     0.0000000000000000E+00     0.0000000000000000E+00 
    1.0000000000000000E+00     3.1249999999942091E-02     0.0000000000000000E+00 
    1.0000000000000000E+00     6.2499999999873469E-02     0.0000000000000000E+00 
    1.0000000000000000E+00     9.3749999999826514E-02     0.0000000000000000E+00 
    1.0000000000000000E+00     1.2499999999977961E-01     0.0000000000000000E+00 
    1.0000000000000000E+00     1.5624999999968961E-01     0.0000000000000000E+00 
    1.0000000000000000E+00     1.8749999999959971E-01     0.0000000000000000E+00 
    1.0000000000000000E+00     2.1874999999950970E-01     0.0000000000000000E+00 
    1.0000000000000000E+00     2.4999999999941969E-01     0.0000000000000000E+00 
    1.0000000000000000E+00     2.8124999999932920E-01     0.0000000000000000E+00 
    1.0000000000000000E+00     3.1249999999923850E-01     0.0000000000000000E+00 
    1.0000000000000000E+00     3.4374999999914790E-01     0.0000000000000000E+00 
    1.0000000000000000E+00     3.7499999999905720E-01     0.0000000000000000E+00 
    1.0000000000000000E+00     4.0624999999896660E-01     0.0000000000000000E+00 
    1.0000000000000000E+00     4.3749999999887590E-01     0.0000000000000000E+00 
    1.0000000000000000E+00     4.6874999999878530E-01     0.0000000000000000E+00 
    1.0000000000000000E+00     4.9999999999869471E-01     0.0000000000000000E+00 
    1.0000000000000000E+00     5.3124999999877620E-01     0.0000000000000000E+00 
    1.0000000000000000E+00     5.6249999999885780E-01     0.0000000000000000E+00 
    1.0000000000000000E+00     5.9374999999893940E-01     0.0000000000000000E+00 
    1.0000000000000000E+00     6.2499999999902101E-01     0.0000000000000000E+00 
    1.0000000000000000E+00     6.5624999999910261E-01     0.0000000000000000E+00 
    1.0000000000000000E+00     6.8749999999918421E-01     0.0000000000000000E+00 
    1.0000000000000000E+00     7.1874999999926570E-01     0.0000000000000000E+00 
    1.0000000000000000E+00     7.4999999999934730E-01     0.0000000000000000E+00 
    1.0000000000000000E+00     7.8124999999942890E-01     0.0000000000000000E+00 
    1.0000000000000000E+00     8.1249999999951039E-01     0.0000000000000000E+00 
    1.0000000000000000E+00     8.4374999999959199E-01     0.0000000000000000E+00 
    1.0000000000000000E+00     8.7499999999967359E-01     0.0000000000000000E+00 
    1.0000000000000000E+00     9.0624999999975520E-01     0.0000000000000000E+00 
    1.0000000000000000E+00     9.3749999999983680E-01     0.0000000000000000E+00 
    1.0000000000000000E+00     9.6874999999991840E-01     0.0000000000000000E+00 
    9.6875000000003686E-01     1.0000000000000000E+00     0.0000000000000000E+00 
    9.3750000000011691E-01     1.0000000000000000E+00     0.0000000000000000E+00 
    9.0625000000015765E-01     1.0000000000000000E+00     0.0000000000000000E+00 
    8.7500000000017863E-01     1.0000000000000000E+00     0.0000000000000000E+00 
    8.4375000000028044E-01     1.0000000000000000E+00     0.0000000000000000E+00 
    8.1250000000040856E-01     1.0000000000000000E+00     0.0000000000000000E+00 
    7.8125000000054956E-01     1.0000000000000000E+00     0.0000000000000000E+00 
    7.5000000000066480E-01     1.0000000000000000E+00     0.0000000000000000E+00 
    7.1875000000086831E-01     1.0000000000000000E+00     0.0000000000000000E+00 
    6.8750000000102829E-01     1.0000000000000000E+00     0.0000000000000000E+00 
    6.5625000000114431E-01     1.0000000000000000E+00     0.0000000000000000E+00 
    6.2500000000129829E-01     1.0000000000000000E+00     0.0000000000000000E+00 
    5.9375000000147926E-01     1.0000000000000000E+00     0.0000000000000000E+00 
    5.6250000000168354E-01     1.0000000000000000E+00     0.0000000000000000E+00 
    5.3125000000188671E-01     1.0000000000000000E+00     0.0000000000000000E+00 
    5.0000000000205835E-01     1.0000000000000000E+00     0.0000000000000000E+00 
    4.6875000000192979E-01     1.0000000000000000E+00     0.0000000000000000E+00 
    4.3750000000180111E-01     1.0000000000000000E+00     0.0000000000000000E+00 
    4.0625000000167238E-01     1.0000000000000000E+00     0.0000000000000000E+00 
    3.7500000000154382E-01     1.0000000000000000E+00     0.0000000000000000E+00 
    3.4375000000141509E-01     1.0000000000000000E+00     0.0000000000000000E+00 
    3.1250000000128642E-01     1.0000000000000000E+00     0.0000000000000000E+00 
    2.8125000000115769E-01     1.0000000000000000E+00     0.0000000000000000E+00 
    2.5000000000102918E-01     1.0000000000000000E+00     0.0000000000000000E+00 
    2.1875000000090050E-01     1.0000000000000000E+00     0.0000000000000000E+00 
    1.8750000000077180E-01     1.0000000000000000E+00     0.0000000000000000E+00 
    1.5625000000064329E-01     1.0000000000000000E+00     0.0000000000000000E+00 
    1.2500000000051459E-01     1.0000000000000000E+00     0.0000000000000000E+00 
    9.3750000000385914E-02     1.0000000000000000E+00     0.0000000000000000E+00 
    6.2500000000257239E-02     1.0000000000000000E+00     0.0000000000000000E+00 
    3.1250000000128557E-02     1.0000000000000000E+00     0.0000000000000000E+00 
    0.0000000000000000E+00     9.6875000000003686E-01     0.0000000000000000E+00 
    0.0000000000000000E+00     9.3750000000011691E-01     0.0000000000000000E+00 
    0.0000000000000000E+00     9.0625000000015765E-01     0.0000000000000000E+00 
    0.0000000000000000E+00     8.7500000000017863E-01     0.0000000000000000E+00 
    0.0000000000000000E+00     8.4375000000028044E-01     0.0000000000000000E+00 
    0.0000000000000000E+00     8.1250000000040856E-01     0.0000000000000000E+00 
    0.0000000000000000E+00     7.8125000000054956E-01     0.0000000000000000E+00 
    0.0000000000000000E+00     7.5000000000066480E-01     0.0000000000000000E+00 
    0.0000000000000000E+00     7.1875000000086831E-01     0.0000000000000000E+00 
    0.0000000000000000E+00     6.8750000000102829E-01     0.0000000000000000E+00 
    0.0000000000000000E+00     6.5625000000114431E-01     0.0000000000000000E+00 
    0.0000000000000000E+00     6.2500000000129829E-01     0.0000000000000000E+00 
    0.0000000000000000E+00     5.9375000000147926E-01     0.0000000000000000E+00 
    0.0000000000000000E+00     5.6250000000168354E-01     0.0000000000000000E+00 
    0.0000000000000000E+00     5.3125000000188671E-01     0.0000000000000000E+00 
    0.0000000000000000E+00     5.0000000000205835E-01     0.0000000000000000E+00 
    0.0000000000000000E+00     4.6875000000192979E-01     0.0000000000000000E+00 
    0.0000000000000000E+00     4.3750000000180111E-01     0.0000000000000000E+00 
    0.0000000000000000E+00     4.0625000000167238E-01     0.0000000000000000E+00 
[...]
CELL_DATA 2795 
SCALARS Pressure double 1 
LOOKUP_TABLE default 

    6.1344354764150122E+00 
    1.4067029015208938E+01 
    9.9111137694211671E+00 
    9.5175989369392848E+00 
    7.5521611721834239E+00 
    1.3938774659363910E+01 
    1.4652560795947936E+01 
    5.4765842254800754E+00 
    1.0475666923896778E+01 
    8.0105791354691043E+00 
    6.8308349343670560E+00 
    1.3686964849318334E+01 
    1.3975985279433184E+01 
    1.3908375797185638E+01 
    9.1488641688295047E+00 
    5.3853734439948688E+00 
    8.7482383522045222E+00 
    7.2752369457267347E+00 
    1.3331156015692086E+01 
    9.9001833980683056E+00 
    9.7950592175164921E+00 
    1.3844628352065483E+01 
    9.2541017965402208E+00 
    3.6014858204930378E-01 
    1.3685754255634960E+01 
    1.3946726835678833E+01 
    1.4683284353952397E+01 
    6.5662277999688152E+00 
    1.3608911069832722E+01 
    1.4678596054279419E+01 
    9.9560827716187514E+00 
    1.0118775436202313E+01 
    7.0968377214891945E+00 
    9.8735951921437390E+00 
    3.1771158128554604E+00 
    8.7536927743483641E+00 
    9.8626797303187317E+00 
    1.4717833909138001E+01 
    1.4630019010400520E+01 
    1.3699581320683967E+01 
    7.4896933370382319E+00 
    1.3658522823069211E+01 
    7.4963443685526310E-01 
    9.7626675810180945E+00 
    1.4450622979583320E+01 
    1.4282254406802533E+01 
    1.3676466219135174E+01 
    1.0824080321569616E+01 
    1.3747305630510887E+01 
    8.9518350446615589E+00 
    8.5239187152195051E+00 
    1.0083619731661422E+01 
    9.6523666357727311E+00 
    8.7991395487398290E+00 
    1.0024194166800422E+01 
    1.3125214706862758E+01 
    1.1807225716894884E+01 
    7.5932796905890214E+00 
    1.3848546696515724E+01 
    1.3772888197148859E+01 
    9.5085409423929175E+00 
    9.5327221055338196E+00 
    9.4211613403611629E+00 
    1.4582404462848437E+01 
    1.4834792355948826E+01 
    8.7582740250542841E+00 
    1.0082995311754710E+01 
    1.3582729581973755E+01 
    1.1615840382203295E+01 
    9.5767885614728741E+00 
    1.4839949329287855E+01 
    1.3792873765311279E+01 
    8.6340208555478348E+00 
    1.4381237125955625E+01 
    1.0253726539846518E+01 
    1.3537350330002464E+01 
    1.4728498875589647E+01 
    1.0287989625133218E+01 
    6.2761909249524308E+00 
    1.0102088552538282E+01 
    1.4638819866812669E+01 
    1.4870415323408658E+01 
    8.7699060299516827E+00 
    1.0018247533775513E+01 
    1.4913529201917306E+01 
    9.8652103590769897E+00 
    9.3389313570480397E+00 
    1.2026908668406559E+01 
    5.9779603740847786E+00 
    8.5465937982639630E+00 
    1.0017693059991808E+01 
    1.0627732338996831E+01 
    1.6367178833401024E+01 
    7.3377719098915692E+00 
    1.0091419518896140E+01 
    1.3654746837783330E+01 
    1.3928436014384268E+01 
    6.4559930792121571E+00 
    9.7368536958407770E+00 
    1.0047963595486300E+01 
    1.3948353321559537E+01 
    1.0048323656847312E+01 
    1.3881678357271024E+01 
    3.9235814402559539E+00 
    6.6413961476457839E+00 
    1.0328882619305599E+01 
    1.4075169043814093E+01 
    8.7184748432786492E+00 
    9.2916813839490171E+00 
    1.0032404969669306E+01 
    9.3056826253290499E+00 
    1.1398917406672656E+01 
    9.0357212054401241E+00 
    8.6425574586347871E+00 
    6.8112706605651514E+00 
    1.1776966983673182E+01 
    1.0119567079273748E+01 
    1.4495796274237790E+01 
    8.6923832004989183E+00 
    9.4995478387531644E+00 
    1.3781450034214226E+01 
    7.9108035691569052E+00 
    1.4222858614278591E+01 
    9.9417766007282680E+00 
    9.4296347418186510E+00 
    1.3930365782899694E+01 
    1.0115075921624715E+01 
    1.4738309707868426E+01 
    1.2039071724526703E+01 
    1.2975400231148901E+01 
    1.4699798728079925E+01 
    7.3527312434411147E+00 
    1.0353121770424975E+01 
    1.3931279484144650E+01 
    2.9411495194802328E+00 
    1.0003080964094854E+01 
    1.4666696410074136E+01 
    9.4584358145190333E+00 
    1.0938394298720590E+01 
    6.4194902892233836E+00 
    1.3652936302369429E+01 
    1.6856875690535201E+01 
    1.2502057062340835E+01 
    9.4572400957270748E+00 
    8.4475256490759492E+00 
    1.0668260172242992E+01 
    9.9586550995412964E+00 
    6.9030470649715703E+00 
    1.4695940702796353E+01 
    1.4012723771829371E+01 
    1.3656399865297402E+01 
    1.0626379084950026E+01 
    8.6055171352945141E+00 
    9.7934843435166670E+00 
    1.4408412906477102E+01 
    8.8555573472148748E+00 
    9.9234332759344479E+00 
    9.0187705008274062E+00 
    1.1521232511063904E+01 
    1.6845070275511020E+01 
    1.3648150621474453E+01 
    8.5648518371061133E+00 
    1.4119030310524904E+01 
    1.4035131392894518E+01 
    1.4113773573546727E+01 
    1.5110711080142631E+01 
    1.5648655934560388E+01 
    1.4280171905052521E+01 
    1.0074618643089110E+01 
    1.0807839326085618E+01 
    1.4108570749084276E+01 
    1.4507067905177978E+01 
    7.2061384358963014E+00 
    1.3676141394543793E+01 
    1.4370844409144510E+01 
    7.0163311584009769E+00 
    1.5025123237103394E+01 
    1.5011135533719269E+01 
    1.3399728185970318E+01 
    1.0420202445957971E+01 
    2.5874512504026881E+00 
    1.4667644896137094E+01 
    1.0264779070105948E+01 
    1.4788416091638721E+01 
    9.3895023298926450E+00 
    1.4506003916377074E+01 
    9.1957611499175806E-01 
    1.2993138646483084E+01 
    9.5769362707305365E+00 
    8.5649557139237729E+00 
    8.3446996238114792E+00 
    9.9116648018524955E+00 
    1.1056907218291693E+01 
    1.0316534455060394E+01 
    6.9177322567139470E+00 
    1.4502141228077960E+01 
    1.3955046262860170E+01 
    1.1740794332021622E+01 
    1.0323306268458230E+01 
    1.5025674493307293E+00 
    7.6947328641946475E+00 
    5.3259496840363170E+00 
    1.4689418749009956E+01 
    1.1189534842638338E+01 
    1.4005252310186453E+01 
    1.4020262901366941E+01 
    8.9318169613665290E+00 
    1.1765047076325475E+01 
    1.3652086535181510E+01 
    1.4993885016264535E+01 
    6.3892556463674079E+00 
    1.2332059083898413E+01 
    1.0345147494952963E+01 
    5.6835166654011244E+00 
    8.9253933314412262E+00 
    1.2314559638421697E+01 
    1.3982722098040590E+01 
    9.9658252961357938E+00 
    1.4091708329764788E+01 
    1.3860373456402437E+01 
    1.3810233643386942E+01 
    9.7996973095032622E+00 
    8.5033399568512831E+00 
    1.3664198394785034E+01 
    8.6290938564192174E+00 
    1.0053103267596700E+01 
    8.4567968360233756E+00 
    9.8686307600017589E+00 
    1.4029135368855917E+01 
    6.2451636068119303E+00 
    8.8347194536134701E+00 
    1.4603878925795588E+01 
    9.8120529089488766E+00 
    1.1081431297770752E+01 
    6.4078153705362606E+00 
    8.6916930488516222E+00 
    1.3838750241973479E+01 
    1.4146789908815197E+01 
    5.2231035992556940E+00 
    9.8171649088359185E+00 
    8.4979616406129868E+00 
    1.5415111436842627E+01 
    1.4878470819140791E+01 
    1.5675482867006499E+01 
    9.8373129172329250E+00 
    1.4002844489267950E+01 
    1.3609802520491616E+01 
    9.7106669651716597E+00 
    1.3656788638690696E+01 
    1.0324051928371750E+01 
    5.7609191849871406E+00 
    1.0072066372470417E+01 
    1.4590577449962622E+01 
    1.3653651344141759E+01 
    6.7949798888009951E+00 
    1.3682998920948775E+01 
    1.1064477268085390E+01 
    9.9837030964535280E+00 
    9.5332625107395952E+00 
    1.3522326513316278E+01 
    1.0513263940952591E+01 
    1.3669495392114802E+01 
    9.6992199020310768E+00 
    5.9708500984595094E+00 
    1.0122865115258991E+01 
    8.3540061554669780E+00 
    1.2504438141898158E+01 
    1.4786059448528462E+01 
    1.3662514321207606E+01 
    1.4660347948030916E+01 
    9.7606967230316393E+00 
    6.6169663015337763E+00 
    6.7112776085769301E+00 
    1.0166663362108116E+01 
    1.0029402787456299E+01 
    1.4307448709532504E+00 
    1.3174346827302548E+01 
    1.5140386823560217E+01 
    9.4030379675709934E+00 
    6.0004892147615365E+00 
    1.1477542285802281E+01 
    1.3681628942172587E+01 
    7.1116618546092507E+00 
    4.8242778596354352E+00 
    1.0006286040219871E+01 
    1.3765910874022470E+01 
    1.4407425770093862E+01 
    1.4298506655718089E+01 
    1.4150443488874094E+01 
    6.9496285135530824E+00 
    9.9776763669767767E+00 
    1.3206891266346020E+01 
    7.8635569586522909E+00 
    1.3963198311767975E+01 
    1.2003209354362109E+01 
    6.8138609733011251E+00 
    1.3789700492003101E+01 
    1.4687060842828972E+01 
    1.3804047169081713E+01 
    6.8462318183137194E+00 
    1.0079203911003981E+01 
    7.5268003520886566E+00 
    9.5139126339604321E+00 
    1.3673093342565261E+01 
    1.3661350241848710E+01 
    6.8862845233546013E+00 
    1.4545021265849922E+01 
    1.0633148145495378E+01 
    1.3694598322969943E+01 
    1.4513792722061726E+01 
    1.3681240678289546E+01 
    1.2745573609600664E+01 
    1.5469142709721963E+01 
    9.3588581385328098E+00 
    1.4629989826348863E+01 
    1.3723611045642967E+01 
    1.4702008721737496E+01 
    1.4538138975304603E+01 
    9.4583995180289460E+00 
    9.9030545682430962E+00 
    9.3935688412005600E+00 
    1.2255562012483196E+01 
    3.9361185004551378E+00 
    1.0103181878600708E+01 
    1.5594648327581531E+01 
    1.0324088936662768E+01 
    1.0510483582378320E+01 
    1.4675281912249295E+01 
    1.4904937999638495E+01 
    9.2910498819134411E+00 
    1.3687330763300155E+01 
    1.3657502448325543E+01 
    1.0498207027170738E+01 
    1.4493508084617474E+01 
    7.1579722436170066E+00 
    4.5478041611172797E+00 
    1.0776759184723941E+01 
    1.0339503376975438E+01 
    1.3663633052612902E+01 
    6.4374710238849229E+00 
    1.4214138205963067E+01 
    4.6295687181739433E+00 
    1.0268947218223555E+01 
    9.4935176330536013E+00 
    1.0055722651220060E+01 
    1.6896434621089611E+01 
    3.8240751174910566E+00 
    1.0020501451153502E+01 
    1.1976727985657030E+01 
    9.6635931415619112E+00 
    7.6035336113656964E+00 
    1.4326352162123921E+01 
    1.6454677491817279E+01 
    1.4474739746253709E+01 
    9.9609245389627894E+00 
    5.6509071205813530E+00 
    1.6307788139834454E+01 
    1.3944194814703124E+01 
    7.2877871262246723E+00 
    9.6039835791318016E+00 
    1.5094405606224710E+01 
    3.2522360161650736E+00 
    1.0388799741948345E+01 
    1.4442984342324397E+01 
    1.0068978384682122E+01 
    8.7751202041509107E+00 
    1.0060229608486541E+01 
    1.3429320500340930E+01 
    1.0050143365280068E+01 
    5.0294196542892058E+00 
    8.9134656626839182E-01 
    7.5022298954224578E+00 
    1.5311593280797528E+01 
    9.3930525735285766E+00 
    1.1395978682209616E+01 
    1.0826482747111820E+01 
    1.2580237504915836E+01 
    1.0082461565937336E+01 
    1.3853744383937887E+01 
    1.6910744382785282E+01 
    1.1934591850427466E+01 
    1.4602819170899735E+01 
    5.3509440949581499E-01 
    1.3663372860579958E+01 
    5.5721568318719878E+00 
    1.5763214624087642E+01 
    1.0034127482027140E+01 
    8.9199597647861992E+00 
    7.6778184274225092E+00 
    5.2783578140076370E+00 
    1.1268404061515286E+01 
    7.9470699843458315E+00 
    1.2399110580368546E+01 
    2.1669057378942322E+00 
    1.1098402066201892E+01 
    1.3596892416608203E+01 
    6.0916061995238096E+00 
    1.4152899621863213E+01 
    1.5565436331039505E+01 
    1.3995764613255870E+01 
    9.8998634364997606E+00 
    1.0050528847329009E+01 
    1.0026841316711796E+01 
    5.7208682532909299E+00 
    9.1278862420925044E+00 
    8.9721897349225639E+00 
    1.0015878527858652E+01 
    9.3243151879593693E+00 
    6.7668783442975067E-01 
    6.4060666105981312E+00 
    9.7199207498604796E+00 
    9.9908972622719237E+00 
    1.2742339513243238E+01 
    2.1394187451561155E+00 
    1.0458308450509485E+01 
    1.0343778857192918E+01 
    3.6784283117981147E+00 
    1.3857963114688099E+01 
    8.6487257333776419E+00 
    1.0192405667244190E+01 
    1.3940426382879579E+01 
    5.2986799802100970E+00 
    1.3980900934327027E+01 
    8.7637774026820470E+00 
    9.8094393847293704E-01 
    9.4550390216375462E+00 
    1.4556696224042026E+01 
    1.3663201472698823E+01 
    1.3681453741215854E+01 
    1.0372197479500901E+01 
    1.0273753008563355E+01 
    8.6276100423289872E+00 
    6.9572753146738027E+00 
    1.4049097185328645E+01 
    9.6013719400019362E+00 
    6.7761171395446302E+00 
    1.3677209820709807E+01 
    1.4366939855641585E+01 
    1.0193833704947963E+01 
    9.8581104077357704E+00 
    1.6789919330770882E+01 
    1.0499062618722256E+01 
    1.4067540372969484E+01 
    8.1923922581040873E+00 
    1.6939367527000364E+01 
    6.6721606633016979E+00 
    9.0380281299287244E+00 
    7.4783743936917570E+00 
    1.0726685556681959E+01 
    8.5632461742267019E+00 
    1.6922841569560223E+01 
    1.0546416347769402E+01 
    1.3365043446217006E+01 
    6.8630887962765001E+00 
    1.0078627103015377E+01 
    1.3910755034353599E+01 
    8.5973416879180764E+00 
    7.2270184674352613E+00 
    1.1134884798199028E+01 
    1.4136167854272250E+01 
    7.3614132389500879E+00 
    9.5139362734812511E+00 
    9.8871651563412026E+00 
    1.3638917029374577E+01 
    9.6899832367149639E+00 
    1.4111797895737707E+01 
    1.4730764999971061E+01 
    8.6551821347263562E+00 
    8.4787072663934584E+00 
    7.9803860700870777E+00 
    1.3779954015618026E+01 
    1.0347424218399524E+01 
    1.6493848555047091E+01 
    1.2943883301428125E+01 
    1.3869984444784519E+01 
    1.6181654121231176E+01 
    1.5572430853796160E+01 
    1.0127400681023975E+01 
    1.0000778669756443E+01 
    1.3431394160179591E+01 
    1.3701023404534299E+01 
    1.4220969678724721E+01 
    1.3964435279526706E+01 
    1.6810720968308985E+01 
    1.0498606138843357E+01 
    8.7556870863993357E+00 
    1.0495887745540648E+01 
    1.4644560905305864E+01 
    1.0237526746479695E+01 
    5.9456235807634723E+00 
    9.8838217210653987E+00 
    1.5062140959157055E+01 
    1.0379531294412267E+01 
    8.7665542087671664E+00 
    9.8287252473717004E+00 
    1.5172153435045852E+01 
    1.3714941573638848E+01 
    8.3148892638021294E+00 
    1.5307917425114924E+01 
    1.0160062682698575E+01 
    1.4215113193346479E+01 
    1.5184929952671999E+01 
    1.0657155943891944E+01 
    5.3033128816926256E+00 
    1.1094484731371111E+01 
    5.4890315999866459E+00 
    1.0292484236825354E+01 
    1.0070631041370810E+01 
    1.1685323813795693E+01 
    5.8051335174655190E+00 
    1.2404258055158747E+01 
    1.0091069869696240E+01 
    1.3954716414839570E+01 
    1.0645807927430514E+01 
    8.1250036398333396E+00 
    9.7052848234779265E+00 
    1.0538441987941150E+01 
    1.0601672251294906E+01 
    1.4777384452758827E+01 
    8.3589331582587985E+00 
    8.2136962050645064E+00 
    6.1086387324388474E+00 
    1.4247524492694108E+01 
    9.7457339280093969E+00 
    1.3508729292745523E+01 
    1.0041257690153389E+01 
    6.6875405523433580E+00 
    1.3743218269901813E+01 
    1.0016715408631040E+01 
    7.2981090241917910E+00 
    7.7370427138042306E+00 
    8.0149607658944380E+00 
    1.3984742473384658E+01 
    1.0017859607342249E+01 
    1.4614293991053252E+01 
    9.9755167679085677E+00 
    9.9139223523826185E+00 
    9.4326047270732420E+00 
    1.3825521403459229E+01 
    9.8317161974103975E+00 
    8.0563992795158796E+00 
    1.5560575683560282E+01 
    1.3905381932967819E+01 
    6.9917740015231402E+00 
    2.7000390146809852E+00 
    1.0007378441266759E+01 
    9.4353976306636671E+00 
    8.4711490579914468E+00 
    9.2366270949421185E+00 
    1.3866019940949528E+01 
    9.7166029210366336E+00 
    8.8110216847509566E+00 
    1.3722698605255719E+01 
    6.9292433926959482E+00 
    1.3391614923230296E+01 
    9.1141821824674967E+00 
    7.9964539402175623E+00 
    8.5544361888111613E+00 
    1.4299562247935375E+01 
    1.0058690905154473E+01 
    1.0066708646212209E+01 
    5.8872292665080854E+00 
    6.3698833562532933E+00 
    1.2735717589610854E+01 
    1.0076473581278519E+01 
    1.0047145972058768E+01 
    1.5293749971230307E+01 
    8.2157980614365389E+00 
    1.0089017032016141E+01 
    7.1672949216605994E+00 
    7.3936912560041792E+00 
    1.3819357527523202E+01 
    9.7205384931837102E+00 
    7.0314306933976871E+00 
    1.0636225984258807E+01 
    9.9618225184547420E+00 
    1.3822026117993710E+01 
    1.5386387728806866E+01 
    1.0335776609694802E+00 
    1.0012254887675226E+01 
    1.0337544596568645E+01 
    1.3885578750615434E+01 
    9.5279062744698511E+00 
    1.0032694096665701E+01 
    1.4830201875945757E+01 
    8.5903534092099498E+00 
    7.0951116802382543E+00 
    1.2187539682605131E+01 
    1.3676856903918473E+01 
    1.4700475037021979E+01 
    1.4969741530023780E+01 
    9.8552831007638488E+00 
    1.0003825114715598E+01 
    1.1336064384057046E+01 
    6.6415347725905391E+00 
    1.3804395025325151E+01 
    7.6511990773984815E+00 
    6.9185136867540136E+00 
    1.2641116767968670E+01 
    1.1893184436379563E+01 
    6.7842164928703799E+00 
    1.3712465996657084E+01 
    1.4686594228202992E+01 
    1.0514180118325225E+01 
    1.5488005632346386E+01 
    1.3745391853539147E+01 
    9.5920803130538133E+00 
    1.4426403954431375E+01 
    7.3977184782668317E+00 
    1.3695478823873829E+01 
    1.0011198332657736E+01 
    9.9729141188488093E+00 
    1.5463370326468510E+01 
    9.7793661296823053E+00 
    1.2362132499600715E+01 
    8.5388744108869545E+00 
    1.4804296881336022E+01 
    1.3602907020815575E+01 
    8.9139716623103773E+00 
    1.3652624055523940E+01 
    9.1332105404507402E+00 
    1.0041940049303372E+01 
    1.4646354103600085E+01 
    1.3959227645558922E+01 
    1.4689749301848078E+01 
    1.3888743929496794E+01 
    9.1331842397433363E+00 
    9.3497384020760208E+00 
    1.4696703909870878E+01 
    9.4748734294044699E+00 
    1.3535265619389866E+01 
    9.7687809966801744E+00 
    3.9671699278456245E+00 
    6.9915362777018757E+00 
    6.4731861949903262E+00 
    1.4649918330835273E+01 
    1.5392767514423973E+01 
    1.3670570326008651E+01 
    1.1633517195603940E+01 
    1.3957439352051832E+01 
    1.3720237951984622E+01 
    1.4301854685156613E+01 
    5.6853281241669356E+00 
    3.6984826731486926E+00 
    1.1427741300666925E+01 
    9.6874867097248885E+00 
    1.3867477816306010E+01 
    1.3864974480661560E+01 
    1.0360624117705230E+01 
    1.3901978850274300E+01 
    9.9981909641049285E+00 
    9.9282962504077990E+00 
    5.1307792334721549E+00 
    3.6848113880450049E+00 
    1.5168655056624603E+01 
    7.8542622539631619E+00 
    8.8553221705377538E+00 
    1.0246556829356377E+01 
    1.6791686097018989E+01 
    1.0347121036217873E+01 
    1.0343086569368257E+01 
    4.1928637097839676E+00 
    1.0348540568380194E+01 
    1.0362855549245804E+01 
    1.4185077602091155E+01 
    8.5602275217878887E+00 
    9.6238776134261279E+00 
    1.5336783040591664E+01 
    1.0020519944770982E+01 
    1.3686314747477926E+01 
    1.3944783849783486E+01 
    1.2405499132046165E+01 
    8.5345330521701186E+00 
    1.3888260917272982E+01 
    9.8180430387104263E+00 
    1.3877067708755165E+01 
    1.3625376846845692E+01 
    1.4668995797641996E+01 
    1.3886823569035515E+01 
    1.3035998946090608E+01 
    1.0009295408999984E+01 
    6.7324783474111536E+00 
    1.6664150240333392E+01 
    7.8083791541890246E+00 
    1.4599786481737592E+01 
    1.0006736721839644E+01 
    8.2596498351922012E+00 
    4.9474185420955061E+00 
    1.0399366922750971E+01 
    1.3875266166692978E+01 
    1.3871572450461835E+01 
    1.0022862752697895E+01 
    1.0000980760194219E+01 
    1.5543817977816811E+01 
    1.4912895795739079E+01 
    1.0365444839582262E+01 
    3.4414831067641676E+00 
    1.2989735000786085E+01 
    1.6920379027652281E+01 
    1.0012569150388579E+01 
    1.2012067950012430E+01 
    9.5260854799296375E+00 
    1.6520311467939322E+01 
    1.4992070171626670E+01 
    1.4728445265365933E+01 
    1.0386759568451225E+01 
    4.6158245582820374E+00 
    9.4834231221933010E+00 
    9.5510366689868871E+00 
    9.5920940549992011E+00 
    3.7469118417283602E+00 