# vtk DataFile Version 2.0
Pressure Field Data 
ASCII 
DATASET UNSTRUCTURED_GRID 

POINTS 2860 double 

    0.0000000000000000E+00     0.0000000000000000E+00     0.0000000000000000E+00 
    1.0000000000000000E+00     0.0000000000000000E+00     0.0000000000000000E+00 
    1.0000000000000000E+00     1.0000000000000000E+00     0.0000000000000000E+00 
    0.0000000000000000E+00     1.0000000000000000E+00     0.0000000000000000E+00 
    2.5000000000000000E-01     2.5000000000000000E-01     0.0000000000000000E+00 
    7.5000000000000000E-01     2.5000000000000000E-01     0.0000000000000000E+00 
    7.5000000000000000E-01     7.5000000000000000E-01     0.0000000000000000E+00 
    2.5000000000000000E-01     7.5000000000000000E-01     0.0000000000000000E+00 
    3.1249999999942091E-02     0.0000000000000000E+00     0.0000000000000000E+00 
    6.2499999999873469E-02     0.0000000000000000E+00     0.0000000000000000E+00 
    9.3749999999826514E-02     0.0000000000000000E+00     0.0000000000000000E+00 
    1.2499999999977961E-01     0.0000000000000000E+00     0.0000000000000000E+00 
    1.5624999999968961E-01     0.0000000000000000E+00     0.0000000000000000E+00 
    1.8749999999959971E-01     0.0000000000000000E+00     0.0000000000000000E+00 
    2.1874999999950970E-01     0.0000000000000000E+00     0.0000000000000000E+00 
    2.4999999999941969E-01     0.0000000000000000E+00     0.0000000000000000E+00 
    2.8124999999932920E-01     0.0000000000000000E+00     0.0000000000000000E+00 
    3.1249999999923850E-01     0.0000000000000000E+00     0.0000000000000000E+00 
    3.4374999999914790E-01     0.0000000000000000E+00     0.0000000000000000E+00 
    3.7499999999905720E-01     0.0000000000000000E+00     0.0000000000000000E+00 
    4.0624999999896660E-01     0.0000000000000000E+00     0.0000000000000000E+00 
    4.3749999999887590E-01     0.0000000000000000E+00     0.0000000000000000E+00 
    4.6874999999878530E-01     0.0000000000000000E+00     0.0000000000000000E+00 
    4.9999999999869471E-01     0.0000000000000000E+00     0.0000000000000000E+00 
    5.3124999999877620E-01     0.0000000000000000E+00     0.0000000000000000E+00 
    5.6249999999885780E-01     0.0000000000000000E+00     0.0000000000000000E+00 
    5.9374999999893940E-01     0.0000000000000000E+00     0.0000000000000000E+00 
    6.2499999999902101E-01     0.0000000000000000E+00     0.0000000000000000E+00 
    6.5624999999910261E-01     0.0000000000000000E+00     0.0000000000000000E+00 
    6.8749999999918421E-01     0.0000000000000000E+00     0.0000000000000000E+00 
    7.1874999999926570E-01     0.0000000000000000E+00     0.0000000000000000E+00 
    7.4999999999934730E-01     0.0000000000000000E+00     0.0000000000000000E+00 
    7.8124999999942890E-01     0.0000000000000000E+00     0.0000000000000000E+00 
    8.1249999999951039E-01     0.0000000000000000E+00     0.0000000000000000E+00 
    8.4374999999959199E-01     0.0000000000000000E+00     0.0000000000000000E+00 
    8.7499999999967359E-01     0.0000000000000000E+00     0.0000000000000000E+00 
    9.0624999999975520E-01     0.0000000000000000E+00     0.0000000000000000E+00 
    9.3749999999983680E-01     0.0000000000000000E+00     0.0000000000000000E+00 
    9.6874999999991840E-01     0.0000000000000000E+00     0.0000000000000000E+00 
    1.0000000000000000E+00     3.1249999999942091E-02     0.0000000000000000E+00 
    1.0000000000000000E+00     6.2499999999873469E-02     0.0000000000000000E+00 
    1.0000000000000000E+00     9.3749999999826514E-02     0.0000000000000000E+00 
    1.0000000000000000E+00     1.2499999999977961E-01     0.0000000000000000E+00 
    1.0000000000000000E+00     1.5624999999968961E-01     0.0000000000000000E+00 
    1.0000000000000000E+00     1.8749999999959971E-01     0.0000000000000000E+00 
    1.0000000000000000E+00     2.1874999999950970E-01     0.0000000000000000E+00 
    1.0000000000000000E+00     2.4999999999941969E-01     0.0000000000000000E+00 
    1.0000000000000000E+00     2.8124999999932920E-01     0.0000000000000000E+00 
    1.0000000000000000E+00     3.1249999999923850E-01     0.0000000000000000E+00 
    1.0000000000000000E+00     3.4374999999914790E-01     0.0000000000000000E+00 
    1.0000000000000000E+00     3.7499999999905720E-01     0.0000000000000000E+00 
    1.0000000000000000E+00     4.0624999999896660E-01     0.0000000000000000E+00 
    1.0000000000000000E+00     4.3749999999887590E-01     0.0000000000000000E+00 
    1.0000000000000000E+00     4.6874999999878530E-01     0.0000000000000000E+00 
    1.0000000000000000E+00     4.9999999999869471E-01     0.0000000000000000E+00 
    1.0000000000000000E+00     5.3124999999877620E-01     0.0000000000000000E+00 
    1.0000000000000000E+00     5.6249999999885780E-01     0.0000000000000000E+00 
    1.0000000000000000E+00     5.9374999999893940E-01     0.0000000000000000E+00 
    1.0000000000000000E+00     6.2499999999902101E-01     0.0000000000000000E+00 
    1.0000000000000000E+00     6.5624999999910261E-01     0.0000000000000000E+00 
    1.0000000000000000E+00     6.8749999999918421E-01     0.0000000000000000E+00 
    1.0000000000000000E+00     7.1874999999926570E-01     0.0000000000000000E+00 
    1.0000000000000000E+00     7.4999999999934730E-01     0.0000000000000000E+00 
    1.0000000000000000E+00     7.8124999999942890E-01     0.0000000000000000E+00 
    1.0000000000000000E+00     8.1249999999951039E-01     0.0000000000000000E+00 
    1.0000000000000000E+00     8.4374999999959199E-01     0.0000000000000000E+00 
    1.0000000000000000E+00     8.7499999999967359E-01     0.0000000000000000E+00 
    1.0000000000000000E+00     9.0624999999975520E-01     0.0000000000000000E+00 
    1.0000000000000000E+00     9.3749999999983680E-01     0.0000000000000000E+00 
    1.0000000000000000E+00     9.6874999999991840E-01     0.0000000000000000E+00 
    9.6875000000003686E-01     1.0000000000000000E+00     0.0000000000000000E+00 
    9.3750000000011691E-01     1.0000000000000000E+00     0.0000000000000000E+00 
    9.0625000000015765E-01     1.0000000000000000E+00     0.0000000000000000E+00 
    8.7500000000017863E-01     1.0000000000000000E+00     0.0000000000000000E+00 
    8.4375000000028044E-01     1.0000000000000000E+00     0.0000000000000000E+00 
    8.1250000000040856E-01     1.0000000000000000E+00     0.0000000000000000E+00 
    7.8125000000054956E-01     1.0000000000000000E+00     0.0000000000000000E+00 
    7.5000000000066480E-01     1.0000000000000000E+00     0.0000000000000000E+00 
    7.1875000000086831E-01     1.0000000000000000E+00     0.0000000000000000E+00 
    6.8750000000102829E-01     1.0000000000000000E+00     0.0000000000000000E+00 
    6.5625000000114431E-01     1.0000000000000000E+00     0.0000000000000000E+00 
    6.2500000000129829E-01     1.0000000000000000E+00     0.0000000000000000E+00 
    5.9375000000147926E-01     1.0000000000000000E+00     0.0000000000000000E+00 
    5.6250000000168354E-01     1.0000000000000000E+00     0.0000000000000000E+00 
    5.3125000000188671E-01     1.0000000000000000E+00     0.0000000000000000E+00 
    5.0000000000205835E-01     1.0000000000000000E+00     0.0000000000000000E+00 
    4.6875000000192979E-01     1.0000000000000000E+00     0.0000000000000000E+00 
    4.3750000000180111E-01     1.0000000000000000E+00     0.0000000000000000E+00 
    4.0625000000167238E-01     1.0000000000000000E+00     0.0000000000000000E+00 
    3.7500000000154382E-01     1.0000000000000000E+00     0.0000000000000000E+00 
    3.4375000000141509E-01     1.0000000000000000E+00     0.0000000000000000E+00 
    3.1250000000128642E-01     1.0000000000000000E+00     0.0000000000000000E+00 
    2.8125000000115769E-01     1.0000000000000000E+00     0.0000000000000000E+00 
    2.5000000000102918E-01     1.0000000000000000E+00     0.0000000000000000E+00 
    2.1875000000090050E-01     1.0000000000000000E+00     0.0000000000000000E+00 
    1.8750000000077180E-01     1.0000000000000000E+00     0.0000000000000000E+00 
    1.5625000000064329E-01     1.0000000000000000E+00     0.0000000000000000E+00 
    1.2500000000051459E-01     1.0000000000000000E+00     0.0000000000000000E+00 
    9.3750000000385914E-02     1.0000000000000000E+00     0.0000000000000000E+00 
    6.2500000000257239E-02     1.0000000000000000E+00     0.0000000000000000E+00 
    3.1250000000128557E-02     1.0000000000000000E+00     0.0000000000000000E+00 
    0.0000000000000000E+00     9.6875000000003686E-01     0.0000000000000000E+00 
    0.0000000000000000E+00     9.3750000000011691E-01     0.0000000000000000E+00 
    0.0000000000000000E+00     9.0625000000015765E-01     0.0000000000000000E+00 
    0.0000000000000000E+00     8.7500000000017863E-01     0.0000000000000000E+00 
    0.0000000000000000E+00     8.4375000000028044E-01     0.0000000000000000E+00 
    0.0000000000000000E+00     8.1250000000040856E-01     0.0000000000000000E+00 
    0.0000000000000000E+00     7.8125000000054956E-01     0.0000000000000000E+00 
    0.0000000000000000E+00     7.5000000000066480E-01     0.0000000000000000E+00 
    0.0000000000000000E+00     7.1875000000086831E-01     0.0000000000000000E+00 
    0.0000000000000000E+00     6.8750000000102829E-01     0.0000000000000000E+00 
    0.0000000000000000E+00     6.5625000000114431E-01     0.0000000000000000E+00 
    0.0000000000000000E+00     6.2500000000129829E-01     0.0000000000000000E+00 
    0.0000000000000000E+00     5.9375000000147926E-01     0.0000000000000000E+00 
    0.0000000000000000E+00     5.6250000000168354E-01     0.0000000000000000E+00 
    0.0000000000000000E+00     5.3125000000188671E-01     0.0000000000000000E+00 
    0.0000000000000000E+00     5.0000000000205835E-01     0.0000000000000000E+00 
    0.0000000000000000E+00     4.6875000000192979E-01     0.0000000000000000E+00 
    0.0000000000000000E+00     4.3750000000180111E-01     0.0000000000000000E+00 
    0.0000000000000000E+00     4.0625000000167238E-01     0.0000000000000000E+00 
[...]
CELL_DATA 2795 
SCALARS Pressure double 1 
LOOKUP_TABLE default 

    5.2517203724014330E+00 
    1.2027425556283076E+01 
    8.5557697731478566E+00 
    8.1593336496770039E+00 
    6.4714249084776165E+00 
    1.1925627675428631E+01 
    1.2545823901030992E+01 
    4.6875814164072978E+00 
    9.0340829015750863E+00 
    6.9348110632394606E+00 
    5.9452698469033312E+00 
    1.1711609040069765E+01 
    1.1939745775420842E+01 
    1.1899429018046511E+01 
    7.8960928001550119E+00 
    4.6089235267173052E+00 
    7.5006300171828313E+00 
    6.3217681211112771E+00 
    1.1411459076616792E+01 
    8.5525365035081489E+00 
    8.4400649529280294E+00 
    1.1844892767024840E+01 
    7.9320547440463685E+00 
    3.0980520332937461E-01 
    1.1684913599274317E+01 
    1.1921287347112299E+01 
    1.2573822512645082E+01 
    5.7118508349902521E+00 
    1.1645436582835622E+01 
    1.2573615291818225E+01 
    8.6239045471161759E+00 
    8.7813093977192871E+00 
    6.1472447762501048E+00 
    8.5166041041179614E+00 
    2.7352160700912433E+00 
    7.5050212352861845E+00 
    8.5089838198547341E+00 
    1.2609631204369727E+01 
    1.2526629495124407E+01 
    1.1722278489587088E+01 
    6.4106449830731647E+00 
    1.1668620788903567E+01 
    6.4589954852397202E-01 
    8.3702279753757178E+00 
    1.2361571160131405E+01 
    1.2215532592063404E+01 
    1.1702752869918202E+01 
    9.3469357240004598E+00 
    1.1762820963710210E+01 
    7.6776625532927643E+00 
    7.3067556569809522E+00 
    8.7496690107253094E+00 
    8.2708779635412508E+00 
    7.5452153928872798E+00 
    8.7006148371552321E+00 
    1.1237733929349826E+01 
    1.0183422574547670E+01 
    6.5068510760400473E+00 
    1.1848176074534656E+01 
    1.1784068617007254E+01 
    8.2011595268930346E+00 
    8.2214081426979693E+00 
    8.0755037528210902E+00 
    1.2487531647046721E+01 
    1.2708094065858404E+01 
    7.5094847311972437E+00 
    8.7483861163570715E+00 
    1.1629008626481379E+01 
    9.9919354328445760E+00 
    8.2546154681201447E+00 
    1.2716505307302706E+01 
    1.1782302483415405E+01 
    7.4016236950371077E+00 
    1.2300485994652924E+01 
    8.9408007470325490E+00 
    1.1560900263081008E+01 
    1.2618983583914444E+01 
    8.8054983298112361E+00 
    5.3541733591138820E+00 
    8.7651810041238551E+00 
    1.2533694329767020E+01 
    1.2748111060434701E+01 
    7.5157083272007883E+00 
    8.6798245345674108E+00 
    1.2783302446603138E+01 
    8.5150385600506375E+00 
    8.0047927685513578E+00 
    1.0330241083471442E+01 
    5.1032420614080456E+00 
    7.3265514953443294E+00 
    8.6811174052819133E+00 
    9.1517232448022163E+00 
    1.4142237903743499E+01 
    6.2864795681404821E+00 
    8.7556462825664951E+00 
    1.1684589359124862E+01 
    1.1897717059224270E+01 
    5.5272233340396371E+00 
    8.3892461747644482E+00 
    8.7093570354669456E+00 
    1.1915652071630893E+01 
    8.7152917799795429E+00 
    1.1856730262306886E+01 
    3.3668765440965305E+00 
    5.7788568578208741E+00 
    8.9493048038590377E+00 
    1.2035521952434868E+01 
    7.4739037316528494E+00 
    8.0115454839251292E+00 
    8.7009318356504401E+00 
    7.9769707399714243E+00 
    9.9312369269244360E+00 
    7.7780032994923198E+00 
    7.4087944347719583E+00 
    5.8144387558142672E+00 
    1.0064960484170795E+01 
    8.7822992495832679E+00 
    1.2410926587048328E+01 
    7.5211503087209257E+00 
    8.1486513866593544E+00 
    1.1774065189115509E+01 
    6.7770270074890124E+00 
    1.2162206082365792E+01 
    8.5976997566601643E+00 
    8.0830389940062854E+00 
    1.1899861346799938E+01 
    8.7766846695505745E+00 
    1.2624041892978010E+01 
    1.0338939812425174E+01 
    1.1114548682088104E+01 
    1.2588671300968800E+01 
    6.2996079041133131E+00 
    8.9633945466927596E+00 
    1.1904863738586446E+01 
    2.5300086466452640E+00 
    8.6768053413198132E+00 
    1.2559196572105410E+01 
    8.1126506041508843E+00 
    9.3533947493917182E+00 
    5.4775720946825635E+00 
    1.1684528897946112E+01 
    1.4612008900975477E+01 
    1.0722765184963627E+01 
    8.1068944754783203E+00 
    7.2409842307648651E+00 
    9.3034280077626530E+00 
    8.6150498136648377E+00 
    6.0075951643818417E+00 
    1.2585268628663894E+01 
    1.1988151092954860E+01 
    1.1686083654857184E+01 
    9.1711021724136792E+00 
    7.3772711708347671E+00 
    8.4399052764193296E+00 
    1.2324137331759612E+01 
    7.5910538506310381E+00 
    8.5014808125670491E+00 
    7.7309197192928698E+00 
    9.8542343149388163E+00 
    1.4600725283928456E+01 
    1.1678761438730721E+01 
    7.3450161663270528E+00 
    1.2065683438179660E+01 
    1.1999579816422010E+01 
    1.2069671999980114E+01 
    1.2965038031368332E+01 
    1.3463970062441959E+01 
    1.2211420285650473E+01 
    8.7408364008306112E+00 
    9.2432407052754222E+00 
    1.2063842896843447E+01 
    1.2418425521587988E+01 
    6.2623747676923722E+00 
    1.1702322415971228E+01 
    1.2291115362039916E+01 
    6.1050704649448395E+00 
    1.2880084539273779E+01 
    1.2875012462750808E+01 
    1.1469538753227214E+01 
    9.0166250650504391E+00 
    2.2220580435583712E+00 
    1.2559749100408869E+01 
    8.8953134706577899E+00 
    1.2671513421640885E+01 
    8.0537029596693355E+00 
    1.2411880386640668E+01 
    7.8758437955202332E-01 
    1.1130976787492962E+01 
    8.2583108835164261E+00 
    7.3426105020577026E+00 
    7.1527114795112192E+00 
    8.5679889494135129E+00 
    9.6113062306618904E+00 
    8.8295503116042600E+00 
    5.9036359316837483E+00 
    1.2415719106481596E+01 
    1.1927342895824737E+01 
    1.0096623166253575E+01 
    8.9412654334970973E+00 
    1.2976938079911235E+00 
    6.5943754492037652E+00 
    4.5568292802457844E+00 
    1.2584749550871948E+01 
    9.6881651481749316E+00 
    1.1977918467839224E+01 
    1.1984162288298858E+01 
    7.6609129093602526E+00 
    1.0102242423708196E+01 
    1.1681928770746101E+01 
    1.2858624441211811E+01 
    5.4579078242511549E+00 
    1.0534582707130005E+01 
    8.8601568954312082E+00 
    4.8562250931349844E+00 
    7.6512736767089260E+00 
    1.0528910396597366E+01 
    1.1951513130465399E+01 
    8.6260273236024130E+00 
    1.2049127538847660E+01 
    1.1842774836311207E+01 
    1.1799559737211494E+01 
    8.4482252619407170E+00 
    7.3022920479103419E+00 
    1.1693026306507972E+01 
    7.3975788079099560E+00 
    8.7184341729582044E+00 
    7.2492763317462634E+00 
    8.4526623789029287E+00 
    1.1991423216286330E+01 
    5.4337415723550455E+00 
    7.5736331896838127E+00 
    1.2504635523132238E+01 
    8.4650267760109816E+00 
    9.5874605267168054E+00 
    5.5769207264945653E+00 
    7.4511377514848061E+00 
    1.1823685899733549E+01 
    1.2098398280753313E+01 
    4.5352928711150140E+00 
    8.4641449682151073E+00 
    7.2844165706026764E+00 
    1.3245170122007760E+01 
    1.2754819413063956E+01 
    1.3487707525895567E+01 
    8.4858371299661712E+00 
    1.1969072519124571E+01 
    1.1646376852399179E+01 
    8.3678215925470685E+00 
    1.1686193190047280E+01 
    8.9403106073395247E+00 
    4.9223154917385070E+00 
    8.6423862527191364E+00 
    1.2495598863568604E+01 
    1.1683476765640847E+01 
    5.9133609055489718E+00 
    1.1708180897972188E+01 
    9.6151737580956294E+00 
    8.6601330372392198E+00 
    8.1900497560261680E+00 
    1.1572244972602796E+01 
    9.1380650087315818E+00 
    1.1697204456464963E+01 
    8.3229098820463179E+00 
    5.1103789612177888E+00 
    8.7793578703413129E+00 
    7.1603468474827574E+00 
    1.0723088227083105E+01 
    1.2666637711625317E+01 
    1.1692299767768437E+01 
    1.2553119377936671E+01 
    8.4166856768458143E+00 
    5.7600797089745166E+00 
    5.8423641060037736E+00 
    8.8465754670758425E+00 
    8.6970227685461978E+00 
    1.2249282571801172E+00 
    1.1281136558439288E+01 
    1.2988705526542507E+01 
    8.0614474259635642E+00 
    5.1257934800947327E+00 
    9.8072870395150016E+00 
    1.1706908936096697E+01 
    6.0913535876211551E+00 
    4.1317639568206053E+00 
    8.6694959025107980E+00 
    1.1788344243984877E+01 
    1.2331750240160188E+01 
    1.2228589847042882E+01 
    1.2102703194342380E+01 
    5.9412377267107965E+00 
    8.6489096667714627E+00 
    1.1281808127887967E+01 
    6.8182374980560381E+00 
    1.1928556174102029E+01 
    1.0290482649093121E+01 
    5.9300473766268853E+00 
    1.1798429011027139E+01 
    1.2573561617991844E+01 
    1.1787600884907324E+01 
    5.8634961500479506E+00 
    8.7447204075335563E+00 
    6.4491238209780244E+00 
    8.2393142922781379E+00 
    1.1699817192536520E+01 
    1.1689965662674338E+01 
    5.8981653691995364E+00 
    1.2446766210021709E+01 
    9.2151003778505824E+00 
    1.1725915794416284E+01 
    1.2423875105242628E+01 
    1.1710637295255692E+01 
    1.0927171783647955E+01 
    1.3292239726386091E+01 
    8.0355963260590499E+00 
    1.2526644869313163E+01 
    1.1747994470911060E+01 
    1.2590445229935442E+01 
    1.2440938920293471E+01 
    8.1228943086034295E+00 
    8.5505237876663216E+00 
    8.0521925393674962E+00 
    1.0520780868783048E+01 
    3.3760113426947762E+00 
    8.7847292376607200E+00 
    1.3410999541165499E+01 
    8.9458917051804843E+00 
    9.1086628826072005E+00 
    1.2566297801847814E+01 
    1.2776455493202930E+01 
    8.0129029284858060E+00 
    1.1711775800109221E+01 
    1.1687146525966531E+01 
    9.0980410047974267E+00 
    1.2401741037422253E+01 
    6.2259424328722366E+00 
    3.9393734851996536E+00 
    9.3455274063681539E+00 
    8.9578689616124780E+00 
    1.1691668130831882E+01 
    5.5119654306171615E+00 
    1.2157129126674000E+01 
    4.0144201906639756E+00 
    8.9011303269274435E+00 
    8.2003867643005499E+00 
    8.7228007679240278E+00 
    1.4651161408477231E+01 
    3.2836862407596494E+00 
    8.6960278615887407E+00 
    1.0236664938964973E+01 
    8.3280912297872902E+00 
    6.5013935086709553E+00 
    1.2261603571830445E+01 
    1.4225545570271938E+01 
    1.2386110959691500E+01 
    8.6386834401714463E+00 
    4.8303989050824381E+00 
    1.4087840252013654E+01 
    1.1915995875134337E+01 
    6.2441757128351387E+00 
    8.2306570181482215E+00 
    1.2950577291631523E+01 
    2.7922142319359531E+00 
    9.0021536241834035E+00 
    1.2357621571701085E+01 
    8.7353022664126581E+00 
    7.5981349706316044E+00 
    8.7402710246604709E+00 
    1.1461626385097277E+01 
    8.7162550864003911E+00 
    4.3055354091531806E+00 
    7.5783449152399140E-01 
    6.5226209727320104E+00 
    1.3144695047955841E+01 
    8.0515525473046488E+00 
    9.8479636375035646E+00 
    9.4395242862024134E+00 
    1.0747294846001680E+01 
    8.7479413520516118E+00 
    1.1836198270235645E+01 
    1.4665024651657454E+01 
    1.0251186351225943E+01 
    1.2502748841881097E+01 
    4.5944164699681850E-01 
    1.1691588783366974E+01 
    4.7741879446451518E+00 
    1.3570372369210412E+01 
    8.7103233986635455E+00 
    7.6994193361933982E+00 
    6.5794674547241918E+00 
    4.5187039260672668E+00 
    9.7092332220470112E+00 
    6.8877483693206187E+00 
    1.0634078760587343E+01 
    1.8527550786757316E+00 
    9.6409532614538787E+00 
    1.1635351784845836E+01 
    5.2942646223275460E+00 
    1.2102076103290038E+01 
    1.3388326581625291E+01 
    1.1974526550895796E+01 
    8.5810029828950398E+00 
    8.7181214818498489E+00 
    8.7030487567609658E+00 
    4.8966744325022429E+00 
    7.8238777227430862E+00 
    7.6906208466426387E+00 
    8.6912620289667082E+00 
    7.9944444035878650E+00 
    5.7857437699179437E-01 
    5.4712624389651525E+00 
    8.3289181620649710E+00 
    8.6671122570399479E+00 
    1.0921023809949705E+01 
    1.8401805453293008E+00 
    9.0630437387491476E+00 
    8.9627787922282476E+00 
    3.1565944647599111E+00 
    1.1864256562839950E+01 
    7.4147413357847514E+00 
    8.8396475182661529E+00 
    1.1911065070705311E+01 
    4.5354486728814054E+00 
    1.1960031488865098E+01 
    7.5124858181976348E+00 
    8.4846462532538236E-01 
    8.1059490136207106E+00 
    1.2460204742847786E+01 
    1.1691810219534837E+01 
    1.1708772656820864E+01 
    9.0586499036017631E+00 
    8.9041931855399010E+00 
    7.3963426133865813E+00 
    5.9388139152420756E+00 
    1.2005039441034757E+01 
    8.2297942895413758E+00 
    5.8077743953978223E+00 
    1.1703875160063992E+01 
    1.2291723847126569E+01 
    8.8613109803362171E+00 
    8.5116212271035305E+00 
    1.4549473735921870E+01 
    9.0986919817819807E+00 
    1.2024864207699169E+01 
    7.0206652659808828E+00 
    1.4693459363790474E+01 
    5.8075898268693278E+00 
    7.7819651833318932E+00 
    6.4938386433117961E+00 
    9.2963209467865919E+00 
    7.4069153984442186E+00 
    1.4677340443069376E+01 
    9.1398442405884097E+00 
    1.1410223920270829E+01 
    5.9749399209954817E+00 
    8.7449517612876306E+00 
    1.1887181994092199E+01 
    7.4321204970530079E+00 
    6.1718951454578521E+00 
    9.5218914942104327E+00 
    1.2095686059677188E+01 
    6.3953300860489568E+00 
    8.2172791354318786E+00 
    8.5347042421612702E+00 
    1.1670971407575328E+01 
    8.3544487920150345E+00 
    1.2068483418097314E+01 
    1.2616451649264588E+01 
    7.4199016323059661E+00 
    7.2678203749315484E+00 
    6.9196499607849438E+00 
    1.1789362382066821E+01 
    8.9542875656820371E+00 
    1.4263491697285728E+01 
    1.1128128175042104E+01 
    1.1850403805233112E+01 
    1.3968251721114399E+01 
    1.3395733025718741E+01 
    8.7880694286677823E+00 
    8.6764522447743584E+00 
    1.1496861852041977E+01 
    1.1723316939027466E+01 
    1.2156619605442394E+01 
    1.1933259412167340E+01 
    1.4567520254806139E+01 
    9.0983111037088165E+00 
    7.5058168217208472E+00 
    9.0605558318009098E+00 
    1.2539174348416335E+01 
    8.8736837219605000E+00 
    5.1662389860154239E+00 
    8.5656830844208809E+00 
    1.2919505246344935E+01 
    8.9940276139700259E+00 
    7.5150959971858171E+00 
    8.4745809089435298E+00 
    1.3020575616169566E+01 
    1.1717882913294531E+01 
    7.1256553049599995E+00 
    1.3145752204460944E+01 
    8.8142416667530483E+00 
    1.2159384199932830E+01 
    1.3032079382221756E+01 
    9.1376787217598459E+00 
    4.5375300046779454E+00 
    9.4907360003117560E+00 
    4.6946544716582688E+00 
    8.9172694751717927E+00 
    8.7355198115754202E+00 
    9.9831821148525730E+00 
    4.9639156414414787E+00 
    1.0593896201777607E+01 
    8.7561800116790973E+00 
    1.1925032779937453E+01 
    9.1101839601449512E+00 
    6.9584779368701657E+00 
    8.3624692423082827E+00 
    9.1797188194650463E+00 
    9.1897917042968729E+00 
    1.2658697607656769E+01 
    7.1655780825978486E+00 
    7.0404175431221567E+00 
    5.2239760388080345E+00 
    1.2181783288133760E+01 
    8.3977257136574597E+00 
    1.1539127106355590E+01 
    8.7073013132727137E+00 
    5.7215946256816554E+00 
    1.1740749080696759E+01 
    8.6816186363432415E+00 
    6.2489025268403724E+00 
    6.6283449880990570E+00 
    6.8682296885127165E+00 
    1.1950574207735720E+01 
    8.6932937671049597E+00 
    1.2512108907655374E+01 
    8.6385771037275205E+00 
    8.5755106377551478E+00 
    8.1380411790557439E+00 
    1.1811687640473897E+01 
    8.4934271754692396E+00 
    6.9048340912470048E+00 
    1.3383745426045207E+01 
    1.1880399220830462E+01 
    6.0856817473220826E+00 
    2.3219706947015175E+00 
    8.6820246223890578E+00 
    8.1367301120143445E+00 
    7.2622182198658729E+00 
    7.9573675434358373E+00 
    1.1863028000090114E+01 
    8.4046898499064646E+00 
    7.5615016178677408E+00 
    1.1741601249425553E+01 
    6.0313118822472767E+00 
    1.1463040312680446E+01 
    7.8557476979386998E+00 
    6.8468463149087286E+00 
    7.3334073036534360E+00 
    1.2234700791783483E+01 
    8.7257269789130714E+00 
    8.7333796493789944E+00 
    5.0394981813515498E+00 
    5.4541296308313578E+00 
    1.0872711695064103E+01 
    8.7427277516960888E+00 
    8.7268432892380492E+00 
    1.3131667185024202E+01 
    7.0415886376097641E+00 
    8.7541020485789449E+00 
    6.2364814434558689E+00 
    6.4236843986086480E+00 
    1.1803369802026198E+01 
    8.3875801603238802E+00 
    6.0230179681864033E+00 
    9.1711131057112638E+00 
    8.6152895086993819E+00 
    1.1806931650977003E+01 
    1.3217838059786885E+01 
    8.9600697894903358E-01 
    8.6872311105942543E+00 
    8.9565453785457407E+00 
    1.1863730301801441E+01 
    8.1743388319980976E+00 
    8.7012156979257327E+00 
    1.2703838124110904E+01 
    7.3639307738777475E+00 
    6.0775981836816300E+00 
    1.0520854605604804E+01 
    1.1703220290567204E+01 
    1.2589751336169359E+01 
    1.2837816910407618E+01 
    8.5330438016206234E+00 
    8.6792091341681434E+00 
    9.7683799928714858E+00 
    5.7810124656721875E+00 
    1.1810757163057128E+01 
    6.5568971600167645E+00 
    6.0232369843086486E+00 
    1.0864751134044976E+01 
    1.0226132461411041E+01 
    5.9062945485579057E+00 
    1.1733238467576550E+01 
    1.2576892651923075E+01 
    9.1118622038760133E+00 
    1.3312016942940730E+01 
    1.1760618381465150E+01 
    8.2600372300190656E+00 
    1.2343862038838946E+01 
    6.4293548303643586E+00 
    1.1718615470955156E+01 
    8.6862033161454644E+00 
    8.6448907782940925E+00 
    1.3287195764008899E+01 
    8.4260529017923549E+00 
    1.0614342633932475E+01 
    7.3197015481621337E+00 
    1.2683064439791295E+01 
    1.1640363324080189E+01 
    7.6445203464939278E+00 
    1.1683841786035396E+01 
    7.8792074327585278E+00 
    8.7100664114990263E+00 
    1.2541113674569186E+01 
    1.1925508167148747E+01 
    1.2579874999045451E+01 
    1.1866262129790329E+01 
    7.8290786703605502E+00 
    8.0382396765653912E+00 
    1.2585788889212672E+01 
    8.1516744797098628E+00 
    1.1584331826559541E+01 
    8.4198191633436696E+00 
    3.4067174998105543E+00 
    6.0821602800358976E+00 
    5.6322396509700914E+00 
    1.2544062539278732E+01 
    1.3222983255724868E+01 
    1.1698793283189771E+01 
    1.0109379570789345E+01 
    1.1940033099965364E+01 
    1.1739509534081613E+01 
    1.2240361934557312E+01 
    4.8650866702556161E+00 
    3.1779150917888854E+00 
    9.9183465677424785E+00 
    8.3221843127930679E+00 
    1.1864443652260404E+01 
    1.1862304908508891E+01 
    8.9710796315343320E+00 
    1.1893842115865901E+01 
    8.6737117297312203E+00 
    8.5395777191551758E+00 
    4.3927307143791738E+00 
    3.1642796602263372E+00 
    1.3017890244629756E+01 
    6.8142543080710860E+00 
    7.5908471787900176E+00 
    8.8830875356674763E+00 
    1.4550247090710471E+01 
    8.9646800171679484E+00 
    8.8969175789640449E+00 
    3.6034253133998830E+00 
    8.9651471353781425E+00 
    8.9768427983384136E+00 
    1.2129362236238057E+01 
    7.3369644866710138E+00 
    8.3104259708458201E+00 
    1.3172115701132501E+01 
    8.6968327298078449E+00 
    1.1711869871114271E+01 
    1.1925549438197342E+01 
    1.0747220103938842E+01 
    7.3860109554033606E+00 
    1.1865485011553087E+01 
    8.4819409386801592E+00 
    1.1875262599558887E+01 
    1.1659420167758251E+01 
    1.2561060901767473E+01 
    1.1865395464910184E+01 
    1.1169790519525357E+01 
    8.6844198741288103E+00 
    5.8595464359587170E+00 
    1.4427296349778551E+01 
    6.6918323438516163E+00 
    1.2503816643344573E+01 
    8.6817091607581265E+00 
    7.0773016698505078E+00 
    4.2748108358579415E+00 
    9.0063545873873121E+00 
    1.1854637805569798E+01 
    1.1850332571144735E+01 
    8.6926487432752175E+00 
    8.6756553017095204E+00 
    1.3365071175427786E+01 
    1.2785556154630516E+01 
    8.9814373912652083E+00 
    2.9592283064373266E+00 
    1.1144672880494380E+01 
    1.4675657706253574E+01 
    8.6879285844560297E+00 
    1.0420634145550029E+01 
    8.1690780486913397E+00 
    1.4290454813062432E+01 
    1.2856237079796985E+01 
    1.2611948142160148E+01 
    9.0010642930144495E+00 
    3.9894693297973567E+00 
    8.1298941388832784E+00 
    8.1953107168530863E+00 
    8.2449250436844466E+00 
    3.2194022680247651E+00 